Title
82323
    1SAPS     N    1   4.709   2.588  11.215 -0.0392  0.8945  0.1639
    1SAPS   HN1    2   4.652   2.619  11.134  2.4215  2.7918 -0.9768
    1SAPS   HN2    3   4.644   2.581  11.295  0.3746  0.7201  0.4894
    1SAPS   HN3    4   4.785   2.656  11.238  1.3327 -0.7552  0.7579
    1SAPS   C12    5   4.767   2.459  11.172  0.2371 -0.1987 -0.5049
    1SAPS  H12A    6   4.842   2.480  11.097 -0.0485  1.0773 -0.4622
    1SAPS   C13    7   4.828   2.378  11.286 -0.2266 -0.2144 -0.1711
    1SAPS  O13A    8   4.848   2.430  11.399  0.3080 -0.5329 -0.2511
    1SAPS  O13B    9   4.864   2.260  11.265  0.1100  0.4076 -0.5318
    1SAPS   C11   10   4.649   2.369  11.120 -0.0826 -0.0348 -0.2947
    1SAPS  H11A   11   4.587   2.334  11.206  0.6187 -0.4129  0.0690
    1SAPS  H11B   12   4.695   2.274  11.084 -0.0210 -1.9204  4.0890
    1SAPS     P   13   4.454   2.343  10.953  0.3390 -0.0169  0.1127
    1SAPS   O13   14   4.446   2.204  11.012 -0.1511 -0.1625  0.3912
    1SAPS   O14   15   4.331   2.424  10.946 -0.5369  0.1130 -0.7776
    1SAPS   O12   16   4.560   2.430  11.028  0.0374  0.4912  0.1392
    1SAPS   O11   17   4.506   2.334  10.810 -0.2519 -0.1214  0.5075
    1SAPS    C1   18   4.513   2.457  10.735  0.7176 -0.1037  1.0974
    1SAPS    HA   19   4.417   2.490  10.692  1.2231 -0.1701 -0.1274
    1SAPS    HB   20   4.560   2.539  10.793  1.5431  1.6732 -1.8779
    1SAPS    C2   21   4.607   2.440  10.610  0.1108 -0.8040  0.1142
    1SAPS    HS   22   4.613   2.536  10.555 -3.0331 -1.3882 -1.4132
    1SAPS   O21   23   4.561   2.332  10.527 -0.2168  1.0103  0.1974
    1SAPS   C21   24   4.454   2.355  10.450 -0.3204 -0.2925  0.1507
    1SAPS   O22   25   4.400   2.461  10.430 -0.2594  1.4417 -0.7526
    1SAPS   C22   26   4.395   2.231  10.402 -0.5054 -0.3423  0.3623
    1SAPS   H2R   27   4.348   2.177  10.488  1.8309  1.2629  2.8188
    1SAPS   H2S   28   4.321   2.277  10.333 -1.1749 -0.8835  0.7053
    1SAPS    C3   29   4.750   2.418  10.649  0.2859  0.4681  0.3151
    1SAPS    HX   30   4.734   2.319  10.696 -2.0482  0.3732 -0.5536
    1SAPS    HY   31   4.770   2.511  10.706 -0.0726  0.2875  0.7462
    1SAPS   O31   32   4.837   2.409  10.531  0.2988  0.0877  0.3239
    1SAPS   C31   33   4.947   2.339  10.540 -0.4187  0.0553 -0.1892
    1SAPS   O32   34   4.978   2.283  10.642 -0.4813 -0.3767  0.3449
    1SAPS   C32   35   5.020   2.339  10.401  0.3581  0.4539  0.2356
    1SAPS   H2X   36   4.990   2.248  10.344  1.7599  0.4729 -0.5867
    1SAPS   H2Y   37   5.130   2.328  10.416  0.6465  1.3294 -1.1175
    1SAPS   C23   38   4.496   2.139  10.323 -0.6112  0.1099  0.4516
    1SAPS   H3R   39   4.440   2.051  10.284 -1.4360  0.3279  1.1246
    1SAPS   H3S   40   4.565   2.098  10.400 -1.8499 -3.1009  0.0101
    1SAPS   C24   41   4.572   2.216  10.221 -1.0196  0.3674  0.4885
    1SAPS   H4R   42   4.654   2.147  10.191  2.0638  2.3693  3.5536
    1SAPS   H4S   43   4.624   2.296  10.277  2.6091 -1.6630  0.3386
    1SAPS   C25   44   4.496   2.265  10.104  0.1686 -1.0503 -0.2228
    1SAPS   H5R   45   4.432   2.352  10.125 -0.6279 -1.4171 -1.0383
    1SAPS   C26   46   4.497   2.215   9.973  0.3961  0.6665 -0.2594
    1SAPS   H6R   47   4.436   2.268   9.899 -1.2429  1.5583  1.6311
    1SAPS   C27   48   4.568   2.092   9.927 -0.3729  0.0100 -0.1691
    1SAPS   H7R   49   4.660   2.086   9.988 -1.1718 -0.5827  1.0053
    1SAPS   H7S   50   4.584   2.110   9.818  0.2798  0.8046  0.0540
    1SAPS   C28   51   4.472   1.967   9.942 -1.0631  0.4119  0.5002
    1SAPS   H8R   52   4.450   1.930  10.044  0.3782  1.2168  1.1334
    1SAPS   C29   53   4.424   1.891   9.844  0.3079  0.2691  0.2303
    1SAPS   H9R   54   4.350   1.812   9.864 -0.1198  1.0564  1.8351
    1SAPS  C210   55   4.452   1.912   9.698  0.0424  0.4488  0.4470
    1SAPS  H10R   56   4.431   2.018   9.670  3.3334  0.9117 -0.6663
    1SAPS  H10S   57   4.374   1.859   9.639 -0.3415  1.2633  0.1947
    1SAPS  C211   58   4.589   1.879   9.656  0.4371 -0.1133 -0.2138
    1SAPS  H11R   59   4.651   1.870   9.746 -1.6871  0.9775  1.4482
    1SAPS  C212   60   4.648   1.877   9.536  1.0231  0.4962  0.0681
    1SAPS  H12R   61   4.756   1.854   9.534  1.5673  2.7632 -1.9951
    1SAPS  C213   62   4.601   1.907   9.391  0.1440 -0.4775 -0.3707
    1SAPS  H13R   63   4.493   1.882   9.392 -0.2275  1.0033  0.8489
    1SAPS  H13S   64   4.653   1.834   9.326  1.0709  0.8389 -1.1725
    1SAPS  C214   65   4.622   2.054   9.350  1.1713 -0.2903 -0.1937
    1SAPS  H14R   66   4.619   2.128   9.432  0.0317 -1.8526  1.2332
    1SAPS  C215   67   4.613   2.092   9.226 -0.3695 -0.7475 -0.2411
    1SAPS  H15R   68   4.639   2.196   9.205  2.6850 -1.6300 -1.3716
    1SAPS  C216   69   4.587   2.006   9.104 -0.0586  0.1806  0.1611
    1SAPS  H16R   70   4.491   2.043   9.061 -0.5490 -1.0309  0.1835
    1SAPS  H16S   71   4.575   1.899   9.131 -0.0682  0.4514  1.2594
    1SAPS  C217   72   4.712   2.003   9.009 -0.1213 -0.2096 -0.5371
    1SAPS  H17R   73   4.688   1.934   8.925  0.0128  0.7769 -1.4031
    1SAPS  H17S   74   4.789   1.945   9.064 -1.5589 -2.9614 -1.2496
    1SAPS  C218   75   4.763   2.135   8.964 -0.2224 -0.5725  0.5001
    1SAPS  H18R   76   4.797   2.187   9.056  0.6264 -0.8616  0.3624
    1SAPS  H18S   77   4.683   2.190   8.909 -0.1987 -0.9218  0.1141
    1SAPS  C219   78   4.881   2.136   8.858  0.7632  0.1887 -0.4413
    1SAPS  H19R   79   4.840   2.094   8.764 -1.2613 -0.6547  0.7556
    1SAPS  H19S   80   4.968   2.071   8.884 -0.5519 -1.2050  0.6467
    1SAPS  C220   81   4.925   2.281   8.836 -0.8290 -0.7986 -0.1640
    1SAPS  H20R   82   5.006   2.267   8.761 -1.1754 -3.2160 -0.1744
    1SAPS  H20S   83   4.961   2.325   8.931 -3.5383  0.2172  0.4911
    1SAPS  H20T   84   4.846   2.345   8.791 -1.6577 -1.6703  0.0318
    1SAPS   C33   85   4.992   2.459  10.314  0.1031 -0.3768 -0.3452
    1SAPS   H3X   86   5.020   2.557  10.358  0.6173 -0.5225 -0.3390
    1SAPS   H3Y   87   4.883   2.471  10.296  0.5227  0.5767 -2.6064
    1SAPS   C34   88   5.058   2.462  10.179  0.1578  0.8585  0.7109
    1SAPS   H4X   89   5.163   2.484  10.205  0.3055  0.6840  0.2696
    1SAPS   H4Y   90   5.026   2.549  10.119 -1.4148  0.9787  1.6514
    1SAPS   C35   91   5.031   2.347  10.080  0.7918 -0.0919 -0.6472
    1SAPS   H5X   92   4.921   2.333  10.075  0.7272  0.5958 -1.1702
    1SAPS   H5Y   93   5.068   2.249  10.119 -2.5437 -0.9608  0.6655
    1SAPS   C36   94   5.085   2.386   9.939  0.0334 -0.0008 -0.6832
    1SAPS   H6X   95   5.189   2.417   9.966 -0.4608 -0.8758  2.6720
    1SAPS   H6Y   96   5.040   2.485   9.916  0.9160  0.6798  0.3883
    1SAPS   C37   97   5.064   2.275   9.831 -0.0749 -0.9262 -0.4084
    1SAPS   H7X   98   4.956   2.272   9.806  0.7018  0.2952 -4.6948
    1SAPS   H7Y   99   5.098   2.180   9.876  2.2117 -0.6315 -1.4017
    1SAPS   C38  100   5.134   2.304   9.703  0.5199 -0.0447 -0.5034
    1SAPS   H8X  101   5.245   2.301   9.712  0.4924  2.5161  2.1813
    1SAPS   H8Y  102   5.110   2.410   9.680  1.1936  0.1918 -0.1510
    1SAPS   C39  103   5.078   2.219   9.585  0.4778  0.2155 -0.1658
    1SAPS   H9X  104   4.971   2.248   9.576 -0.0616 -1.2330  1.0695
    1SAPS   H9Y  105   5.089   2.109   9.598 -1.2525  0.0022 -0.3252
    1SAPS  C310  106   5.138   2.249   9.448 -0.6509 -0.4749  0.7175
    1SAPS  H10X  107   5.212   2.168   9.426  0.3668  0.1957  1.5956
    1SAPS  H10Y  108   5.185   2.349   9.448 -1.1771 -0.1024 -2.9322
    1SAPS  C311  109   5.036   2.240   9.335  0.2512 -0.0585 -0.2624
    1SAPS  H11X  110   4.935   2.276   9.365  1.1859  2.7818 -0.1482
    1SAPS  H11Y  111   5.022   2.131   9.321  0.2309 -0.0247 -0.5167
    1SAPS  C312  112   5.095   2.301   9.205  0.6163 -0.1728 -0.0522
    1SAPS  H12X  113   5.036   2.259   9.121  1.3970 -0.3730 -0.5081
    1SAPS  H12Y  114   5.202   2.278   9.189  0.6584  0.7184 -1.1721
    1SAPS  C313  115   5.061   2.450   9.196 -0.3566 -0.5803  0.0019
    1SAPS  H13X  116   5.115   2.503   9.278  0.0431  1.3490 -1.4247
    1SAPS  H13Y  117   4.950   2.462   9.200 -0.2931  0.0967 -0.0190
    1SAPS  C314  118   5.124   2.524   9.073  0.2767  0.7698 -0.0543
    1SAPS  H14X  119   5.073   2.500   8.978 -0.9607  0.2584  0.7069
    1SAPS  H14Y  120   5.230   2.495   9.053  0.4411  1.9804 -1.0739
    1SAPS  C315  121   5.126   2.678   9.095  0.3798  0.6764  0.0626
    1SAPS  H15X  122   5.188   2.729   9.019  0.2508 -0.4733 -0.8508
    1SAPS  H15Y  123   5.165   2.704   9.196 -0.7829 -2.4621  1.4702
    1SAPS  C316  124   4.987   2.739   9.076 -0.1742 -0.2386 -0.3033
    1SAPS  H16X  125   4.989   2.839   9.124  0.3028 -0.1034 -0.5906
    1SAPS  H16Y  126   4.909   2.671   9.115  1.7658 -2.8449 -0.6423
    1SAPS  C317  127   4.966   2.775   8.931 -0.2295 -0.5982  0.0753
    1SAPS  H17X  128   4.996   2.689   8.867  1.1446 -1.6668  2.0719
    1SAPS  H17Y  129   5.041   2.855   8.910 -0.4665  0.1302  1.8420
    1SAPS  C318  130   4.827   2.817   8.902  0.9237  0.6314 -0.6074
    1SAPS  H18X  131   4.803   2.867   8.805 -1.4542  0.4430 -0.1977
    1SAPS  H18Y  132   4.791   2.890   8.977 -1.3051  0.3974 -1.3691
    1SAPS  H18Z  133   4.763   2.726   8.902 -1.0739  1.9548 -0.6036
    2SAPS     N  134   2.476   1.585  10.636  0.1993  0.1948 -0.1293
    2SAPS   HN1  135   2.405   1.514  10.610 -0.1896 -0.0065  1.3935
    2SAPS   HN2  136   2.445   1.684  10.624  1.9695  0.7084 -0.8413
    2SAPS   HN3  137   2.556   1.576  10.571  1.1468 -0.4163  1.0818
    2SAPS   C12  138   2.513   1.566  10.778  0.1077  0.2054  0.3079
    2SAPS  H12A  139   2.456   1.638  10.835 -2.2027 -0.4148 -1.0720
    2SAPS   C13  140   2.501   1.427  10.827  0.1258 -0.9364 -0.2038
    2SAPS  O13A  141   2.462   1.326  10.760  0.0311 -0.0980  0.1616
    2SAPS  O13B  142   2.513   1.414  10.954  0.3591 -0.4610 -0.9746
    2SAPS   C11  143   2.664   1.602  10.790 -0.2539 -0.7124  0.5473
    2SAPS  H11A  144   2.719   1.528  10.729  1.1892  0.8149 -0.0935
    2SAPS  H11B  145   2.701   1.583  10.893  1.9587  0.7118  0.0800
    2SAPS     P  146   2.712   1.859  10.838 -0.4993 -0.2953 -0.2798
    2SAPS   O13  147   2.598   1.855  10.925 -0.0813 -0.1421 -0.2382
    2SAPS   O14  148   2.837   1.847  10.915 -0.4217 -0.4515  0.0073
    2SAPS   O12  149   2.701   1.734  10.742  0.0329 -0.8237  0.0879
    2SAPS   O11  150   2.726   1.984  10.746 -0.0890 -0.2507  0.2873
    2SAPS    C1  151   2.673   1.981  10.612 -0.2650  0.2825 -0.5052
    2SAPS    HA  152   2.589   1.909  10.600  0.4056 -0.7460  0.6926
    2SAPS    HB  153   2.635   2.082  10.586 -0.2068  1.0422  2.0252
    2SAPS    C2  154   2.783   1.930  10.510  0.5939 -0.5837  0.8833
    2SAPS    HS  155   2.819   1.828  10.537  0.1289 -0.3150  2.6075
    2SAPS   O21  156   2.898   2.025  10.526 -0.1611  0.1213  0.6208
    2SAPS   C21  157   3.023   1.977  10.498 -0.3765  1.0211  0.0666
    2SAPS   O22  158   3.051   1.866  10.469  0.1950  0.1749 -0.2844
    2SAPS   C22  159   3.114   2.093  10.499 -0.5889  0.7150  0.4355
    2SAPS   H2R  160   3.068   2.182  10.451 -0.2547 -0.3403 -1.9982
    2SAPS   H2S  161   3.121   2.112  10.608 -1.8349  0.8622  0.5046
    2SAPS    C3  162   2.723   1.922  10.361 -0.2866 -0.4940  0.2914
    2SAPS    HX  163   2.676   2.023  10.351  0.4381 -0.1231  0.5290
    2SAPS    HY  164   2.642   1.846  10.360 -0.4831 -0.2945  0.6581
    2SAPS   O31  165   2.822   1.909  10.253  0.0087 -0.3126 -0.0219
    2SAPS   C31  166   2.865   1.780  10.235 -0.2102  0.3681  0.2434
    2SAPS   O32  167   2.818   1.686  10.295  0.3844 -0.1217  0.3371
    2SAPS   C32  168   2.983   1.775  10.143  0.3872  0.2799  0.0443
    2SAPS   H2X  169   3.076   1.806  10.194 -0.2175  1.1098  0.6748
    2SAPS   H2Y  170   2.965   1.847  10.060  1.0138 -1.6369 -1.8441
    2SAPS   C23  171   3.255   2.048  10.452  0.5317 -0.4912 -0.1645
    2SAPS   H3R  172   3.274   1.946  10.492  2.5038 -0.2085 -0.3044
    2SAPS   H3S  173   3.331   2.106  10.509  0.6372 -2.9041  2.3928
    2SAPS   C24  174   3.288   2.056  10.300  0.7525  0.6433 -0.4735
    2SAPS   H4R  175   3.208   2.002  10.246  0.9835  0.6097 -0.7847
    2SAPS   H4S  176   3.385   2.009  10.273  0.4354 -0.1527 -0.2672
    2SAPS   C25  177   3.281   2.203  10.247 -0.5195  0.0705  0.5732
    2SAPS   H5R  178   3.275   2.289  10.315 -1.5585 -0.7803  1.6117
    2SAPS   C26  179   3.268   2.228  10.113 -0.0050  0.4388 -0.1132
    2SAPS   H6R  180   3.274   2.335  10.092 -0.5694  0.3191 -0.8993
    2SAPS   C27  181   3.257   2.131   9.993  0.4102 -0.3887  0.7613
    2SAPS   H7R  182   3.244   2.027  10.030  0.1020  0.0818  2.0342
    2SAPS   H7S  183   3.348   2.134   9.930 -0.0213  2.6425  0.0966
    2SAPS   C28  184   3.128   2.161   9.909  0.0665  0.3156  0.1319
    2SAPS   H8R  185   3.031   2.155   9.959  1.5954 -0.8914  3.2575
    2SAPS   C29  186   3.130   2.169   9.774 -0.3637 -0.1415  0.2833
    2SAPS   H9R  187   3.034   2.194   9.725  0.7069  0.2610 -1.7023
    2SAPS  C210  188   3.248   2.156   9.683 -0.0156  0.2502 -0.2516
    2SAPS  H10R  189   3.331   2.112   9.743 -0.4782 -2.5650 -1.5557
    2SAPS  H10S  190   3.286   2.253   9.644  0.2809 -0.2888 -1.3226
    2SAPS  C211  191   3.221   2.061   9.573  0.0753 -0.2380  0.3202
    2SAPS  H11R  192   3.206   1.956   9.602  0.4678 -0.5600 -0.6169
    2SAPS  C212  193   3.213   2.086   9.446  0.2334  0.2302 -0.8953
    2SAPS  H12R  194   3.191   2.004   9.375  1.8958  1.9445 -3.5570
    2SAPS  C213  195   3.222   2.220   9.375  0.0630  0.4137 -0.2581
    2SAPS  H13R  196   3.194   2.202   9.269  0.8087  0.9247 -0.5490
    2SAPS  H13S  197   3.324   2.265   9.382  0.0594  0.1923  1.3888
    2SAPS  C214  198   3.118   2.321   9.423  0.5237  0.1942  0.0555
    2SAPS  H14R  199   3.049   2.290   9.502  0.4530  1.4239  0.4955
    2SAPS  C215  200   3.118   2.448   9.374  0.3408  0.0944 -0.1019
    2SAPS  H15R  201   3.036   2.517   9.400  1.1713  0.7391  0.8475
    2SAPS  C216  202   3.217   2.511   9.280 -1.2977  0.4300 -0.4049
    2SAPS  H16R  203   3.313   2.455   9.291 -1.6782 -0.6851 -2.3687
    2SAPS  H16S  204   3.242   2.618   9.294  3.0175 -0.2737 -1.1612
    2SAPS  C217  205   3.179   2.507   9.128 -0.8033 -0.3067  0.0033
    2SAPS  H17R  206   3.188   2.402   9.096 -0.4250  0.3377 -2.1233
    2SAPS  H17S  207   3.264   2.559   9.079  1.7091 -2.6195  1.6050
    2SAPS  C218  208   3.046   2.577   9.099  0.2150  0.0776 -0.3728
    2SAPS  H18R  209   3.058   2.684   9.126 -1.9199  0.2754 -0.0802
    2SAPS  H18S  210   2.963   2.531   9.156 -1.1952  2.2783 -0.5480
    2SAPS  C219  211   3.003   2.562   8.951 -0.2048  0.3665 -0.4066
    2SAPS  H19R  212   2.921   2.636   8.940  0.1639  0.7132 -0.8761
    2SAPS  H19S  213   2.973   2.455   8.948  1.3037 -0.0764 -0.4420
    2SAPS  C220  214   3.114   2.584   8.846 -0.2521  1.4026  0.2754
    2SAPS  H20R  215   3.078   2.576   8.742  1.5384  0.6087 -0.3290
    2SAPS  H20S  216   3.194   2.506   8.841 -1.1668  0.4533  0.1212
    2SAPS  H20T  217   3.180   2.672   8.864 -0.3602  1.8532 -1.4003
    2SAPS   C33  218   2.990   1.631  10.072 -0.7701 -0.0983  0.6941
    2SAPS   H3X  219   2.960   1.550  10.142 -0.2328 -3.1662 -2.3834
    2SAPS   H3Y  220   3.096   1.614  10.045 -0.5772  0.5792  0.9961
    2SAPS   C34  221   2.897   1.632   9.951  0.2272 -0.8488  0.0948
    2SAPS   H4X  222   2.798   1.677   9.975 -0.8572 -1.6521 -2.4746
    2SAPS   H4Y  223   2.877   1.526   9.923 -2.5825 -0.2814 -0.3964
    2SAPS   C35  224   2.953   1.701   9.818  0.5384 -0.3788 -0.5290
    2SAPS   H5X  225   3.037   1.635   9.789  0.2634 -0.7257 -0.5387
    2SAPS   H5Y  226   2.983   1.806   9.839  1.7127 -1.1151  1.9022
    2SAPS   C36  227   2.854   1.695   9.703  0.0265  0.8901  0.5733
    2SAPS   H6X  228   2.748   1.704   9.735 -0.0698 -0.8841  0.8623
    2SAPS   H6Y  229   2.872   1.594   9.661  4.3644  1.4725  0.6077
    2SAPS   C37  230   2.900   1.788   9.587  0.3956  0.8664 -0.4831
    2SAPS   H7X  231   2.983   1.740   9.530 -0.9471 -1.8218 -0.3207
    2SAPS   H7Y  232   2.942   1.880   9.633  1.5161 -0.1481  0.6431
    2SAPS   C38  233   2.785   1.826   9.499 -0.5273  0.3143 -0.2760
    2SAPS   H8X  234   2.693   1.838   9.561 -0.8238 -0.3454 -0.5695
    2SAPS   H8Y  235   2.762   1.739   9.432  1.8130 -1.4078  1.0378
    2SAPS   C39  236   2.826   1.955   9.417  0.0769 -0.1252  0.3895
    2SAPS   H9X  237   2.870   2.028   9.488  1.4593 -0.2211 -0.3404
    2SAPS   H9Y  238   2.738   2.007   9.372  1.3734  1.6398 -0.2437
    2SAPS  C310  239   2.926   1.941   9.307 -0.2346 -0.0390  0.2743
    2SAPS  H10X  240   3.011   1.878   9.343 -0.6134  0.0895  1.4068
    2SAPS  H10Y  241   2.950   2.042   9.269  1.0904 -0.3880  0.1185
    2SAPS  C311  242   2.871   1.868   9.177  1.0956 -1.0338  0.3553
    2SAPS  H11X  243   2.838   1.764   9.200  0.6783 -1.7510 -2.9709
    2SAPS  H11Y  244   2.958   1.851   9.110  0.0009 -0.0067 -1.4264
    2SAPS  C312  245   2.767   1.951   9.098 -0.1930 -0.1530 -0.5312
    2SAPS  H12X  246   2.804   2.048   9.060 -0.5826  0.8739  1.5298
    2SAPS  H12Y  247   2.690   1.979   9.172  1.1630  0.9289  0.5287
    2SAPS  C313  248   2.708   1.881   8.974  0.7914 -0.1010  0.1452
    2SAPS  H13X  249   2.778   1.898   8.889 -0.1013  0.2108 -0.5352
    2SAPS  H13Y  250   2.612   1.933   8.958  1.8445  2.0076  0.2899
    2SAPS  C314  251   2.672   1.731   8.984  0.4634 -0.5280  0.6974
    2SAPS  H14X  252   2.597   1.697   9.058  1.6516 -1.0114  1.7143
    2SAPS  H14Y  253   2.760   1.670   9.014  0.1849  0.5226  3.9868
    2SAPS  C315  254   2.624   1.681   8.841  0.2771  0.2132  0.2470
    2SAPS  H15X  255   2.709   1.654   8.774  1.7250  0.7934  1.7780
    2SAPS  H15Y  256   2.570   1.763   8.788  1.0197  0.7610  0.3198
    2SAPS  C316  257   2.521   1.572   8.863  0.4272  0.5469  0.1761
    2SAPS  H16X  258   2.449   1.619   8.933  0.8265  2.4916 -0.6327
    2SAPS  H16Y  259   2.559   1.489   8.926 -2.6300  0.0484  1.5625
    2SAPS  C317  260   2.452   1.515   8.736  0.0442 -0.3373 -0.1929
    2SAPS  H17X  261   2.404   1.599   8.682  0.6400  0.3789  0.3740
    2SAPS  H17Y  262   2.377   1.439   8.768  0.3669 -0.3604  0.5160
    2SAPS  C318  263   2.543   1.452   8.631 -0.9092 -0.2716  0.2432
    2SAPS  H18X  264   2.488   1.421   8.540  0.4482 -0.9276 -0.3678
    2SAPS  H18Y  265   2.598   1.361   8.661  2.2415  1.8927  1.6691
    2SAPS  H18Z  266   2.618   1.527   8.599 -1.9922  0.8761  0.3070
    3SAPS     N  267   1.916   3.146  10.959 -0.4580 -0.8659  0.5410
    3SAPS   HN1  268   1.963   3.213  10.895  0.7750 -2.0592  0.1611
    3SAPS   HN2  269   1.822   3.126  10.919  0.6339 -4.1802 -0.7417
    3SAPS   HN3  270   1.905   3.184  11.055  0.7858 -1.0461  0.7737
    3SAPS   C12  271   1.995   3.025  10.970 -0.6433  0.8334 -0.2441
    3SAPS  H12A  272   2.059   3.026  10.883 -0.0949 -0.1641  0.1304
    3SAPS   C13  273   2.094   3.009  11.100  1.2767  0.4729  0.2578
    3SAPS  O13A  274   2.102   3.106  11.178 -0.1146  0.4705 -0.4341
    3SAPS  O13B  275   2.174   2.910  11.098 -0.2317 -0.6774 -0.8112
    3SAPS   C11  276   1.896   2.897  10.972 -0.1380 -0.6358  0.4171
    3SAPS  H11A  277   1.859   2.887  11.076  1.1117  2.4368  1.2862
    3SAPS  H11B  278   1.955   2.805  10.954 -0.9441 -1.2523  0.8747
    3SAPS     P  279   1.777   2.820  10.746  0.4371 -0.0674 -0.2348
    3SAPS   O13  280   1.813   2.677  10.780  0.6866  0.1787  0.4455
    3SAPS   O14  281   1.647   2.850  10.683 -0.2799 -0.4006 -0.2339
    3SAPS   O12  282   1.782   2.906  10.886 -0.5750 -0.1720 -0.6596
    3SAPS   O11  283   1.891   2.882  10.660 -0.6036 -0.4659 -0.2179
    3SAPS    C1  284   1.863   2.993  10.575 -0.2257  0.7068 -0.7622
    3SAPS    HA  285   1.796   3.068  10.622  1.3577  0.0307  2.9532
    3SAPS    HB  286   1.952   3.054  10.548  0.7631 -0.2279  0.2478
    3SAPS    C2  287   1.817   2.944  10.435  0.0376 -0.6677  0.1895
    3SAPS    HS  288   1.721   2.893  10.454 -0.8509  0.5308 -0.9023
    3SAPS   O21  289   1.922   2.866  10.375  0.3804 -0.4040 -0.0029
    3SAPS   C21  290   1.891   2.737  10.360 -0.6475  0.0534 -0.3629
    3SAPS   O22  291   1.788   2.681  10.393 -0.4169 -0.2860 -0.1779
    3SAPS   C22  292   2.001   2.670  10.272  0.3117 -0.5291  0.3216
    3SAPS   H2R  293   2.090   2.662  10.338 -1.3391  0.6496  2.8389
    3SAPS   H2S  294   1.953   2.571  10.252  0.5902 -0.7318  0.6385
    3SAPS    C3  295   1.786   3.075  10.353  0.2062  0.1398 -0.0289
    3SAPS    HX  296   1.879   3.137  10.356  0.3163 -0.0755  1.3084
    3SAPS    HY  297   1.710   3.130  10.412  0.4825 -0.7015  1.1394
    3SAPS   O31  298   1.752   3.065  10.216  0.3503  0.1597 -0.2619
    3SAPS   C31  299   1.628   3.020  10.195  0.2556 -0.3539  0.4411
    3SAPS   O32  300   1.555   2.970  10.281 -0.2231  0.2877 -0.4535
    3SAPS   C32  301   1.604   3.025  10.044  0.4630  0.8836 -0.2111
    3SAPS   H2X  302   1.682   2.970   9.986 -1.4635  0.3692 -2.4854
    3SAPS   H2Y  303   1.616   3.131  10.011 -1.5771  1.2515  0.1204
    3SAPS   C23  304   2.023   2.735  10.127  0.9031  0.2335  0.2596
    3SAPS   H3R  305   2.076   2.655  10.072  2.8320  0.2415  1.9893
    3SAPS   H3S  306   2.089   2.824  10.134 -0.7476  1.4206  1.8054
    3SAPS   C24  307   1.897   2.773  10.052  0.8636 -0.9114  0.2322
    3SAPS   H4R  308   1.924   2.831   9.961 -2.2442  1.0364  0.4143
    3SAPS   H4S  309   1.835   2.842  10.113 -0.5407 -1.2089 -0.8112
    3SAPS   C25  310   1.811   2.656  10.016 -0.1163 -0.9170 -0.0423
    3SAPS   H5R  311   1.794   2.582  10.095  0.7807 -1.2901 -0.1860
    3SAPS   C26  312   1.743   2.629   9.896  0.0152 -0.4097  0.2132
    3SAPS   H6R  313   1.716   2.524   9.875 -0.9937  0.2738 -2.2226
    3SAPS   C27  314   1.740   2.722   9.776  0.2337  0.1160 -0.5414
    3SAPS   H7R  315   1.753   2.826   9.811  0.4947 -0.4421  1.0946
    3SAPS   H7S  316   1.641   2.706   9.728  0.9053 -1.2331 -1.5652
    3SAPS   C28  317   1.849   2.686   9.677 -0.5781 -0.3157 -0.1008
    3SAPS   H8R  318   1.948   2.687   9.726 -0.2994  0.7282 -0.6730
    3SAPS   C29  319   1.845   2.670   9.541 -0.3011 -0.0688  0.5233
    3SAPS   H9R  320   1.943   2.663   9.491 -0.5375  0.2948  0.0124
    3SAPS  C210  321   1.719   2.668   9.458 -0.1522  0.0700  0.2699
    3SAPS  H10R  322   1.629   2.700   9.515 -1.0611 -2.6156  0.4951
    3SAPS  H10S  323   1.704   2.562   9.427 -1.8499  0.4483 -0.2886
    3SAPS  C211  324   1.740   2.756   9.333 -0.2327  0.4019  0.0035
    3SAPS  H11R  325   1.821   2.829   9.342  0.7928 -0.6463 -0.4632
    3SAPS  C212  326   1.668   2.749   9.218  0.0454  0.5600 -0.3297
    3SAPS  H12R  327   1.691   2.824   9.140 -1.6068  1.0997 -0.3361
    3SAPS  C213  328   1.551   2.668   9.179  0.7689  0.6675  0.4663
    3SAPS  H13R  329   1.459   2.730   9.172 -1.3543 -2.3967 -2.2791
    3SAPS  H13S  330   1.535   2.593   9.260 -0.3310  0.6889  0.2937
    3SAPS  C214  331   1.570   2.595   9.045 -0.2900 -0.0513  0.0845
    3SAPS  H14R  332   1.637   2.510   9.067 -1.9665 -1.7773 -1.0988
    3SAPS  C215  333   1.518   2.613   8.923 -0.6365  0.2288  0.6192
    3SAPS  H15R  334   1.549   2.540   8.846 -1.7505  0.8262 -0.4350
    3SAPS  C216  335   1.416   2.709   8.879  0.3225 -0.4749 -0.4283
    3SAPS  H16R  336   1.394   2.792   8.948  0.2649 -1.7714  1.1668
    3SAPS  H16S  337   1.326   2.652   8.847 -0.0334 -0.0930 -0.1165
    3SAPS  C217  338   1.450   2.771   8.742 -0.4660 -0.0531  0.4844
    3SAPS  H17R  339   1.378   2.850   8.712  1.2992  1.6171  0.3894
    3SAPS  H17S  340   1.446   2.689   8.667  0.6830  1.2465 -1.0772
    3SAPS  C218  341   1.585   2.835   8.743  1.0164  0.1591 -0.4490
    3SAPS  H18R  342   1.655   2.750   8.761 -0.9789 -1.9543 -2.1409
    3SAPS  H18S  343   1.593   2.916   8.819  1.6948  0.5040 -0.8751
    3SAPS  C219  344   1.618   2.885   8.601  0.4334  0.1102 -1.1133
    3SAPS  H19R  345   1.541   2.954   8.559 -0.8731  0.5230  1.7527
    3SAPS  H19S  346   1.629   2.798   8.533 -0.5612  0.9583 -2.4134
    3SAPS  C220  347   1.755   2.956   8.588  0.3850  0.5736 -0.1906
    3SAPS  H20R  348   1.745   3.049   8.647 -2.3070  0.2024  0.0508
    3SAPS  H20S  349   1.775   2.987   8.483  1.9988  0.8148  0.1687
    3SAPS  H20T  350   1.830   2.886   8.629  1.7302  1.0824 -1.6717
    3SAPS   C33  351   1.463   2.967  10.006 -0.3970 -0.0670 -0.4027
    3SAPS   H3X  352   1.392   3.018  10.076 -0.0240 -0.7809  0.5156
    3SAPS   H3Y  353   1.447   2.866  10.049 -3.4510  0.3650 -0.2543
    3SAPS   C34  354   1.437   2.988   9.850 -0.5663 -0.2040  0.1551
    3SAPS   H4X  355   1.539   2.978   9.808 -0.6675 -0.4697 -0.0367
    3SAPS   H4Y  356   1.418   3.096   9.834 -1.2864 -0.2818  0.4513
    3SAPS   C35  357   1.344   2.894   9.784 -0.3329  0.1550 -0.1534
    3SAPS   H5X  358   1.241   2.927   9.811  0.2068  1.2606  0.6256
    3SAPS   H5Y  359   1.357   2.791   9.823  1.7441 -0.2289 -1.6916
    3SAPS   C36  360   1.356   2.886   9.634 -0.2521 -0.3305  0.4177
    3SAPS   H6X  361   1.286   2.814   9.587  1.2058 -0.7497 -1.2162
    3SAPS   H6Y  362   1.456   2.844   9.609 -0.5098 -0.0138 -1.2548
    3SAPS   C37  363   1.365   3.011   9.548  0.4444  0.2539 -0.2681
    3SAPS   H7X  364   1.442   3.076   9.595  0.0527 -0.3931  1.3556
    3SAPS   H7Y  365   1.269   3.063   9.570  1.0212  0.6044  1.6064
    3SAPS   C38  366   1.388   2.992   9.402 -0.9177  0.6100  0.4263
    3SAPS   H8X  367   1.319   2.918   9.357  0.6239  0.3086 -1.5722
    3SAPS   H8Y  368   1.485   2.938   9.397 -1.7261 -0.9536  0.9729
    3SAPS   C39  369   1.384   3.119   9.312  0.0300 -0.0207  0.3384
    3SAPS   H9X  370   1.465   3.190   9.338 -0.7365  0.5949  1.0562
    3SAPS   H9Y  371   1.286   3.169   9.322 -0.8387 -1.3881 -0.8260
    3SAPS  C310  372   1.408   3.084   9.168 -0.1349 -0.0384  0.3055
    3SAPS  H10X  373   1.341   3.003   9.132 -1.7769  0.8259  1.3352
    3SAPS  H10Y  374   1.510   3.040   9.162 -0.6873 -1.3453  0.1655
    3SAPS  C311  375   1.405   3.201   9.072  0.6428 -0.3308 -0.8152
    3SAPS  H11X  376   1.471   3.288   9.092 -0.1326 -0.0214  0.4919
    3SAPS  H11Y  377   1.299   3.234   9.075  0.8368  0.2133  0.7492
    3SAPS  C312  378   1.429   3.156   8.926  0.3271  0.4237 -0.2507
    3SAPS  H12X  379   1.371   3.062   8.910  0.6371 -0.0216  1.0981
    3SAPS  H12Y  380   1.535   3.126   8.918 -0.2664 -1.7615 -0.5826
    3SAPS  C313  381   1.422   3.254   8.815 -0.2450 -0.2754 -0.0843
    3SAPS  H13X  382   1.494   3.337   8.836  1.8769 -2.0822  0.1733
    3SAPS  H13Y  383   1.320   3.297   8.822 -1.0879 -2.2510  0.3884
    3SAPS  C314  384   1.450   3.208   8.671  0.0247  0.0226  0.1095
    3SAPS  H14X  385   1.395   3.116   8.644  1.1756 -1.2430  1.8469
    3SAPS  H14Y  386   1.560   3.193   8.660 -0.2783 -2.2047 -0.2706
    3SAPS  C315  387   1.415   3.316   8.568 -0.3366  0.2177 -0.2316
    3SAPS  H15X  388   1.454   3.416   8.598  1.3211 -0.4817  0.0472
    3SAPS  H15Y  389   1.305   3.327   8.562 -0.4085 -0.2642  0.1781
    3SAPS  C316  390   1.470   3.291   8.426 -0.2848 -0.3679 -0.8988
    3SAPS  H16X  391   1.481   3.182   8.407  0.0147 -0.2909 -1.1550
    3SAPS  H16Y  392   1.573   3.330   8.422 -0.8453  1.3760  0.5360
    3SAPS  C317  393   1.383   3.368   8.325  0.2858 -0.0531 -0.4402
    3SAPS  H17X  394   1.391   3.476   8.349 -0.3987  0.2379 -1.4454
    3SAPS  H17Y  395   1.279   3.333   8.339 -0.4457  1.5091 -1.6270
    3SAPS  C318  396   1.407   3.349   8.173  0.1873 -0.0851  0.3839
    3SAPS  H18X  397   1.310   3.357   8.119  1.3497 -0.2709 -1.8280
    3SAPS  H18Y  398   1.451   3.252   8.139  2.0025  1.1021 -0.8323
    3SAPS  H18Z  399   1.488   3.416   8.138  1.4151 -1.1764  1.0219
    4SAPS     N  400   4.495   4.669  10.790 -0.3280  0.3986 -0.1193
    4SAPS   HN1  401   4.412   4.707  10.740  0.2804 -0.2108 -1.6525
    4SAPS   HN2  402   4.570   4.694  10.723  0.1855  0.6593  0.5422
    4SAPS   HN3  403   4.475   4.567  10.795  1.0856  0.1380  0.7490
    4SAPS   C12  404   4.523   4.724  10.921 -0.3279 -0.4161 -0.0232
    4SAPS  H12A  405   4.434   4.732  10.980  1.3636  0.1303  2.6403
    4SAPS   C13  406   4.616   4.634  11.012 -0.6382  0.6639 -0.7409
    4SAPS  O13A  407   4.652   4.517  10.980  0.0267 -0.3122 -0.2713
    4SAPS  O13B  408   4.637   4.675  11.129  0.7099 -0.7312  0.0745
    4SAPS   C11  409   4.578   4.868  10.897  0.1048  0.2184  0.0229
    4SAPS  H11A  410   4.593   4.923  10.992  0.3151  1.3442 -0.6437
    4SAPS  H11B  411   4.501   4.917  10.834  1.5872  0.2413 -1.8701
    4SAPS     P  412   4.775   5.002  10.784 -0.0837  0.0792 -0.6364
    4SAPS   O13  413   4.822   5.083  10.894 -0.1519  0.1497  0.8275
    4SAPS   O14  414   4.865   4.962  10.679  0.0542 -0.1692  0.7234
    4SAPS   O12  415   4.702   4.869  10.821 -0.2175 -0.0370 -0.4468
    4SAPS   O11  416   4.658   5.085  10.725 -0.3383  0.3571  0.3772
    4SAPS    C1  417   4.596   5.060  10.600 -0.1184 -0.3158  0.5694
    4SAPS    HA  418   4.630   4.968  10.548 -1.2412 -0.5283  0.1629
    4SAPS    HB  419   4.486   5.050  10.613 -0.4065 -0.1630 -1.4277
    4SAPS    C2  420   4.605   5.184  10.511  0.0222  0.0462  0.2153
    4SAPS    HS  421   4.552   5.272  10.553  1.1329  0.9351 -0.1937
    4SAPS   O21  422   4.553   5.151  10.379  0.6274  0.0810 -0.3111
    4SAPS   C21  423   4.426   5.147  10.374 -0.0088 -0.6194 -0.4135
    4SAPS   O22  424   4.350   5.178  10.470  0.5442  0.2242  0.0433
    4SAPS   C22  425   4.375   5.109  10.235 -0.6862 -0.7408  0.0353
    4SAPS   H2R  426   4.341   5.004  10.254  0.0171 -1.1082 -0.6704
    4SAPS   H2S  427   4.291   5.177  10.211  1.1197  1.0685 -1.5097
    4SAPS    C3  428   4.757   5.228  10.486 -0.1767  0.3960  0.2332
    4SAPS    HX  429   4.819   5.144  10.523 -0.7994 -1.2892 -2.2594
    4SAPS    HY  430   4.770   5.316  10.553 -0.9640 -0.2430  1.2555
    4SAPS   O31  431   4.792   5.264  10.348  0.3261 -0.0636 -0.4683
    4SAPS   C31  432   4.825   5.162  10.277 -0.2388  0.5857  0.3612
    4SAPS   O32  433   4.853   5.048  10.322  0.2139  0.5123  0.0061
    4SAPS   C32  434   4.820   5.211  10.126 -0.4563 -0.1470  0.6144
    4SAPS   H2X  435   4.901   5.284  10.105 -0.6591  0.0963  0.6809
    4SAPS   H2Y  436   4.729   5.272  10.107  0.7964  2.5636  2.5857
    4SAPS   C23  437   4.479   5.112  10.118 -0.5780  0.1251 -0.3828
    4SAPS   H3R  438   4.566   5.048  10.144 -0.1672  0.0712 -1.7984
    4SAPS   H3S  439   4.505   5.219  10.102 -0.6838  0.3957  1.1114
    4SAPS   C24  440   4.431   5.047   9.989 -0.2123  0.3510 -0.5310
    4SAPS   H4R  441   4.514   5.040   9.916  0.6459  2.3725  0.1919
    4SAPS   H4S  442   4.357   5.112   9.936  0.1903 -0.3627 -2.0334
    4SAPS   C25  443   4.362   4.911  10.016  0.2087  0.3135 -0.0637
    4SAPS   H5R  444   4.431   4.831  10.046 -1.1346  0.6703  4.8246
    4SAPS   C26  445   4.234   4.883   9.998  0.3824  1.0321  0.2650
    4SAPS   H6R  446   4.198   4.784  10.030  0.4193  0.1659 -2.1884
    4SAPS   C27  447   4.122   4.986   9.960 -0.5875  0.5839  0.4036
    4SAPS   H7R  448   4.065   4.949   9.873  2.9853 -0.7388 -1.5820
    4SAPS   H7S  449   4.166   5.083   9.927 -1.8927  1.6743  1.7112
    4SAPS   C28  450   4.034   5.009  10.078  0.4313 -0.5686 -0.3775
    4SAPS   H8R  451   4.090   5.011  10.173  0.3776  0.7873 -0.3516
    4SAPS   C29  452   3.906   5.059  10.075  0.3064 -0.2494  0.0084
    4SAPS   H9R  453   3.868   5.097  10.171 -2.9594 -0.1240 -1.2133
    4SAPS  C210  454   3.812   5.083   9.963 -0.3215 -0.4291 -0.5035
    4SAPS  H10R  455   3.855   5.155   9.890 -0.0055 -0.7391 -0.6274
    4SAPS  H10S  456   3.736   5.145  10.015  0.3642 -0.6404  0.7845
    4SAPS  C211  457   3.752   4.963   9.903 -0.0741  0.7504 -0.0986
    4SAPS  H11R  458   3.773   4.866   9.951  0.2923  1.1054  0.4555
    4SAPS  C212  459   3.689   4.964   9.787  0.0684 -0.3794  0.1189
    4SAPS  H12R  460   3.637   4.872   9.754  1.0939 -1.5311  1.5839
    4SAPS  C213  461   3.672   5.087   9.704  0.0887 -0.6904 -0.3659
    4SAPS  H13R  462   3.655   5.171   9.775  0.6038 -0.0764 -0.9700
    4SAPS  H13S  463   3.572   5.084   9.656 -0.4961  2.0198  0.4854
    4SAPS  C214  464   3.787   5.134   9.613 -0.3433 -0.4297 -0.2033
    4SAPS  H14R  465   3.882   5.152   9.665  0.2507 -0.6982 -1.1781
    4SAPS  C215  466   3.772   5.158   9.488  0.2189  1.0374  0.1947
    4SAPS  H15R  467   3.865   5.194   9.441 -0.6971  1.7880 -1.1056
    4SAPS  C216  468   3.636   5.137   9.412  0.1749 -0.1889  0.7665
    4SAPS  H16R  469   3.572   5.227   9.414 -0.2090 -0.3462 -1.6756
    4SAPS  H16S  470   3.568   5.063   9.460  0.6667 -0.1260  1.5731
    4SAPS  C217  471   3.663   5.119   9.266 -0.1831  0.4800 -0.7640
    4SAPS  H17R  472   3.572   5.079   9.216 -1.6854  0.7772  1.5820
    4SAPS  H17S  473   3.733   5.035   9.247 -0.4211 -0.1171  0.8600
    4SAPS  C218  474   3.709   5.243   9.192  0.3620 -0.1711  0.6845
    4SAPS  H18R  475   3.804   5.281   9.234 -0.2072  0.1543  1.7157
    4SAPS  H18S  476   3.624   5.314   9.204  0.1447 -0.5136  1.1773
    4SAPS  C219  477   3.725   5.222   9.034  0.2788 -0.2420 -0.3304
    4SAPS  H19R  478   3.783   5.128   9.017  1.7425  0.7661 -1.1544
    4SAPS  H19S  479   3.783   5.309   8.998  1.1256 -0.8320 -0.4173
    4SAPS  C220  480   3.588   5.214   8.965 -0.3470 -0.0515  0.8989
    4SAPS  H20R  481   3.524   5.292   9.011 -0.5710 -0.6577  1.6475
    4SAPS  H20S  482   3.542   5.114   8.983  0.6562 -0.8743 -0.8188
    4SAPS  H20T  483   3.597   5.228   8.855 -1.8533  3.0087  1.0694
    4SAPS   C33  484   4.838   5.085  10.037  0.4448 -0.3917  0.4935
    4SAPS   H3X  485   4.779   4.996  10.069  0.2386  0.4491  2.5959
    4SAPS   H3Y  486   4.941   5.046  10.048  0.1959 -1.7776 -1.4920
    4SAPS   C34  487   4.815   5.118   9.885 -1.4649  0.4306 -0.2707
    4SAPS   H4X  488   4.908   5.170   9.853 -1.6605  1.0144  0.0998
    4SAPS   H4Y  489   4.725   5.183   9.886 -3.1526 -1.7876  1.4882
    4SAPS   C35  490   4.788   4.994   9.797  0.3314  0.3480 -0.5690
    4SAPS   H5X  491   4.696   4.943   9.833  1.9772 -1.0704  1.8882
    4SAPS   H5Y  492   4.865   4.915   9.807 -1.6798 -1.4641  1.6056
    4SAPS   C36  493   4.761   5.019   9.644  0.1727  0.2837 -0.3511
    4SAPS   H6X  494   4.749   4.914   9.609 -0.6391 -0.0655  0.9283
    4SAPS   H6Y  495   4.849   5.068   9.596 -0.1714 -0.7687 -2.1644
    4SAPS   C37  496   4.635   5.093   9.611  0.0942 -0.5599 -0.6556
    4SAPS   H7X  497   4.633   5.182   9.678  1.9804 -1.1947  0.3183
    4SAPS   H7Y  498   4.544   5.043   9.650  0.2348 -1.1210 -1.0366
    4SAPS   C38  499   4.634   5.135   9.462 -0.0678 -0.3128 -0.9292
    4SAPS   H8X  500   4.728   5.179   9.421  0.4637 -0.3434  0.2152
    4SAPS   H8Y  501   4.553   5.209   9.449  0.1751 -0.3009 -2.5550
    4SAPS   C39  502   4.596   5.014   9.370  0.1607 -0.3210 -0.2826
    4SAPS   H9X  503   4.520   4.955   9.426  1.1203 -1.4344 -0.1222
    4SAPS   H9Y  504   4.683   4.946   9.361 -1.1078 -2.0501 -0.1110
    4SAPS  C310  505   4.559   5.072   9.236  0.2709 -0.1698 -0.2872
    4SAPS  H10X  506   4.648   5.120   9.191  0.5367 -1.5468 -1.2974
    4SAPS  H10Y  507   4.471   5.139   9.249 -1.3515 -1.8569 -1.7987
    4SAPS  C311  508   4.505   4.963   9.143 -0.1208 -0.6389  0.7950
    4SAPS  H11X  509   4.406   4.931   9.181 -0.7075 -2.6564 -2.0982
    4SAPS  H11Y  510   4.578   4.879   9.151  0.2229 -0.4352 -0.0246
    4SAPS  C312  511   4.488   5.014   9.001 -0.4193 -0.2238  0.3206
    4SAPS  H12X  512   4.590   5.028   8.959 -0.5920 -0.3672 -0.1500
    4SAPS  H12Y  513   4.438   5.114   8.992  0.6561  0.4979  1.8677
    4SAPS  C313  514   4.410   4.909   8.919 -0.6843  0.3803 -0.3004
    4SAPS  H13X  515   4.310   4.909   8.969 -0.5449 -2.2420  0.1609
    4SAPS  H13Y  516   4.451   4.806   8.933 -0.4101  0.2519 -1.8969
    4SAPS  C314  517   4.395   4.927   8.776 -0.6231 -0.3339  0.1033
    4SAPS  H14X  518   4.479   4.879   8.722 -0.1664 -0.3762  0.8406
    4SAPS  H14Y  519   4.406   5.034   8.749  2.3943 -0.9045 -1.3836
    4SAPS  C315  520   4.263   4.868   8.723  0.3462  0.0599  0.1553
    4SAPS  H15X  521   4.233   4.785   8.791  0.1771  1.7049  2.1790
    4SAPS  H15Y  522   4.266   4.843   8.615 -0.0138  2.8310 -0.5835
    4SAPS  C316  523   4.157   4.980   8.732  0.0921  0.2817 -0.7582
    4SAPS  H16X  524   4.192   5.059   8.663  2.2204 -0.8344 -1.0234
    4SAPS  H16Y  525   4.157   5.012   8.839  3.5175 -0.5351 -0.4134
    4SAPS  C317  526   4.007   4.935   8.697  0.2503 -0.5184  0.3278
    4SAPS  H17X  527   3.980   4.853   8.767  0.2778 -0.2836  0.6159
    4SAPS  H17Y  528   4.022   4.883   8.600  0.5739  0.3659 -0.1047
    4SAPS  C318  529   3.911   5.049   8.711  0.2595 -0.1596 -0.3987
    4SAPS  H18X  530   3.932   5.129   8.637 -1.0747  0.4167 -0.1722
    4SAPS  H18Y  531   3.913   5.094   8.812 -2.0699 -0.2093 -0.2767
    4SAPS  H18Z  532   3.807   5.014   8.696  0.5959 -0.9001 -1.1218
    5SAPS     N  533   5.940   4.960  11.197 -0.0591 -0.0917 -0.7097
    5SAPS   HN1  534   6.044   4.952  11.199 -0.1658 -1.7618 -0.4850
    5SAPS   HN2  535   5.900   4.906  11.276  1.6491 -1.3975 -0.6575
    5SAPS   HN3  536   5.903   4.904  11.118  0.6843 -2.3637  0.4462
    5SAPS   C12  537   5.901   5.102  11.211  0.1931  0.7901  0.7065
    5SAPS  H12A  538   5.795   5.107  11.191  0.0929 -0.7210  0.7765
    5SAPS   C13  539   5.929   5.190  11.335  1.1151  0.2062 -0.1479
    5SAPS  O13A  540   6.009   5.153  11.427  0.1304 -0.2064  0.3668
    5SAPS  O13B  541   5.874   5.304  11.345  0.0635 -0.5385 -0.1729
    5SAPS   C11  542   5.968   5.181  11.096 -0.0615 -0.5924  0.7791
    5SAPS  H11A  543   6.077   5.163  11.099 -0.4421 -3.3344  0.5435
    5SAPS  H11B  544   5.947   5.289  11.110  0.2488 -0.6598  1.8637
    5SAPS     P  545   5.876   5.232  10.858  0.6949 -0.0598  0.0566
    5SAPS   O13  546   5.796   5.151  10.763 -0.1325 -0.1475  0.2633
    5SAPS   O14  547   5.798   5.352  10.902 -0.4240  0.2669 -0.4707
    5SAPS   O12  548   5.917   5.126  10.966 -0.2958 -0.2859 -0.1744
    5SAPS   O11  549   6.019   5.277  10.797  0.0588  0.7199 -0.0879
    5SAPS    C1  550   6.122   5.180  10.780 -0.7486 -0.0902  0.2333
    5SAPS    HA  551   6.169   5.153  10.877  1.7508  1.1443 -0.5442
    5SAPS    HB  552   6.085   5.085  10.736 -0.6333 -0.4781  0.9542
    5SAPS    C2  553   6.242   5.228  10.696 -0.0116  0.1104  0.3511
    5SAPS    HS  554   6.272   5.330  10.726  0.1775  0.2135 -0.1779
    5SAPS   O21  555   6.198   5.219  10.559  0.1633  0.5337  0.0047
    5SAPS   C21  556   6.256   5.302  10.471 -0.1376 -0.3262 -0.4691
    5SAPS   O22  557   6.331   5.392  10.501  0.1799  0.0700 -0.3435
    5SAPS   C22  558   6.183   5.283  10.334 -0.7813  0.6235  0.7540
    5SAPS   H2R  559   6.246   5.207  10.285 -1.8657  0.3543 -0.2567
    5SAPS   H2S  560   6.076   5.254  10.349 -0.8479 -0.1255 -1.0221
    5SAPS    C3  561   6.373   5.146  10.705 -0.2171 -0.0856  0.0178
    5SAPS    HX  562   6.397   5.121  10.810  0.1555  2.8892  0.7186
    5SAPS    HY  563   6.464   5.201  10.675  0.3844 -2.0730 -2.1182
    5SAPS   O31  564   6.357   5.018  10.632 -0.1004  0.6640 -0.1237
    5SAPS   C31  565   6.419   5.013  10.518  0.3711  0.1093  0.0652
    5SAPS   O32  566   6.495   5.097  10.469  0.0092 -0.1397  1.0687
    5SAPS   C32  567   6.402   4.874  10.459  0.0412  0.2277  0.6339
    5SAPS   H2X  568   6.297   4.863  10.425  0.3522 -1.5540  0.1632
    5SAPS   H2Y  569   6.420   4.800  10.540 -2.1185 -2.1317 -0.9069
    5SAPS   C23  570   6.189   5.417  10.264 -0.3448 -0.1219 -0.4853
    5SAPS   H3R  571   6.296   5.444  10.246  0.5187 -3.0395 -0.2587
    5SAPS   H3S  572   6.152   5.495  10.333 -2.0868 -1.2123 -0.1383
    5SAPS   C24  573   6.113   5.417  10.127  0.5121  0.8028 -0.5347
    5SAPS   H4R  574   6.143   5.330  10.065 -0.4350  1.5373 -2.0815
    5SAPS   H4S  575   6.143   5.505  10.066 -0.2390  0.4738 -1.4054
    5SAPS   C25  576   5.970   5.428  10.168  0.5704 -0.4045  1.0023
    5SAPS   H5R  577   5.962   5.485  10.262  2.3936  1.9697 -0.1629
    5SAPS   C26  578   5.867   5.362  10.106  0.7551  0.1903  0.8671
    5SAPS   H6R  579   5.763   5.380  10.138  0.8568  0.1199  1.2426
    5SAPS   C27  580   5.881   5.266   9.988 -0.0173  0.1979  0.4445
    5SAPS   H7R  581   5.838   5.164  10.005  2.3824 -1.0905 -0.6353
    5SAPS   H7S  582   5.987   5.242   9.964 -0.4018 -0.0929 -1.0998
    5SAPS   C28  583   5.818   5.321   9.862 -0.1162  0.4450  0.1878
    5SAPS   H8R  584   5.710   5.305   9.873 -0.2098  1.0810  0.2070
    5SAPS   C29  585   5.866   5.349   9.739 -0.6391  0.2912 -0.5401
    5SAPS   H9R  586   5.803   5.415   9.677 -2.1765 -0.5354  0.0916
    5SAPS  C210  587   6.003   5.342   9.683 -0.9283  0.7530  0.2316
    5SAPS  H10R  588   5.985   5.287   9.589  1.0313  0.6096 -0.1107
    5SAPS  H10S  589   6.068   5.279   9.748 -1.1600  0.9996  0.7072
    5SAPS  C211  590   6.075   5.475   9.658  0.1614  0.0318  0.4295
    5SAPS  H11R  591   6.103   5.523   9.753 -3.2467  1.5506  0.8264
    5SAPS  C212  592   6.100   5.535   9.543 -0.2448 -1.0098 -0.1203
    5SAPS  H12R  593   6.160   5.628   9.544  0.5876 -1.5354 -0.0321
    5SAPS  C213  594   6.070   5.488   9.410 -0.9697 -0.1864  0.0740
    5SAPS  H13R  595   5.971   5.522   9.372 -1.3678 -2.3313 -0.9719
    5SAPS  H13S  596   6.063   5.377   9.411 -1.6241 -0.1608  1.4786
    5SAPS  C214  597   6.165   5.548   9.310  0.2807  0.0879 -0.3254
    5SAPS  H14R  598   6.205   5.647   9.336  0.5527 -0.2920  0.7905
    5SAPS  C215  599   6.189   5.493   9.188 -0.1628  0.0017  0.5953
    5SAPS  H15R  600   6.271   5.537   9.130  0.0464 -0.3028  0.6628
    5SAPS  C216  601   6.132   5.356   9.141  0.1889 -0.6484 -0.9579
    5SAPS  H16R  602   6.024   5.343   9.167  0.5426 -1.2850  0.2706
    5SAPS  H16S  603   6.185   5.284   9.206  2.3532  2.7288  1.3610
    5SAPS  C217  604   6.142   5.352   8.989  0.7888 -0.3786  0.0819
    5SAPS  H17R  605   6.237   5.395   8.951  0.7016  0.2328  0.5501
    5SAPS  H17S  606   6.053   5.406   8.951  2.1066  0.5706 -1.8048
    5SAPS  C218  607   6.121   5.209   8.934 -0.3789 -0.4723  0.0214
    5SAPS  H18R  608   6.201   5.143   8.973  1.4553  1.6726  0.1351
    5SAPS  H18S  609   6.025   5.178   8.980  0.2406  1.6250  3.0829
    5SAPS  C219  610   6.112   5.202   8.777 -0.2796  0.2190  0.5771
    5SAPS  H19R  611   6.022   5.259   8.743  0.1259  1.1667  1.0581
    5SAPS  H19S  612   6.115   5.094   8.748 -1.1016 -0.4267  2.6918
    5SAPS  C220  613   6.236   5.256   8.702  0.1989 -0.1328 -0.2058
    5SAPS  H20R  614   6.325   5.195   8.727  1.1391  1.2922  0.0350
    5SAPS  H20S  615   6.256   5.360   8.736 -0.4511 -0.6370  1.8693
    5SAPS  H20T  616   6.211   5.244   8.595 -0.5942 -0.2901 -0.0117
    5SAPS   C33  617   6.492   4.849  10.343 -0.8064  1.0115 -0.7073
    5SAPS   H3X  618   6.591   4.837  10.392 -0.8570 -1.8494 -1.1266
    5SAPS   H3Y  619   6.496   4.924  10.261 -0.2715  0.0739 -1.5758
    5SAPS   C34  620   6.469   4.709  10.294 -0.1412 -0.2450 -0.4863
    5SAPS   H4X  621   6.359   4.695  10.289 -0.0796 -1.3742  1.0095
    5SAPS   H4Y  622   6.497   4.632  10.369 -0.7531 -1.2507 -1.2658
    5SAPS   C35  623   6.535   4.678  10.158 -0.5120  0.0767  0.5256
    5SAPS   H5X  624   6.478   4.737  10.083  0.9146  0.3047 -0.4292
    5SAPS   H5Y  625   6.521   4.569  10.137 -3.4128  0.0921  1.9826
    5SAPS   C36  626   6.681   4.735  10.145 -0.2094  0.3624  0.6064
    5SAPS   H6X  627   6.746   4.691  10.224 -0.3632 -0.4184  0.3111
    5SAPS   H6Y  628   6.682   4.844  10.166 -1.7866  0.2857  1.2447
    5SAPS   C37  629   6.738   4.715  10.003 -0.7468 -0.3724 -0.1873
    5SAPS   H7X  630   6.835   4.769  10.002 -0.1420 -1.4462 -0.4394
    5SAPS   H7Y  631   6.671   4.749   9.920 -0.7751 -0.2570 -0.1173
    5SAPS   C38  632   6.777   4.562   9.986  0.0187 -0.0662  0.4165
    5SAPS   H8X  633   6.690   4.493   9.987 -0.0278 -0.0308 -0.4848
    5SAPS   H8Y  634   6.828   4.523  10.077 -0.2692  0.2920  0.7388
    5SAPS   C39  635   6.867   4.546   9.860 -0.1237  0.0832  0.8200
    5SAPS   H9X  636   6.878   4.438   9.839  0.1427  0.5697 -1.9777
    5SAPS   H9Y  637   6.969   4.585   9.882  0.5766 -1.4976  0.4885
    5SAPS  C310  638   6.803   4.611   9.735 -0.6646 -0.2537 -0.0039
    5SAPS  H10X  639   6.818   4.721   9.736  0.7650 -0.4169 -0.5851
    5SAPS  H10Y  640   6.694   4.594   9.725 -0.5019 -0.3738 -1.8493
    5SAPS  C311  641   6.868   4.554   9.614 -0.3010  0.5512  0.4192
    5SAPS  H11X  642   6.883   4.445   9.601 -0.6768  0.6160 -0.6602
    5SAPS  H11Y  643   6.972   4.594   9.608  0.8145 -2.3557 -2.4787
    5SAPS  C312  644   6.804   4.598   9.481  0.2412  0.2970 -0.7092
    5SAPS  H12X  645   6.793   4.708   9.491 -2.1219  0.0035  0.7686
    5SAPS  H12Y  646   6.706   4.546   9.473 -0.2166  1.0617 -0.1823
    5SAPS  C313  647   6.885   4.569   9.357 -0.0014 -0.9027 -0.0397
    5SAPS  H13X  648   6.894   4.459   9.353  0.8998 -0.8440  0.1813
    5SAPS  H13Y  649   6.990   4.598   9.379 -0.0255 -1.5795  0.9967
    5SAPS  C314  650   6.837   4.642   9.236  0.5509 -0.2705 -0.2966
    5SAPS  H14X  651   6.811   4.746   9.266  0.1927 -0.9483  1.8877
    5SAPS  H14Y  652   6.742   4.592   9.207  0.7181  0.6840 -2.7007
    5SAPS  C315  653   6.934   4.649   9.116  0.1269  0.3813  0.2323
    5SAPS  H15X  654   6.968   4.545   9.094  1.2344  0.4802  1.3635
    5SAPS  H15Y  655   7.025   4.704   9.147  0.9036 -0.0493 -1.1717
    5SAPS  C316  656   6.875   4.713   8.991  0.1296 -0.3790  0.0844
    5SAPS  H16X  657   6.825   4.807   9.025 -1.6355 -1.4264  0.5166
    5SAPS  H16Y  658   6.789   4.648   8.964  0.3651 -0.4150 -0.5744
    5SAPS  C317  659   6.979   4.738   8.876 -0.6061  0.2489 -0.8262
    5SAPS  H17X  660   7.019   4.643   8.835 -2.3295 -1.3173  0.9242
    5SAPS  H17Y  661   7.060   4.797   8.924 -2.1429  0.4081  1.7896
    5SAPS  C318  662   6.916   4.815   8.757 -0.0654 -0.4218 -0.3774
    5SAPS  H18X  663   6.874   4.913   8.790 -0.3728 -0.6559 -0.0718
    5SAPS  H18Y  664   6.838   4.759   8.702  0.4559  0.9722 -2.6858
    5SAPS  H18Z  665   6.986   4.837   8.674 -2.0680 -1.3163 -2.3969
    6SAPS     N  666   4.479   1.893  10.871  0.0890  0.1520 -0.2886
    6SAPS   HN1  667   4.554   1.828  10.900  0.3660  0.5732 -0.0430
    6SAPS   HN2  668   4.506   1.934  10.780  3.0898 -2.8904 -0.9662
    6SAPS   HN3  669   4.460   1.965  10.944  0.5954 -1.3976  1.4364
    6SAPS   C12  670   4.345   1.830  10.846  0.6111 -0.5963  0.1906
    6SAPS  H12A  671   4.343   1.796  10.743 -0.7159  1.9681 -0.7237
    6SAPS   C13  672   4.316   1.712  10.936 -0.0198  0.6025  0.5485
    6SAPS  O13A  673   4.393   1.680  11.026 -0.3074  0.1683  0.4148
    6SAPS  O13B  674   4.211   1.642  10.914  0.4624  0.1153 -0.2793
    6SAPS   C11  675   4.242   1.945  10.861  0.1521 -0.1989  0.7913
    6SAPS  H11A  676   4.255   2.002  10.955 -1.9714  0.0768  0.9711
    6SAPS  H11B  677   4.146   1.890  10.859 -1.0016  1.7193 -0.9167
    6SAPS     P  678   4.132   2.121  10.692 -0.4210  0.2709  0.3346
    6SAPS   O13  679   4.041   2.148  10.803  0.2660 -0.1532  0.2825
    6SAPS   O14  680   4.171   2.234  10.608 -0.4625  0.4336 -0.5258
    6SAPS   O12  681   4.254   2.041  10.753 -0.0296  0.5244 -0.3583
    6SAPS   O11  682   4.062   2.006  10.609 -0.1744  0.0428  0.0500
    6SAPS    C1  683   4.128   1.900  10.548  0.0467  0.3968 -0.0098
    6SAPS    HA  684   4.239   1.901  10.546  0.1981 -1.6813  2.4620
    6SAPS    HB  685   4.110   1.808  10.607 -0.6159 -0.1234 -0.9843
    6SAPS    C2  686   4.085   1.863  10.407 -0.1665  0.7190 -0.5005
    6SAPS    HS  687   3.976   1.843  10.415 -0.3123  1.3041 -0.9947
    6SAPS   O21  688   4.165   1.753  10.366  0.5651  0.7706  0.0430
    6SAPS   C21  689   4.115   1.628  10.391 -0.0684  0.2104 -0.3549
    6SAPS   O22  690   4.031   1.604  10.479  0.3982  0.6815  0.7511
    6SAPS   C22  691   4.196   1.520  10.312 -0.3347 -0.0151 -0.5185
    6SAPS   H2R  692   4.181   1.555  10.207 -2.7787  1.5365  0.2775
    6SAPS   H2S  693   4.306   1.528  10.329 -0.0278 -1.0721 -1.7960
    6SAPS    C3  694   4.104   1.986  10.310  0.1612  0.4506  0.4781
    6SAPS    HX  695   4.207   2.024  10.324 -0.1710  2.7261 -2.2704
    6SAPS    HY  696   4.027   2.064  10.334  1.4565  2.1191 -0.5849
    6SAPS   O31  697   4.103   1.961  10.163  0.0592 -0.5856 -0.5443
    6SAPS   C31  698   4.003   1.892  10.111 -0.0396  0.0943 -0.1820
    6SAPS   O32  699   3.894   1.878  10.160  0.3205  0.7564  0.7986
    6SAPS   C32  700   4.052   1.845   9.975  0.2776  0.4307  0.3366
    6SAPS   H2X  701   4.107   1.751  10.000  1.9502  1.5050  0.8914
    6SAPS   H2Y  702   4.136   1.911   9.943  0.9563 -0.1544  0.8637
    6SAPS   C23  703   4.166   1.366  10.341 -0.1220  0.1651  0.2098
    6SAPS   H3R  704   4.115   1.359  10.439  2.2157 -1.9871  1.3946
    6SAPS   H3S  705   4.263   1.315  10.361  0.5721  1.8589  1.3101
    6SAPS   C24  706   4.082   1.294  10.223  0.9418 -0.6117  0.5174
    6SAPS   H4R  707   4.063   1.196  10.270 -0.0400  0.4764  2.4999
    6SAPS   H4S  708   4.143   1.275  10.132  0.0766 -0.3547 -0.1270
    6SAPS   C25  709   3.945   1.354  10.196 -0.0381 -0.3273 -0.1528
    6SAPS   H5R  710   3.890   1.380  10.287  0.4798  1.2448 -0.2571
    6SAPS   C26  711   3.891   1.381  10.070 -0.0356 -0.0501 -0.0059
    6SAPS   H6R  712   3.782   1.398  10.068 -0.2833 -1.4769  0.3880
    6SAPS   C27  713   3.959   1.354   9.940  0.8918  0.3211  0.0983
    6SAPS   H7R  714   4.065   1.387   9.944  0.7860  0.5929  1.0926
    6SAPS   H7S  715   3.905   1.403   9.857 -0.8140 -3.0709 -0.9727
    6SAPS   C28  716   3.970   1.204   9.910  0.1887 -1.0483 -0.7023
    6SAPS   H8R  717   3.936   1.131   9.985  1.8063 -1.4211 -0.2909
    6SAPS   C29  718   4.013   1.157   9.795 -0.7466  0.1253 -0.0581
    6SAPS   H9R  719   4.040   1.050   9.785  1.1388  0.5552 -0.0146
    6SAPS  C210  720   4.061   1.243   9.679  0.0377 -0.3658  0.2615
    6SAPS  H10R  721   4.148   1.204   9.622 -1.1995  0.3092 -2.2059
    6SAPS  H10S  722   4.080   1.347   9.712  2.5539 -0.4334 -0.7329
    6SAPS  C211  723   3.943   1.253   9.584 -0.0112  0.0992 -1.0074
    6SAPS  H11R  724   3.839   1.259   9.621 -0.7212  1.8424 -3.0652
    6SAPS  C212  725   3.953   1.241   9.451 -0.1570  0.6280  0.7072
    6SAPS  H12R  726   3.855   1.236   9.402 -0.2838  0.4483  0.9776
    6SAPS  C213  727   4.081   1.224   9.376  0.0351 -1.1703 -0.4621
    6SAPS  H13R  728   4.174   1.251   9.431 -0.3990  1.8734 -1.0152
    6SAPS  H13S  729   4.081   1.303   9.298  0.7461 -0.4312  0.2658
    6SAPS  C214  730   4.109   1.089   9.313 -0.1251 -0.0929  0.8064
    6SAPS  H14R  731   4.050   1.010   9.363  0.4072  0.0316  1.6415
    6SAPS  C215  732   4.198   1.054   9.215  0.3830  0.0914  0.1108
    6SAPS  H15R  733   4.182   0.953   9.177  0.5771 -0.0994  0.5266
    6SAPS  C216  734   4.295   1.149   9.148 -0.2316  0.1497 -0.4617
    6SAPS  H16R  735   4.395   1.103   9.163  0.7264  2.6098  1.4166
    6SAPS  H16S  736   4.310   1.245   9.202 -0.0931  0.5662 -1.2326
    6SAPS  C217  737   4.262   1.170   9.001 -0.0838 -0.0489 -0.0433
    6SAPS  H17R  738   4.168   1.226   8.985 -0.2047 -0.4499 -0.8211
    6SAPS  H17S  739   4.252   1.068   8.958  1.1273 -0.5217  0.7479
    6SAPS  C218  740   4.380   1.227   8.914  0.1993  0.8197 -0.6988
    6SAPS  H18R  741   4.429   1.302   8.979 -1.0371  0.3807  0.8110
    6SAPS  H18S  742   4.328   1.285   8.835 -0.6345  0.6809 -0.2714
    6SAPS  C219  743   4.481   1.120   8.867 -0.3347  0.8770 -0.2624
    6SAPS  H19R  744   4.432   1.026   8.834  0.6148 -0.5729  2.1322
    6SAPS  H19S  745   4.539   1.090   8.957 -1.4483  1.0919  0.5505
    6SAPS  C220  746   4.582   1.171   8.766  0.0580  0.2563 -0.4699
    6SAPS  H20R  747   4.526   1.212   8.679 -2.2961  1.6541  1.5614
    6SAPS  H20S  748   4.633   1.087   8.716 -0.9254 -1.4440  1.2607
    6SAPS  H20T  749   4.642   1.258   8.801  1.1014  0.6013 -2.9025
    6SAPS   C33  750   3.932   1.834   9.876 -0.4282  0.4403 -0.4142
    6SAPS   H3X  751   3.872   1.926   9.856  0.7069  0.7541 -2.6802
    6SAPS   H3Y  752   3.864   1.765   9.930  0.1804 -0.6900 -1.0525
    6SAPS   C34  753   3.986   1.776   9.747  0.0110  0.3703  0.3573
    6SAPS   H4X  754   4.058   1.696   9.776 -0.3851  0.2509  1.0278
    6SAPS   H4Y  755   4.038   1.859   9.695 -1.4102  0.2088 -1.4229
    6SAPS   C35  756   3.887   1.699   9.656 -0.7128 -0.2220  0.6131
    6SAPS   H5X  757   3.786   1.744   9.655 -1.1461 -1.1474  0.9803
    6SAPS   H5Y  758   3.875   1.592   9.682 -1.6632 -0.9973 -2.5640
    6SAPS   C36  759   3.947   1.687   9.511 -0.7246 -0.2199 -0.5611
    6SAPS   H6X  760   4.040   1.627   9.513 -0.8789 -0.4856  1.8558
    6SAPS   H6Y  761   3.969   1.793   9.490 -1.2761 -0.1250 -0.6900
    6SAPS   C37  762   3.851   1.633   9.408 -0.2702  0.4180 -0.0372
    6SAPS   H7X  763   3.757   1.694   9.404 -1.0294 -0.7318 -0.2939
    6SAPS   H7Y  764   3.817   1.539   9.456  0.1069  0.2228 -0.1545
    6SAPS   C38  765   3.918   1.611   9.270  0.2809  0.0092  0.7485
    6SAPS   H8X  766   3.990   1.527   9.275 -0.8191 -1.1976 -1.9967
    6SAPS   H8Y  767   3.964   1.707   9.240 -1.4281  0.7663  0.4118
    6SAPS   C39  768   3.808   1.575   9.162  0.0023  0.3246 -0.1793
    6SAPS   H9X  769   3.725   1.648   9.164  0.9925  1.4694  0.0580
    6SAPS   H9Y  770   3.771   1.471   9.177  2.2826 -0.6051 -0.4266
    6SAPS  C310  771   3.870   1.578   9.016 -0.2994  0.3981  0.4286
    6SAPS  H10X  772   3.961   1.513   9.020  0.1177  1.0222  2.5907
    6SAPS  H10Y  773   3.914   1.679   9.007 -0.3977  0.3062 -1.2869
    6SAPS  C311  774   3.778   1.545   8.897 -0.3918  0.4548  0.8255
    6SAPS  H11X  775   3.706   1.629   8.902 -2.0224 -0.9162  1.1529
    6SAPS  H11Y  776   3.715   1.454   8.907 -0.5248  0.2809 -1.3249
    6SAPS  C312  777   3.857   1.541   8.770  1.4404 -0.0131  0.3179
    6SAPS  H12X  778   3.918   1.635   8.767 -1.1646  1.7547 -1.5929
    6SAPS  H12Y  779   3.789   1.537   8.682  1.2047 -0.0947  0.5048
    6SAPS  C313  780   3.955   1.424   8.759  0.1468 -0.2620 -0.4824
    6SAPS  H13X  781   4.042   1.437   8.827  0.1990  0.1100 -0.6163
    6SAPS  H13Y  782   3.995   1.424   8.655 -1.5097  1.7629 -1.1988
    6SAPS  C314  783   3.888   1.285   8.769 -0.4198 -0.2725  0.0679
    6SAPS  H14X  784   3.787   1.292   8.723 -0.6887 -1.8629  0.3594
    6SAPS  H14Y  785   3.865   1.269   8.877  0.7876  2.1853  0.7480
    6SAPS  C315  786   3.976   1.180   8.699  1.0390  0.1733  0.1545
    6SAPS  H15X  787   3.952   1.086   8.753  0.0347  0.6880  0.6317
    6SAPS  H15Y  788   4.086   1.189   8.702  1.2748 -1.7669 -0.8373
    6SAPS  C316  789   3.927   1.155   8.554 -0.8008  0.3628  0.2514
    6SAPS  H16X  790   3.965   1.234   8.486  0.9277  0.0517  0.8172
    6SAPS  H16Y  791   3.816   1.164   8.556 -0.7570  0.8129  1.1599
    6SAPS  C317  792   3.970   1.021   8.488 -0.4644 -0.9407 -1.0105
    6SAPS  H17X  793   3.906   1.000   8.400 -1.3629 -0.3970 -0.5017
    6SAPS  H17Y  794   3.947   0.932   8.551  0.7231  1.0203  2.5182
    6SAPS  C318  795   4.115   1.018   8.443 -0.0429 -0.0639 -0.3130
    6SAPS  H18X  796   4.178   1.019   8.534 -0.3841  2.2393 -0.0308
    6SAPS  H18Y  797   4.135   1.108   8.380  1.2957 -2.1947 -3.1682
    6SAPS  H18Z  798   4.132   0.931   8.377 -1.2530  1.4278 -2.7367
    7SAPS     N  799   1.236   3.644  10.467  0.5806  0.1915 -0.3889
    7SAPS   HN1  800   1.326   3.591  10.464  1.4937  1.6795 -0.5973
    7SAPS   HN2  801   1.156   3.601  10.416  1.0975 -0.2950 -0.7957
    7SAPS   HN3  802   1.259   3.731  10.414  1.6461  0.1536 -0.0208
    7SAPS   C12  803   1.194   3.666  10.606 -0.4034  0.2635 -0.0898
    7SAPS  H12A  804   1.151   3.765  10.607  0.8941  0.9666 -2.8163
    7SAPS   C13  805   1.108   3.565  10.670  0.7242 -0.0831 -0.1974
    7SAPS  O13A  806   1.063   3.577  10.788  0.0419 -0.2493  0.6825
    7SAPS  O13B  807   1.062   3.467  10.602  0.4243  0.2562  0.1927
    7SAPS   C11  808   1.326   3.673  10.688 -0.0741  0.1518 -0.7925
    7SAPS  H11A  809   1.383   3.580  10.672 -1.0839 -1.1013  2.1894
    7SAPS  H11B  810   1.304   3.669  10.797 -1.4025  1.6293 -0.9681
    7SAPS     P  811   1.359   3.929  10.753  0.5441  0.1240 -0.4172
    7SAPS   O13  812   1.210   3.932  10.758 -0.2604  0.0659 -0.3904
    7SAPS   O14  813   1.427   3.921  10.885 -0.1681 -0.0801 -0.0377
    7SAPS   O12  814   1.404   3.795  10.669  0.1235 -0.8182 -0.2060
    7SAPS   O11  815   1.413   4.048  10.670 -0.0855  0.6351 -0.6994
    7SAPS    C1  816   1.344   4.105  10.559 -0.2034 -0.2145 -0.6026
    7SAPS    HA  817   1.233   4.105  10.574 -0.0316 -2.4802  1.1121
    7SAPS    HB  818   1.366   4.214  10.553 -1.7573  0.0661 -2.4068
    7SAPS    C2  819   1.371   4.047  10.421  0.4060  0.0837  0.6194
    7SAPS    HS  820   1.287   3.976  10.412  0.4077  0.1063  0.4158
    7SAPS   O21  821   1.503   3.983  10.406 -0.1897  0.0453  0.1978
    7SAPS   C21  822   1.513   3.865  10.356 -0.8387  0.7537 -0.1186
    7SAPS   O22  823   1.418   3.793  10.323 -0.4644 -0.5399 -0.3681
    7SAPS   C22  824   1.656   3.822  10.368 -0.5163  0.6942 -0.9271
    7SAPS   H2R  825   1.715   3.913  10.342 -0.1147  0.7095  0.0119
    7SAPS   H2S  826   1.684   3.804  10.474 -0.7638  2.7352 -0.4690
    7SAPS    C3  827   1.347   4.140  10.302 -0.0878 -0.1490 -0.1044
    7SAPS    HX  828   1.391   4.095  10.210 -0.7175 -2.0564  0.4746
    7SAPS    HY  829   1.395   4.236  10.330  0.5974  0.1443 -2.0914
    7SAPS   O31  830   1.202   4.158  10.296 -0.1568  0.0781  0.3361
    7SAPS   C31  831   1.165   4.259  10.216  0.0744 -0.0773  0.1223
    7SAPS   O32  832   1.241   4.338  10.166  0.0229 -0.2264  0.2630
    7SAPS   C32  833   1.016   4.254  10.197 -0.2241  0.2676  0.1055
    7SAPS   H2X  834   0.963   4.295  10.286  0.2182  2.0135 -0.3950
    7SAPS   H2Y  835   0.982   4.149  10.184  0.8872 -0.5031  2.7844
    7SAPS   C23  836   1.694   3.699  10.287 -0.3239 -0.5250  0.1252
    7SAPS   H3R  837   1.619   3.619  10.306  0.5126 -1.7433 -1.4390
    7SAPS   H3S  838   1.793   3.664  10.323 -0.4070  1.1612  2.1402
    7SAPS   C24  839   1.703   3.707  10.130 -0.7206  0.6953 -0.2503
    7SAPS   H4R  840   1.607   3.728  10.079 -0.2687  0.6940 -1.1298
    7SAPS   H4S  841   1.737   3.609  10.089  2.6073  0.9128  1.5964
    7SAPS   C25  842   1.804   3.808  10.080 -0.2865 -0.0636  1.2838
    7SAPS   H5R  843   1.839   3.883  10.153  0.9502  2.2287 -1.4728
    7SAPS   C26  844   1.858   3.815   9.956  0.8227 -0.4334 -0.5966
    7SAPS   H6R  845   1.927   3.899   9.942 -0.7094  1.3582  1.8116
    7SAPS   C27  846   1.822   3.727   9.842  0.2505 -0.5337 -0.1094
    7SAPS   H7R  847   1.741   3.654   9.863 -0.6185 -0.6702 -3.3001
    7SAPS   H7S  848   1.920   3.685   9.812  1.3744  0.6840  1.7098
    7SAPS   C28  849   1.761   3.795   9.721 -1.0365  0.5372 -0.0341
    7SAPS   H8R  850   1.676   3.859   9.746 -1.1789  0.1490  0.4822
    7SAPS   C29  851   1.803   3.771   9.591 -0.5028 -0.0305 -0.0559
    7SAPS   H9R  852   1.751   3.816   9.505 -0.3465 -2.2795 -1.4119
    7SAPS  C210  853   1.905   3.674   9.541 -0.8097 -0.7975 -0.0794
    7SAPS  H10R  854   1.877   3.631   9.443  1.0293 -0.2347 -0.8945
    7SAPS  H10S  855   1.909   3.579   9.599  5.4461 -0.1421  1.3247
    7SAPS  C211  856   2.055   3.710   9.547  0.2959  0.0465 -0.1198
    7SAPS  H11R  857   2.080   3.791   9.617  2.0280 -0.0848 -0.5343
    7SAPS  C212  858   2.148   3.635   9.482  0.3168  0.1757 -0.0679
    7SAPS  H12R  859   2.250   3.676   9.473  0.3277 -0.2121 -2.4566
    7SAPS  C213  860   2.106   3.518   9.387 -0.8114  0.2874  0.2470
    7SAPS  H13R  861   2.062   3.551   9.290  2.2576  3.2763 -0.3130
    7SAPS  H13S  862   2.026   3.459   9.436 -0.7581 -1.3571 -1.4961
    7SAPS  C214  863   2.211   3.415   9.383  0.0446  0.2600  0.3839
    7SAPS  H14R  864   2.237   3.373   9.481  0.2406  1.9797  1.1133
    7SAPS  C215  865   2.271   3.380   9.266  0.5061  0.3448  0.2348
    7SAPS  H15R  866   2.344   3.298   9.274 -0.9080 -1.2492 -2.1346
    7SAPS  C216  867   2.236   3.434   9.131  0.3736  0.3692  0.8792
    7SAPS  H16R  868   2.125   3.441   9.132  0.3591  0.2876  2.2417
    7SAPS  H16S  869   2.273   3.372   9.047 -0.0126  2.0970 -0.6271
    7SAPS  C217  870   2.304   3.575   9.111  0.8791  0.9131 -0.0534
    7SAPS  H17R  871   2.412   3.560   9.133  0.8508 -0.4503 -0.7154
    7SAPS  H17S  872   2.257   3.640   9.188  0.3028 -1.5793  1.8363
    7SAPS  C218  873   2.284   3.640   8.980 -0.5052 -0.4451  0.3841
    7SAPS  H18R  874   2.306   3.562   8.903  1.5636 -0.6533  1.1389
    7SAPS  H18S  875   2.356   3.723   8.968 -0.1194 -0.6665  1.1037
    7SAPS  C219  876   2.137   3.704   8.967 -0.4193 -1.0645  0.3405
    7SAPS  H19R  877   2.066   3.618   8.966 -1.1775 -0.4569  0.7908
    7SAPS  H19S  878   2.134   3.748   8.865 -1.3014 -0.6498  0.5330
    7SAPS  C220  879   2.076   3.812   9.059 -0.3089  0.0265  0.0149
    7SAPS  H20R  880   2.150   3.891   9.087  0.4842 -0.8073  0.3182
    7SAPS  H20S  881   2.043   3.764   9.154  1.0699 -0.3915  0.3096
    7SAPS  H20T  882   1.990   3.864   9.012 -0.4250 -0.8188 -0.7320
    7SAPS   C33  883   0.969   4.355  10.087 -0.0361  0.8788  1.2550
    7SAPS   H3X  884   1.018   4.453  10.103  0.4872  0.6718  0.9360
    7SAPS   H3Y  885   0.858   4.363  10.081 -0.2204 -1.4222  0.3516
    7SAPS   C34  886   1.010   4.307   9.946  0.5903  0.4746 -0.2207
    7SAPS   H4X  887   0.943   4.222   9.921  0.5799  0.6005 -0.6201
    7SAPS   H4Y  888   1.116   4.273   9.934  0.2701 -0.3719 -0.8131
    7SAPS   C35  889   0.995   4.420   9.842  0.3599  0.8389 -0.1168
    7SAPS   H5X  890   1.076   4.491   9.866  0.3992  0.9235 -0.4879
    7SAPS   H5Y  891   0.900   4.474   9.862  0.7556  1.2716  0.6235
    7SAPS   C36  892   0.997   4.370   9.702  0.5547  0.2709  0.8225
    7SAPS   H6X  893   0.975   4.453   9.631 -0.7144 -0.4600  0.3293
    7SAPS   H6Y  894   0.909   4.304   9.689  0.4920  0.8001 -2.0387
    7SAPS   C37  895   1.137   4.296   9.664  0.4699 -0.1978  0.2071
    7SAPS   H7X  896   1.139   4.202   9.723 -1.8071 -0.3792  0.0964
    7SAPS   H7Y  897   1.228   4.357   9.687  0.2688  0.8426 -1.5180
    7SAPS   C38  898   1.149   4.278   9.509 -1.1169 -0.3692 -1.3224
    7SAPS   H8X  899   1.251   4.250   9.475 -0.5974 -0.5941  0.3050
    7SAPS   H8Y  900   1.144   4.383   9.475 -0.2715  0.9308  2.1467
    7SAPS   C39  901   1.043   4.182   9.456  0.0033  0.2275 -0.1962
    7SAPS   H9X  902   0.948   4.239   9.463  0.1697  0.3368  2.6104
    7SAPS   H9Y  903   1.035   4.096   9.526  1.9363  0.6487  0.6050
    7SAPS  C310  904   1.073   4.129   9.311  0.1660 -0.1228 -0.6994
    7SAPS  H10X  905   1.003   4.043   9.304  1.1060 -1.0468  0.6953
    7SAPS  H10Y  906   1.178   4.093   9.304  0.2065  0.1039 -1.3087
    7SAPS  C311  907   1.059   4.238   9.206 -0.2853  0.2951 -0.2655
    7SAPS  H11X  908   1.079   4.191   9.107 -0.6883 -0.3424 -0.0533
    7SAPS  H11Y  909   1.122   4.327   9.226  0.4335 -0.5811  1.7022
    7SAPS  C312  910   0.912   4.289   9.197  0.1395  0.0164  0.1126
    7SAPS  H12X  911   0.885   4.326   9.298  0.5759 -0.8998  0.5819
    7SAPS  H12Y  912   0.857   4.193   9.182  0.1624 -0.2040  1.3722
    7SAPS  C313  913   0.876   4.393   9.100 -0.1892  0.3414 -0.7708
    7SAPS  H13X  914   0.869   4.347   8.999 -2.4874 -0.8607 -0.1337
    7SAPS  H13Y  915   0.955   4.469   9.082  1.5654 -0.8409  1.4322
    7SAPS  C314  916   0.747   4.468   9.140  0.6826  0.1453  1.2594
    7SAPS  H14X  917   0.750   4.538   9.227 -1.8761  2.4640 -0.3259
    7SAPS  H14Y  918   0.671   4.391   9.163  1.6468 -0.7203  1.6394
    7SAPS  C315  919   0.684   4.546   9.020  0.3304  0.1171 -0.3818
    7SAPS  H15X  920   0.751   4.629   8.989  0.0479  0.9253  1.0873
    7SAPS  H15Y  921   0.594   4.590   9.068 -0.6533 -1.8572 -0.3168
    7SAPS  C316  922   0.634   4.469   8.895  0.0837 -0.1377 -0.1936
    7SAPS  H16X  923   0.549   4.409   8.935 -2.0081  2.8777  0.2168
    7SAPS  H16Y  924   0.716   4.405   8.856  1.2425  1.5415 -0.6209
    7SAPS  C317  925   0.575   4.558   8.787 -0.6159 -0.1104 -0.2817
    7SAPS  H17X  926   0.654   4.630   8.754 -0.0392  0.2273  1.6904
    7SAPS  H17Y  927   0.505   4.633   8.829  2.2908  2.8240 -0.2368
    7SAPS  C318  928   0.506   4.489   8.670 -0.0564 -0.6289  0.2946
    7SAPS  H18X  929   0.429   4.415   8.700 -1.2248  0.1321 -0.7486
    7SAPS  H18Y  930   0.585   4.429   8.620  0.3321  0.9780 -1.1154
    7SAPS  H18Z  931   0.462   4.560   8.597  1.8699 -0.7646 -1.0732
    8SAPS     N  932   4.651   3.277  10.902 -0.7583  0.4400 -0.4059
    8SAPS   HN1  933   4.606   3.361  10.943 -0.7909 -0.2945  1.1411
    8SAPS   HN2  934   4.723   3.288  10.828 -1.9588 -1.6945 -2.0126
    8SAPS   HN3  935   4.571   3.225  10.861 -1.0552 -0.0978  0.7959
    8SAPS   C12  936   4.725   3.202  11.015 -0.2339 -0.3088  0.2095
    8SAPS  H12A  937   4.798   3.267  11.062  1.0646 -0.7632 -1.1419
    8SAPS   C13  938   4.636   3.160  11.136  0.5210  0.1153  0.5705
    8SAPS  O13A  939   4.514   3.202  11.142 -0.4667  0.4506 -0.3987
    8SAPS  O13B  940   4.692   3.122  11.244 -0.5665 -0.0657 -0.8223
    8SAPS   C11  941   4.795   3.083  10.959  0.1437  0.9422  0.4190
    8SAPS  H11A  942   4.858   3.046  11.044 -0.2130  0.8149  0.6329
    8SAPS  H11B  943   4.876   3.104  10.887 -0.3645 -2.3124 -1.3199
    8SAPS     P  944   4.718   2.841  10.901 -0.0582 -0.2325  0.0893
    8SAPS   O13  945   4.855   2.811  10.937 -0.5607  0.4220 -0.0798
    8SAPS   O14  946   4.616   2.765  10.983 -0.1741 -0.2379 -0.0553
    8SAPS   O12  947   4.694   2.993  10.909 -0.4342 -0.0823 -0.2560
    8SAPS   O11  948   4.698   2.810  10.745 -0.2319  0.1820 -0.1255
    8SAPS    C1  949   4.596   2.867  10.671  0.6169 -1.1541  0.3322
    8SAPS    HA  950   4.537   2.779  10.637 -0.2871 -0.3560 -0.2360
    8SAPS    HB  951   4.537   2.946  10.723  1.4308 -0.1642 -0.2128
    8SAPS    C2  952   4.646   2.938  10.542 -0.6451 -0.0377 -0.4777
    8SAPS    HS  953   4.559   2.994  10.503 -2.3436 -2.2104 -0.0094
    8SAPS   O21  954   4.704   2.832  10.461  0.7824 -0.4698 -0.2249
    8SAPS   C21  955   4.618   2.791  10.369  0.0214  0.0902 -0.1855
    8SAPS   O22  956   4.502   2.824  10.360 -0.1519  0.1657 -0.1448
    8SAPS   C22  957   4.696   2.707  10.261  0.2343  0.5155 -0.0959
    8SAPS   H2R  958   4.801   2.692  10.295  0.4268  0.2123 -0.8001
    8SAPS   H2S  959   4.663   2.601  10.256  1.3415  0.1892 -0.8387
    8SAPS    C3  960   4.758   3.044  10.575  0.1580 -0.3034  1.0927
    8SAPS    HX  961   4.845   2.999  10.627  2.3327 -0.3675 -2.3381
    8SAPS    HY  962   4.707   3.120  10.639 -0.4841 -1.5288  2.0869
    8SAPS   O31  963   4.796   3.118  10.454 -0.3996  0.0155  0.0948
    8SAPS   C31  964   4.914   3.076  10.396 -0.0410  0.2504  0.6573
    8SAPS   O32  965   4.976   2.982  10.444  0.1651 -0.1550  0.2345
    8SAPS   C32  966   4.957   3.164  10.276  0.3490  0.1822 -0.1458
    8SAPS   H2X  967   5.067   3.147  10.270  0.1552 -0.9266 -0.8506
    8SAPS   H2Y  968   4.935   3.268  10.306  1.3956  0.1696  0.7147
    8SAPS   C23  969   4.682   2.755  10.115  0.3693 -0.0895 -0.4262
    8SAPS   H3R  970   4.717   2.860  10.104 -0.8308  0.5858  1.5845
    8SAPS   H3S  971   4.579   2.744  10.077  0.9204 -0.3874 -1.8924
    8SAPS   C24  972   4.764   2.660  10.018 -0.4330  0.1772  0.4067
    8SAPS   H4R  973   4.712   2.562  10.027  1.6199 -0.8335  2.7747
    8SAPS   H4S  974   4.867   2.643  10.056 -1.2791 -0.5239  2.5307
    8SAPS   C25  975   4.767   2.724   9.884  0.3591  0.0061  0.3197
    8SAPS   H5R  976   4.761   2.834   9.887 -2.0940 -0.0151 -1.0656
    8SAPS   C26  977   4.786   2.670   9.762  0.5553  0.3947 -0.2306
    8SAPS   H6R  978   4.801   2.724   9.667  0.0323 -2.5122 -2.1118
    8SAPS   C27  979   4.814   2.522   9.745  0.1355 -0.2407 -0.7424
    8SAPS   H7R  980   4.838   2.465   9.837  0.3638 -1.5141 -1.5595
    8SAPS   H7S  981   4.891   2.526   9.665 -0.0630  1.0976 -0.8912
    8SAPS   C28  982   4.688   2.458   9.687 -0.2569  0.6943 -0.6101
    8SAPS   H8R  983   4.614   2.430   9.763  0.1994 -2.0760 -1.0774
    8SAPS   C29  984   4.659   2.435   9.555 -0.5178  0.6706 -0.0679
    8SAPS   H9R  985   4.568   2.376   9.539  0.9759 -2.1262  0.9306
    8SAPS  C210  986   4.740   2.463   9.430  0.3701 -0.1048  0.5517
    8SAPS  H10R  987   4.731   2.380   9.356  1.1993  1.1235 -1.0086
    8SAPS  H10S  988   4.848   2.468   9.453  0.7012 -0.7361 -0.7687
    8SAPS  C211  989   4.696   2.603   9.390 -0.1291 -0.3631  0.2643
    8SAPS  H11R  990   4.696   2.686   9.462 -1.5973 -1.2468  1.3380
    8SAPS  C212  991   4.648   2.637   9.270  0.2286  0.0376 -0.2087
    8SAPS  H12R  992   4.596   2.734   9.263  3.4213  1.7858 -2.7380
    8SAPS  C213  993   4.638   2.547   9.149  0.1192 -0.6070 -0.1104
    8SAPS  H13R  994   4.727   2.482   9.134  1.4915  1.2590 -0.5671
    8SAPS  H13S  995   4.645   2.602   9.053 -1.8202 -1.4971 -0.7996
    8SAPS  C214  996   4.516   2.464   9.133  0.6028 -0.3622 -0.3399
    8SAPS  H14R  997   4.491   2.411   9.226 -0.1142 -0.2512 -0.4704
    8SAPS  C215  998   4.440   2.441   9.019 -0.3421 -0.0732 -0.3764
    8SAPS  H15R  999   4.369   2.358   9.030  0.9059 -1.0490  0.7286
    8SAPS  C216 1000   4.450   2.489   8.875  0.0850 -0.1269 -0.1225
    8SAPS  H16R 1001   4.551   2.523   8.842 -0.0946  1.6018  0.9739
    8SAPS  H16S 1002   4.384   2.578   8.877  0.2666  0.0436 -1.2615
    8SAPS  C217 1003   4.380   2.397   8.770 -0.2969 -0.0926  0.5536
    8SAPS  H17R 1004   4.362   2.468   8.687  0.1829  0.5186  0.9632
    8SAPS  H17S 1005   4.286   2.355   8.813 -0.5107 -0.6256 -0.4111
    8SAPS  C218 1006   4.463   2.282   8.716 -0.1110  0.8487 -0.1085
    8SAPS  H18R 1007   4.496   2.223   8.804  3.4662  1.6316 -0.7903
    8SAPS  H18S 1008   4.554   2.316   8.663  1.0833 -0.1455  1.2320
    8SAPS  C219 1009   4.389   2.190   8.614  0.4190  0.4488  0.0064
    8SAPS  H19R 1010   4.330   2.122   8.680  1.3311 -0.8884 -0.5189
    8SAPS  H19S 1011   4.461   2.121   8.565  1.4854  0.3362  1.6528
    8SAPS  C220 1012   4.286   2.264   8.524 -0.4710  0.6394  0.3843
    8SAPS  H20R 1013   4.258   2.192   8.444  0.2964  1.0798 -0.2922
    8SAPS  H20S 1014   4.342   2.344   8.472 -2.0914  0.8280 -1.1518
    8SAPS  H20T 1015   4.196   2.305   8.575 -1.0728 -0.4596  0.2357
    8SAPS   C33 1016   4.886   3.130  10.141 -0.1265 -0.6802  0.1214
    8SAPS   H3X 1017   4.776   3.140  10.159 -0.0400 -1.3002  1.0422
    8SAPS   H3Y 1018   4.902   3.022  10.122  0.8293 -0.2969 -1.5266
    8SAPS   C34 1019   4.931   3.209  10.012 -0.9921 -0.0624 -0.0244
    8SAPS   H4X 1020   5.038   3.197   9.987 -0.9694  0.6004 -0.2689
    8SAPS   H4Y 1021   4.926   3.319  10.025  0.1449  0.0044 -0.0559
    8SAPS   C35 1022   4.861   3.162   9.886  0.6831 -0.5306 -0.1513
    8SAPS   H5X 1023   4.761   3.208   9.900  0.9798  0.0880 -0.0323
    8SAPS   H5Y 1024   4.844   3.053   9.901  1.4613 -0.7110 -0.5656
    8SAPS   C36 1025   4.928   3.186   9.755  0.0978  0.4655  0.4093
    8SAPS   H6X 1026   5.032   3.149   9.769  0.6924  2.5626  1.9958
    8SAPS   H6Y 1027   4.933   3.294   9.731 -1.1748  0.7893  1.4618
    8SAPS   C37 1028   4.851   3.120   9.640 -0.7261 -0.2140  0.4418
    8SAPS   H7X 1029   4.766   3.182   9.605 -0.6078 -1.5832 -2.5988
    8SAPS   H7Y 1030   4.803   3.023   9.668 -0.0984 -1.3942 -2.2045
    8SAPS   C38 1031   4.941   3.094   9.518  0.2830 -0.0695  0.4332
    8SAPS   H8X 1032   5.026   3.037   9.558  0.1990 -0.0370  0.6557
    8SAPS   H8Y 1033   4.995   3.186   9.486  0.9132 -0.5300  0.1523
    8SAPS   C39 1034   4.859   3.024   9.404 -0.0800  0.1683  0.0646
    8SAPS   H9X 1035   4.802   2.931   9.428 -0.5315  0.1819 -0.9216
    8SAPS   H9Y 1036   4.927   2.994   9.322 -0.5613  0.7071 -0.5381
    8SAPS  C310 1037   4.745   3.108   9.346  0.5732  0.6506  0.0997
    8SAPS  H10X 1038   4.789   3.209   9.346  0.7042  0.6407 -1.9664
    8SAPS  H10Y 1039   4.651   3.104   9.406  1.3059  0.8867  1.2833
    8SAPS  C311 1040   4.713   3.075   9.200 -0.3326 -0.0936 -0.1687
    8SAPS  H11X 1041   4.681   2.969   9.194  1.2711 -0.7688  1.9267
    8SAPS  H11Y 1042   4.802   3.095   9.136 -0.6369 -0.8371 -0.8413
    8SAPS  C312 1043   4.614   3.175   9.139 -0.7658 -0.0780  0.0713
    8SAPS  H12X 1044   4.651   3.279   9.144 -0.1611 -0.2214 -1.0276
    8SAPS  H12Y 1045   4.521   3.173   9.200 -2.1408 -0.3895 -1.9460
    8SAPS  C313 1046   4.558   3.142   9.002  0.6364  0.1102 -0.3820
    8SAPS  H13X 1047   4.556   3.031   8.994 -0.0184 -0.0710  1.8246
    8SAPS  H13Y 1048   4.626   3.168   8.918  3.4908  0.1912  1.8356
    8SAPS  C314 1049   4.419   3.192   8.979 -0.0396  0.6208 -0.2308
    8SAPS  H14X 1050   4.405   3.300   9.003 -2.7121  0.2475  0.1685
    8SAPS  H14Y 1051   4.356   3.132   9.048 -0.8742 -2.6802 -3.5590
    8SAPS  C315 1052   4.370   3.148   8.836  0.0500  0.2581  0.4379
    8SAPS  H15X 1053   4.382   3.037   8.832 -4.8199 -0.5951  2.2259
    8SAPS  H15Y 1054   4.437   3.197   8.762  1.3847  1.4431  2.3439
    8SAPS  C316 1055   4.225   3.186   8.822 -0.0886 -0.2443 -0.3323
    8SAPS  H16X 1056   4.207   3.284   8.871  1.8560 -0.3598  0.6944
    8SAPS  H16Y 1057   4.163   3.111   8.875 -0.8896  1.1438  0.7500
    8SAPS  C317 1058   4.174   3.189   8.679 -0.1460 -1.1662  0.0032
    8SAPS  H17X 1059   4.212   3.285   8.638  0.1809  0.2557  3.2939
    8SAPS  H17Y 1060   4.065   3.193   8.699 -0.3516  4.9014 -0.3342
    8SAPS  C318 1061   4.199   3.072   8.588 -0.9047  0.0366 -0.3509
    8SAPS  H18X 1062   4.160   2.985   8.645 -1.4765  1.1770  1.0442
    8SAPS  H18Y 1063   4.308   3.056   8.572 -1.0270 -1.6802  0.2595
    8SAPS  H18Z 1064   4.157   3.084   8.486  0.8226 -1.3944 -1.3088
    9SAPS     N 1065   1.733   3.572   6.271  0.1931 -0.5553  0.8105
    9SAPS   HN1 1066   1.801   3.635   6.224 -1.5445  1.2292  0.5590
    9SAPS   HN2 1067   1.647   3.622   6.302  0.7201 -0.2207  1.7608
    9SAPS   HN3 1068   1.785   3.542   6.356  1.6185  0.3480  0.2888
    9SAPS   C12 1069   1.705   3.447   6.200 -0.4589  0.4354  0.1729
    9SAPS  H12A 1070   1.654   3.485   6.112  0.2251 -0.2105 -0.5223
    9SAPS   C13 1071   1.829   3.364   6.155  0.3573 -0.4352 -0.5897
    9SAPS  O13A 1072   1.943   3.421   6.160  0.4728 -1.0898  0.0372
    9SAPS  O13B 1073   1.810   3.263   6.086  0.2052 -0.3182 -0.0928
    9SAPS   C11 1074   1.598   3.363   6.277 -0.4686 -0.2492  0.4996
    9SAPS  H11A 1075   1.633   3.332   6.378 -1.5846  1.1366  1.3679
    9SAPS  H11B 1076   1.583   3.271   6.218  0.3833  0.7791 -1.3887
    9SAPS     P 1077   1.353   3.368   6.360 -0.3478  0.3167  0.0427
    9SAPS   O13 1078   1.246   3.458   6.371 -0.2757 -0.3325 -0.6587
    9SAPS   O14 1079   1.331   3.236   6.298 -0.2196 -0.2245  0.3676
    9SAPS   O12 1080   1.480   3.439   6.294 -0.6957 -0.0638 -0.5718
    9SAPS   O11 1081   1.396   3.336   6.506 -0.2744 -0.4652 -0.0093
    9SAPS    C1 1082   1.431   3.428   6.616 -0.3893  0.0312  0.1823
    9SAPS    HA 1083   1.541   3.436   6.626 -0.2937  1.2395 -1.6246
    9SAPS    HB 1084   1.401   3.530   6.585  1.6770  0.0971 -1.8543
    9SAPS    C2 1085   1.371   3.394   6.756  0.0927 -0.4782  0.4045
    9SAPS    HS 1086   1.402   3.471   6.829 -0.6275 -0.1610  0.3816
    9SAPS   O21 1087   1.419   3.271   6.799 -0.1578 -0.0370  0.1519
    9SAPS   C21 1088   1.545   3.267   6.847 -0.0938 -0.8583  0.3807
    9SAPS   O22 1089   1.618   3.370   6.865 -0.1358  0.1543  0.2329
    9SAPS   C22 1090   1.580   3.120   6.860 -0.2321  0.6090 -0.2820
    9SAPS   H2R 1091   1.518   3.063   6.788  1.4185 -3.0419  0.9233
    9SAPS   H2S 1092   1.687   3.100   6.837 -0.7302 -2.3634 -0.3223
    9SAPS    C3 1093   1.219   3.391   6.753 -0.3883  1.1909 -0.3890
    9SAPS    HX 1094   1.199   3.299   6.693  1.6642  0.3488  0.1494
    9SAPS    HY 1095   1.167   3.469   6.693  0.0258  1.6586 -0.1477
    9SAPS   O31 1096   1.163   3.375   6.888  0.3607  0.0394 -0.4133
    9SAPS   C31 1097   1.153   3.493   6.954 -0.0319 -0.0829  0.0787
    9SAPS   O32 1098   1.188   3.600   6.911  0.0947 -0.1015 -0.2911
    9SAPS   C32 1099   1.114   3.462   7.098 -0.1349 -0.2806  1.0587
    9SAPS   H2X 1100   1.198   3.406   7.144 -0.2154 -0.6595  0.7523
    9SAPS   H2Y 1101   1.027   3.394   7.104 -0.6853 -0.1497 -2.6203
    9SAPS   C23 1102   1.553   3.054   6.997  0.1949 -0.4611  0.5791
    9SAPS   H3R 1103   1.619   3.099   7.074  1.3945 -1.7897  0.3673
    9SAPS   H3S 1104   1.571   2.945   6.985 -1.1082 -0.6341 -0.0458
    9SAPS   C24 1105   1.400   3.066   7.033 -0.4330  0.0263  0.2947
    9SAPS   H4R 1106   1.338   3.016   6.955  0.6624  1.1376 -1.3591
    9SAPS   H4S 1107   1.378   3.175   7.031 -1.7035 -0.1108  2.9404
    9SAPS   C25 1108   1.356   3.017   7.166 -0.0815 -0.2418 -0.8364
    9SAPS   H5R 1109   1.333   2.909   7.167 -1.4875  0.0457 -0.5695
    9SAPS   C26 1110   1.336   3.094   7.282  0.1815  0.7485  0.7725
    9SAPS   H6R 1111   1.307   3.041   7.373  1.7383  0.4008  1.1021
    9SAPS   C27 1112   1.377   3.231   7.305  0.1092  0.2636 -0.2777
    9SAPS   H7R 1113   1.301   3.268   7.377 -2.4809 -1.5053 -1.9104
    9SAPS   H7S 1114   1.349   3.285   7.212 -1.2894  1.9159  1.0261
    9SAPS   C28 1115   1.520   3.235   7.349 -0.2384 -0.4453 -0.7334
    9SAPS   H8R 1116   1.602   3.186   7.294  1.3245  1.2631 -0.0279
    9SAPS   C29 1117   1.565   3.301   7.455  0.4105  0.1505  0.6505
    9SAPS   H9R 1118   1.672   3.295   7.480  0.3005  0.6463  1.2720
    9SAPS  C210 1119   1.491   3.381   7.559 -0.1630 -0.0638 -0.2642
    9SAPS  H10R 1120   1.385   3.351   7.571 -0.3247  0.9436  0.9657
    9SAPS  H10S 1121   1.495   3.488   7.532 -2.2135  0.5650  1.6245
    9SAPS  C211 1122   1.557   3.363   7.689 -0.6144  0.1687 -0.0398
    9SAPS  H11R 1123   1.656   3.411   7.698  0.3057 -1.0754 -2.7255
    9SAPS  C212 1124   1.533   3.286   7.802 -0.6118  0.8867  0.9015
    9SAPS  H12R 1125   1.600   3.284   7.889 -2.4513 -0.8613  2.3955
    9SAPS  C213 1126   1.409   3.200   7.809  0.3736  0.0638 -0.5573
    9SAPS  H13R 1127   1.339   3.211   7.724  0.0256  2.2467 -0.0315
    9SAPS  H13S 1128   1.344   3.220   7.897  0.9106  0.0175 -0.1374
    9SAPS  C214 1129   1.463   3.058   7.797 -0.0948 -0.0355  0.3195
    9SAPS  H14R 1130   1.473   3.026   7.692 -0.4143 -0.7042  0.4842
    9SAPS  C215 1131   1.493   2.968   7.896 -0.6414  0.0250 -0.1631
    9SAPS  H15R 1132   1.525   2.869   7.862 -2.4482 -0.9458  0.8539
    9SAPS  C216 1133   1.491   2.992   8.044  0.0764  0.6950 -0.3623
    9SAPS  H16R 1134   1.427   3.080   8.070  0.5629  1.3734 -1.3906
    9SAPS  H16S 1135   1.596   3.008   8.077  0.1440  0.9173 -0.6846
    9SAPS  C217 1136   1.430   2.870   8.125 -0.7721  0.1826  0.4988
    9SAPS  H17R 1137   1.322   2.868   8.099 -0.7799 -0.4019  0.5425
    9SAPS  H17S 1138   1.446   2.883   8.234 -0.3323 -2.1231  0.7684
    9SAPS  C218 1139   1.487   2.724   8.085 -0.6065 -0.0215  0.0278
    9SAPS  H18R 1140   1.585   2.724   8.137 -0.0833 -1.9569 -0.8778
    9SAPS  H18S 1141   1.498   2.712   7.975 -2.3806 -0.6840 -0.1213
    9SAPS  C219 1142   1.414   2.611   8.150  0.2248  0.7628 -0.4872
    9SAPS  H19R 1143   1.303   2.612   8.143  0.1193  2.1251  0.9452
    9SAPS  H19S 1144   1.435   2.604   8.258 -0.3420 -2.5875 -0.4818
    9SAPS  C220 1145   1.463   2.477   8.085  0.2129 -0.3810  0.3108
    9SAPS  H20R 1146   1.462   2.486   7.974  0.9752  2.5132  0.4486
    9SAPS  H20S 1147   1.397   2.393   8.112  0.7299 -0.6952  0.6147
    9SAPS  H20T 1148   1.566   2.451   8.117 -0.1092 -2.0406  0.0647
    9SAPS   C33 1149   1.087   3.592   7.190  0.1561 -0.0047  0.4437
    9SAPS   H3X 1150   0.986   3.628   7.162  0.7553  0.2950 -1.5650
    9SAPS   H3Y 1151   1.154   3.677   7.163 -1.0771  0.8566  0.0209
    9SAPS   C34 1152   1.100   3.565   7.335  0.3771  0.8654 -0.2022
    9SAPS   H4X 1153   1.075   3.656   7.393 -1.3071 -1.3582  2.8645
    9SAPS   H4Y 1154   1.198   3.539   7.381 -0.8725 -1.4665  1.3678
    9SAPS   C35 1155   0.995   3.471   7.405  0.2346 -0.6575  0.0380
    9SAPS   H5X 1156   1.027   3.370   7.371 -0.9659 -0.7442 -0.8902
    9SAPS   H5Y 1157   0.893   3.492   7.367  0.3991  2.0386  0.9282
    9SAPS   C36 1158   0.981   3.469   7.561 -0.1183  0.0692  0.5729
    9SAPS   H6X 1159   0.912   3.386   7.585  0.4046 -0.6132 -0.2101
    9SAPS   H6Y 1160   0.942   3.565   7.600 -1.6331 -1.3054  2.6262
    9SAPS   C37 1161   1.117   3.429   7.632  0.0951 -0.4077  0.2571
    9SAPS   H7X 1162   1.201   3.489   7.592  2.5880 -3.8956 -0.2388
    9SAPS   H7Y 1163   1.140   3.324   7.602  0.6215 -0.4978  0.9366
    9SAPS   C38 1164   1.110   3.446   7.787  0.3982 -0.3277 -0.0411
    9SAPS   H8X 1165   1.205   3.397   7.817  0.3923  0.0910  0.6731
    9SAPS   H8Y 1166   1.026   3.394   7.837  1.5309  0.8334  3.3168
    9SAPS   C39 1167   1.111   3.588   7.837  0.9703  0.8448  0.1096
    9SAPS   H9X 1168   1.018   3.635   7.799  1.1426  0.5020 -0.7711
    9SAPS   H9Y 1169   1.207   3.632   7.800  1.9655  0.7308  2.4344
    9SAPS  C310 1170   1.109   3.606   7.987 -0.8795 -0.4554  0.4943
    9SAPS  H10X 1171   1.155   3.706   8.003 -0.8033 -0.1458 -1.4966
    9SAPS  H10Y 1172   1.177   3.537   8.041 -0.3720 -0.6079 -0.3372
    9SAPS  C311 1173   0.974   3.600   8.064 -0.9969  0.6959 -0.6661
    9SAPS  H11X 1174   0.926   3.501   8.052  1.6696 -0.7122 -0.6004
    9SAPS  H11Y 1175   0.903   3.671   8.018 -1.2380  0.0890 -1.2438
    9SAPS  C312 1176   1.000   3.629   8.209  0.4466 -0.1677 -0.5283
    9SAPS  H12X 1177   0.912   3.671   8.263  0.6646  0.5063 -0.6950
    9SAPS  H12Y 1178   1.080   3.705   8.222 -1.2154  1.6050 -0.1680
    9SAPS  C313 1179   1.030   3.501   8.287  0.3143 -0.6882  0.2856
    9SAPS  H13X 1180   1.118   3.459   8.234 -0.7060  1.8273 -3.8149
    9SAPS  H13Y 1181   0.942   3.434   8.283 -2.6201  2.9028 -2.9343
    9SAPS  C314 1182   1.061   3.536   8.432  0.2075  0.0488  0.1193
    9SAPS  H14X 1183   1.130   3.623   8.432  0.7284 -0.3112 -1.6547
    9SAPS  H14Y 1184   1.121   3.449   8.467  1.4763  0.3006 -1.3152
    9SAPS  C315 1185   0.935   3.545   8.517  0.0512  0.2873 -0.6284
    9SAPS  H15X 1186   0.867   3.459   8.496 -1.0645  1.4210 -1.8137
    9SAPS  H15Y 1187   0.881   3.635   8.481  1.0146  0.9736 -0.3730
    9SAPS  C316 1188   0.970   3.525   8.664 -0.0483 -0.2055  0.9331
    9SAPS  H16X 1189   1.037   3.610   8.690 -0.1603  0.0404  0.4422
    9SAPS  H16Y 1190   1.030   3.432   8.670 -0.0746 -0.4002 -1.0608
    9SAPS  C317 1191   0.838   3.523   8.747  1.0280 -0.0388 -0.3845
    9SAPS  H17X 1192   0.768   3.599   8.705 -0.6172 -0.7231  1.0040
    9SAPS  H17Y 1193   0.860   3.544   8.854  1.6282 -2.3161 -0.0134
    9SAPS  C318 1194   0.761   3.395   8.739 -0.8091  0.3016 -0.5656
    9SAPS  H18X 1195   0.659   3.405   8.783 -1.0861 -0.4183 -1.0237
    9SAPS  H18Y 1196   0.819   3.321   8.798 -1.5651  0.3290  0.2280
    9SAPS  H18Z 1197   0.760   3.357   8.634  1.6727 -0.3036 -0.4218
   10SAPS     N 1198   1.225   2.824   5.951 -1.0647 -0.4515  0.1597
   10SAPS   HN1 1199   1.264   2.872   6.035  1.3260 -0.2365 -0.9763
   10SAPS   HN2 1200   1.296   2.752   5.929  1.7598  1.7054  1.4789
   10SAPS   HN3 1201   1.216   2.886   5.868  0.0872 -1.5144 -0.7767
   10SAPS   C12 1202   1.098   2.752   5.970 -1.0422 -0.3181  0.7456
   10SAPS  H12A 1203   1.033   2.827   6.013  2.1046  2.3168  1.3045
   10SAPS   C13 1204   1.033   2.697   5.835 -0.1206 -0.0549 -0.3288
   10SAPS  O13A 1205   1.091   2.717   5.730  0.0886 -0.1140  0.7998
   10SAPS  O13B 1206   0.910   2.655   5.842 -0.5304  0.7670  0.3980
   10SAPS   C11 1207   1.120   2.648   6.077 -0.2989 -1.2310  0.6394
   10SAPS  H11A 1208   1.217   2.595   6.061  1.7063  2.3481 -0.0833
   10SAPS  H11B 1209   1.039   2.573   6.062 -0.0269 -1.2074 -1.1496
   10SAPS     P 1210   1.238   2.732   6.292  0.3276 -0.2227  0.4064
   10SAPS   O13 1211   1.286   2.601   6.343  0.1081 -0.4544 -0.3938
   10SAPS   O14 1212   1.328   2.806   6.204 -0.3709 -0.4955 -0.3418
   10SAPS   O12 1213   1.110   2.704   6.208 -0.2532  0.0562  0.0299
   10SAPS   O11 1214   1.190   2.822   6.406 -0.4701 -0.6675 -0.8710
   10SAPS    C1 1215   1.097   2.782   6.510 -0.4050  0.4701  0.9584
   10SAPS    HA 1216   1.029   2.869   6.523  0.9996  1.8071 -0.1962
   10SAPS    HB 1217   1.038   2.693   6.480 -0.0570 -0.0827  1.8564
   10SAPS    C2 1218   1.161   2.727   6.650 -1.2625 -0.1737  0.6247
   10SAPS    HS 1219   1.236   2.656   6.612  1.4971  2.8538 -0.0550
   10SAPS   O21 1220   1.064   2.660   6.727 -0.1267  0.5033 -0.1746
   10SAPS   C21 1221   1.097   2.531   6.754 -0.3106 -0.3368 -0.3109
   10SAPS   O22 1222   1.204   2.476   6.726  0.1094 -0.0376 -0.0381
   10SAPS   C22 1223   0.986   2.458   6.836  0.2443  0.2258 -0.3122
   10SAPS   H2R 1224   0.900   2.480   6.770 -0.2247  1.2803  0.6241
   10SAPS   H2S 1225   1.015   2.351   6.839 -0.9437 -0.0839  0.8847
   10SAPS    C3 1226   1.234   2.834   6.742 -0.0853  0.5427  0.0042
   10SAPS    HX 1227   1.152   2.897   6.781  0.0003 -0.9192  2.7963
   10SAPS    HY 1228   1.313   2.885   6.683 -0.0234 -1.2203 -1.5376
   10SAPS   O31 1229   1.289   2.782   6.858  0.2992 -0.1060 -0.3126
   10SAPS   C31 1230   1.399   2.705   6.836 -0.4638 -0.2311  0.4334
   10SAPS   O32 1231   1.464   2.699   6.733 -0.1179  0.0015 -0.4341
   10SAPS   C32 1232   1.451   2.628   6.966 -0.1511 -0.2720  1.2194
   10SAPS   H2X 1233   1.361   2.601   7.025 -1.1258  0.5313  0.1431
   10SAPS   H2Y 1234   1.514   2.699   7.024  3.8931 -2.9266  0.5009
   10SAPS   C23 1235   0.945   2.526   6.968  0.6588 -0.5572 -0.4706
   10SAPS   H3R 1236   0.868   2.466   7.022 -0.2849  1.2107  0.2388
   10SAPS   H3S 1237   0.898   2.624   6.946  0.4792 -0.8233 -1.2992
   10SAPS   C24 1238   1.069   2.559   7.060  0.0185 -0.3851 -0.1274
   10SAPS   H4R 1239   1.025   2.621   7.141 -2.4141 -1.6948 -0.3426
   10SAPS   H4S 1240   1.148   2.622   7.013 -0.6896  1.4240  0.9802
   10SAPS   C25 1241   1.134   2.436   7.111 -0.3894  0.5150  0.5949
   10SAPS   H5R 1242   1.198   2.384   7.039  1.2120 -0.2416  2.4855
   10SAPS   C26 1243   1.119   2.379   7.234  0.8030  0.1286  0.6327
   10SAPS   H6R 1244   1.194   2.308   7.272  0.6162  0.8374  2.4499
   10SAPS   C27 1245   1.039   2.430   7.350  0.1250  0.2111 -0.0365
   10SAPS   H7R 1246   1.032   2.539   7.332  0.7550 -0.0195 -1.8937
   10SAPS   H7S 1247   1.090   2.409   7.446  0.9973 -1.4926 -0.8288
   10SAPS   C28 1248   0.902   2.361   7.347  0.3581  0.3661  0.3927
   10SAPS   H8R 1249   0.840   2.362   7.255  0.4200 -0.5685  0.3337
   10SAPS   C29 1250   0.848   2.307   7.459  0.0880 -0.1726 -0.8638
   10SAPS   H9R 1251   0.748   2.261   7.454  1.6544 -3.9593 -1.1277
   10SAPS  C210 1252   0.921   2.295   7.594 -0.2756 -0.1248  0.1367
   10SAPS  H10R 1253   1.032   2.290   7.586 -0.3612 -0.3200 -1.3050
   10SAPS  H10S 1254   0.905   2.192   7.634  1.9155 -1.1325 -1.3683
   10SAPS  C211 1255   0.871   2.407   7.682  0.0149  0.8510  0.3783
   10SAPS  H11R 1256   0.867   2.501   7.626  2.5622  2.9120  3.2637
   10SAPS  C212 1257   0.854   2.422   7.815  0.3332  0.0152 -0.8379
   10SAPS  H12R 1258   0.823   2.518   7.860 -1.2073 -0.1790 -1.4321
   10SAPS  C213 1259   0.872   2.321   7.931 -0.2011  0.5189  0.0337
   10SAPS  H13R 1260   0.787   2.250   7.931  0.1108  0.1361  0.1240
   10SAPS  H13S 1261   0.858   2.384   8.021  1.1882  1.6434 -0.4989
   10SAPS  C214 1262   1.008   2.261   7.931 -0.5238 -0.0864  0.3995
   10SAPS  H14R 1263   1.053   2.237   7.834 -0.5701  4.2886 -0.9456
   10SAPS  C215 1264   1.090   2.242   8.042  0.4679  0.4612  0.1658
   10SAPS  H15R 1265   1.182   2.182   8.031  0.3879  0.3769 -0.0540
   10SAPS  C216 1266   1.044   2.266   8.185  0.1871  0.1298 -0.0327
   10SAPS  H16R 1267   0.935   2.287   8.190  0.4116  1.0320  1.6817
   10SAPS  H16S 1268   1.099   2.349   8.234  0.4015  0.6562 -1.1364
   10SAPS  C217 1269   1.062   2.145   8.278 -0.5261  0.0691 -0.2275
   10SAPS  H17R 1270   1.028   2.052   8.228 -2.1712  0.5534 -0.0566
   10SAPS  H17S 1271   1.002   2.157   8.371 -0.3202  0.3009 -0.1235
   10SAPS  C218 1272   1.210   2.132   8.326 -0.2636  0.3678 -0.1923
   10SAPS  H18R 1273   1.247   2.229   8.367  2.2201 -0.6280  0.1178
   10SAPS  H18S 1274   1.284   2.098   8.250 -0.5667 -2.1765  0.5440
   10SAPS  C219 1275   1.219   2.025   8.440  0.2574 -0.2648  0.2380
   10SAPS  H19R 1276   1.191   1.926   8.399  0.1999 -0.5155  0.8740
   10SAPS  H19S 1277   1.150   2.050   8.524  0.9796 -1.5606  1.2687
   10SAPS  C220 1278   1.364   2.002   8.497 -0.3595 -0.1361  0.4797
   10SAPS  H20R 1279   1.351   1.953   8.596 -2.0859  0.5777  0.6305
   10SAPS  H20S 1280   1.427   2.092   8.513 -1.1180  1.3265 -3.5765
   10SAPS  H20T 1281   1.428   1.941   8.429  1.2315 -0.1890  1.9471
   10SAPS   C33 1282   1.511   2.494   6.925 -0.1343  0.3471 -0.5203
   10SAPS   H3X 1283   1.602   2.507   6.863  1.7998  0.5005  2.1576
   10SAPS   H3Y 1284   1.430   2.435   6.877 -0.0098  0.0975 -0.4229
   10SAPS   C34 1285   1.559   2.422   7.052 -0.3159 -0.6562 -0.1514
   10SAPS   H4X 1286   1.480   2.361   7.099  0.6648 -1.0791  0.9752
   10SAPS   H4Y 1287   1.589   2.488   7.136  1.4224  1.3787 -2.2273
   10SAPS   C35 1288   1.685   2.342   7.033  0.2041  0.7169  0.2486
   10SAPS   H5X 1289   1.776   2.387   6.988  0.5842 -2.2604 -2.2686
   10SAPS   H5Y 1290   1.656   2.260   6.964 -0.1125  1.4286 -0.4746
   10SAPS   C36 1291   1.740   2.267   7.156  0.1800  0.0705 -0.3685
   10SAPS   H6X 1292   1.789   2.171   7.130 -0.8794 -0.7373  0.5160
   10SAPS   H6Y 1293   1.651   2.240   7.217  0.0139  0.1694 -0.5664
   10SAPS   C37 1294   1.841   2.353   7.239  0.0190 -0.0920  0.4344
   10SAPS   H7X 1295   1.796   2.453   7.257  1.6209  0.8295 -0.5613
   10SAPS   H7Y 1296   1.931   2.370   7.178 -0.2319  0.5455  0.2381
   10SAPS   C38 1297   1.871   2.294   7.378 -0.1740  0.1590  0.1833
   10SAPS   H8X 1298   1.929   2.201   7.362 -2.1250 -0.7039 -2.6146
   10SAPS   H8Y 1299   1.780   2.267   7.435  0.0047 -2.8582 -0.8071
   10SAPS   C39 1300   1.963   2.397   7.453 -0.2329  0.9422  0.0282
   10SAPS   H9X 1301   1.910   2.495   7.447 -3.1202 -0.4824  0.3529
   10SAPS   H9Y 1302   2.058   2.386   7.398 -0.5381  2.2601 -0.8235
   10SAPS  C310 1303   1.987   2.337   7.596  0.2395  0.9838 -0.4879
   10SAPS  H10X 1304   2.089   2.366   7.629  0.0822 -0.0192  1.0139
   10SAPS  H10Y 1305   1.987   2.226   7.589  3.4940  0.8800 -0.4101
   10SAPS  C311 1306   1.883   2.396   7.694 -0.2279  0.1821  0.1422
   10SAPS  H11X 1307   1.779   2.405   7.658  0.6510 -0.5152 -2.8557
   10SAPS  H11Y 1308   1.915   2.502   7.705 -0.3569  0.2129  0.2245
   10SAPS  C312 1309   1.893   2.310   7.823  0.2464  0.0894 -0.6944
   10SAPS  H12X 1310   1.997   2.315   7.864  0.2238 -0.0250 -0.6229
   10SAPS  H12Y 1311   1.885   2.201   7.804 -1.4446 -0.1016  0.8075
   10SAPS  C313 1312   1.788   2.335   7.935 -0.7080 -0.0897  0.2390
   10SAPS  H13X 1313   1.691   2.293   7.901 -1.3337  1.9107 -0.5733
   10SAPS  H13Y 1314   1.784   2.446   7.946  1.8354  0.0765 -0.0303
   10SAPS  C314 1315   1.822   2.272   8.073  0.0170 -0.0403  0.2942
   10SAPS  H14X 1316   1.761   2.323   8.151 -1.7417 -1.3872 -0.1547
   10SAPS  H14Y 1317   1.925   2.304   8.101 -0.8643  2.1028  1.3336
   10SAPS  C315 1318   1.783   2.116   8.079  0.2630  0.1760  0.8359
   10SAPS  H15X 1319   1.857   2.073   8.008  2.0464 -0.9179  3.2275
   10SAPS  H15Y 1320   1.683   2.112   8.030  0.0075 -4.9901  1.2406
   10SAPS  C316 1321   1.776   2.043   8.211 -0.7908  0.3664 -0.1387
   10SAPS  H16X 1322   1.713   2.106   8.277 -2.5064 -0.1780 -1.1920
   10SAPS  H16Y 1323   1.876   2.046   8.260  0.7510  0.0235 -3.0756
   10SAPS  C317 1324   1.714   1.903   8.206 -0.1157  0.4493  0.4146
   10SAPS  H17X 1325   1.727   1.843   8.298 -1.9757  1.5981  1.5057
   10SAPS  H17Y 1326   1.776   1.848   8.132  3.2572 -0.0993  3.3631
   10SAPS  C318 1327   1.567   1.917   8.178  0.1950 -0.0864 -0.1496
   10SAPS  H18X 1328   1.551   1.942   8.071 -1.2450 -1.2589 -0.2312
   10SAPS  H18Y 1329   1.518   1.994   8.242 -0.1186  0.4723 -1.0442
   10SAPS  H18Z 1330   1.514   1.820   8.184 -1.6411  0.7941 -1.1552
   11SAPS     N 1331   5.578   2.829   6.257 -0.1879 -0.0084  0.3207
   11SAPS   HN1 1332   5.549   2.894   6.332 -1.3191 -1.0807  0.8340
   11SAPS   HN2 1333   5.542   2.733   6.273 -3.4116  1.2941  1.5700
   11SAPS   HN3 1334   5.682   2.825   6.250 -0.0406  3.1858 -1.1982
   11SAPS   C12 1335   5.524   2.875   6.121  0.0228  0.3784  0.1363
   11SAPS  H12A 1336   5.562   2.973   6.096  2.4378 -0.5163  0.1298
   11SAPS   C13 1337   5.562   2.781   6.001 -0.6014  0.0189  0.0538
   11SAPS  O13A 1338   5.647   2.686   6.020 -0.4933 -0.0901 -0.5044
   11SAPS  O13B 1339   5.494   2.787   5.896  0.4457 -0.4961  0.0703
   11SAPS   C11 1340   5.366   2.883   6.139  0.6671  0.4598  0.1588
   11SAPS  H11A 1341   5.333   2.778   6.127  0.7600 -0.0207  3.3773
   11SAPS  H11B 1342   5.326   2.939   6.052 -1.5819  0.7219  1.2913
   11SAPS     P 1343   5.220   3.052   6.261 -0.0243  0.3895  0.1174
   11SAPS   O13 1344   5.281   3.165   6.183  0.4338  0.1767  0.2721
   11SAPS   O14 1345   5.093   3.004   6.201  0.0036 -0.7415 -0.0953
   11SAPS   O12 1346   5.322   2.931   6.267 -0.2238 -0.3362  0.0322
   11SAPS   O11 1347   5.194   3.099   6.407 -0.0095 -0.5949 -0.0070
   11SAPS    C1 1348   5.297   3.092   6.513  0.3547  0.2700  0.2814
   11SAPS    HA 1349   5.339   2.989   6.520 -2.4400 -1.0536 -0.8562
   11SAPS    HB 1350   5.378   3.166   6.492 -0.3031  0.9846  0.2248
   11SAPS    C2 1351   5.238   3.126   6.649  0.0830  0.2865  0.2923
   11SAPS    HS 1352   5.152   3.056   6.648  0.4962 -0.2415 -0.6319
   11SAPS   O21 1353   5.203   3.259   6.662 -0.3048  0.4230 -0.0475
   11SAPS   C21 1354   5.083   3.291   6.610 -0.2491 -0.1457 -0.0078
   11SAPS   O22 1355   5.002   3.216   6.559  0.3277 -0.0354  0.1522
   11SAPS   C22 1356   5.060   3.444   6.628  0.1801  1.0704 -1.0184
   11SAPS   H2R 1357   5.161   3.491   6.625  0.5391  0.6834  1.6966
   11SAPS   H2S 1358   5.004   3.477   6.539 -2.6854  2.3455  1.1195
   11SAPS    C3 1359   5.331   3.084   6.762  0.3842 -0.1284  0.2224
   11SAPS    HX 1360   5.428   3.136   6.742  0.8973 -1.4060 -0.7778
   11SAPS    HY 1361   5.340   2.973   6.756  0.9038 -0.0094 -2.5149
   11SAPS   O31 1362   5.285   3.125   6.895 -0.5603 -0.1418 -0.5581
   11SAPS   C31 1363   5.188   3.064   6.958  0.0137 -0.1054  0.3556
   11SAPS   O32 1364   5.118   2.982   6.907 -0.2297  0.3414 -0.1324
   11SAPS   C32 1365   5.174   3.117   7.106 -0.2825  0.1967 -0.4482
   11SAPS   H2X 1366   5.271   3.086   7.150  0.2134  1.2451 -0.7654
   11SAPS   H2Y 1367   5.101   3.058   7.165  2.1638 -0.8381  1.7488
   11SAPS   C23 1368   4.975   3.474   6.756 -0.2235 -0.0129  0.2441
   11SAPS   H3R 1369   5.011   3.416   6.843 -2.5042 -0.8197  0.7033
   11SAPS   H3S 1370   4.879   3.420   6.758  0.2208 -0.8370 -0.2075
   11SAPS   C24 1371   4.969   3.620   6.782  0.2351 -0.2459  0.0639
   11SAPS   H4R 1372   4.890   3.639   6.858 -0.7626 -1.2859 -0.6969
   11SAPS   H4S 1373   4.938   3.676   6.691  0.5833  0.2001  0.2108
   11SAPS   C25 1374   5.100   3.680   6.835  0.1313 -0.4690  0.6454
   11SAPS   H5R 1375   5.181   3.668   6.762  0.4247  1.1155  0.6712
   11SAPS   C26 1376   5.128   3.719   6.959  0.0144  0.1712  0.0466
   11SAPS   H6R 1377   5.228   3.756   6.985 -0.0644  2.3152 -2.2712
   11SAPS   C27 1378   5.023   3.733   7.066  0.1194 -0.1265  0.3615
   11SAPS   H7R 1379   4.929   3.771   7.020 -0.1993 -0.8935  0.3665
   11SAPS   H7S 1380   5.044   3.821   7.131  3.1198  0.3026 -1.0119
   11SAPS   C28 1381   5.004   3.617   7.164 -0.0834 -0.6251 -0.1699
   11SAPS   H8R 1382   5.023   3.514   7.131  0.2667 -0.8628  0.7385
   11SAPS   C29 1383   4.972   3.625   7.299 -0.2448 -0.3180 -0.6064
   11SAPS   H9R 1384   4.956   3.533   7.357  0.5635  0.7137  1.3543
   11SAPS  C210 1385   4.944   3.749   7.382 -0.0213  0.2796 -0.3421
   11SAPS  H10R 1386   4.924   3.834   7.313  0.8488  0.1338 -0.7901
   11SAPS  H10S 1387   5.035   3.777   7.438  0.3882 -0.4801 -0.6188
   11SAPS  C211 1388   4.826   3.740   7.472  0.2149 -0.2631 -0.8389
   11SAPS  H11R 1389   4.733   3.791   7.443 -0.2283 -0.0947  0.7417
   11SAPS  C212 1390   4.821   3.666   7.587  0.3881  0.2894 -0.1412
   11SAPS  H12R 1391   4.724   3.652   7.636  0.7631 -4.2831 -0.3421
   11SAPS  C213 1392   4.924   3.579   7.653 -0.2652  0.6259  0.8643
   11SAPS  H13R 1393   5.012   3.642   7.679 -0.2287  1.1122 -0.3755
   11SAPS  H13S 1394   4.950   3.508   7.571  1.7403  0.6491  1.4317
   11SAPS  C214 1395   4.872   3.499   7.771  0.0392  0.0534  0.5792
   11SAPS  H14R 1396   4.778   3.444   7.751  0.8834 -0.4189 -2.5609
   11SAPS  C215 1397   4.926   3.471   7.891 -0.4835 -0.0712  0.1270
   11SAPS  H15R 1398   4.870   3.401   7.954 -0.8110 -0.9454 -1.1158
   11SAPS  C216 1399   5.052   3.527   7.946 -0.6383 -0.2208 -0.9119
   11SAPS  H16R 1400   5.098   3.597   7.873  0.9889  1.4314  1.5477
   11SAPS  H16S 1401   5.120   3.440   7.956 -1.0089 -0.4458 -0.3379
   11SAPS  C217 1402   5.039   3.600   8.088 -0.1714 -0.5190 -0.0788
   11SAPS  H17R 1403   4.958   3.676   8.086 -1.1196 -1.5188 -1.2218
   11SAPS  H17S 1404   5.131   3.658   8.109 -1.2906  0.8866  1.2796
   11SAPS  C218 1405   5.009   3.500   8.203  0.1127  0.7058  0.1591
   11SAPS  H18R 1406   5.094   3.429   8.215  0.5423  1.3974  1.4479
   11SAPS  H18S 1407   4.923   3.431   8.193  2.8005 -2.7415 -0.8261
   11SAPS  C219 1408   4.990   3.557   8.346  0.2251 -0.1151  0.6451
   11SAPS  H19R 1409   4.911   3.633   8.331  0.4602 -0.1139 -0.7221
   11SAPS  H19S 1410   5.090   3.593   8.378  0.1675 -0.9547  1.8380
   11SAPS  C220 1411   4.949   3.455   8.447  0.2573  0.3865 -0.0435
   11SAPS  H20R 1412   4.870   3.389   8.406 -0.3423 -0.6972  2.6029
   11SAPS  H20S 1413   4.906   3.492   8.543 -1.8256 -0.3513 -0.6190
   11SAPS  H20T 1414   5.031   3.384   8.469 -1.4339 -1.3310  1.0992
   11SAPS   C33 1415   5.158   3.265   7.138 -0.6262 -0.3140 -0.1877
   11SAPS   H3X 1416   5.093   3.309   7.059  1.0535  1.3179 -0.7331
   11SAPS   H3Y 1417   5.258   3.314   7.137 -0.0022 -1.5283  0.5443
   11SAPS   C34 1418   5.112   3.301   7.280  0.3801  0.5789  0.1880
   11SAPS   H4X 1419   5.003   3.281   7.280  0.4665  0.0973 -0.0471
   11SAPS   H4Y 1420   5.127   3.409   7.302 -1.6747  0.6930  1.2738
   11SAPS   C35 1421   5.160   3.215   7.397 -0.5094 -0.8513  0.1294
   11SAPS   H5X 1422   5.269   3.204   7.417 -0.6871 -1.2206  0.9447
   11SAPS   H5Y 1423   5.122   3.114   7.369 -0.5746 -0.2343 -2.1452
   11SAPS   C36 1424   5.091   3.250   7.525 -0.9273  0.0680 -0.7301
   11SAPS   H6X 1425   4.983   3.264   7.506 -0.6175  0.8655 -2.1193
   11SAPS   H6Y 1426   5.122   3.346   7.571 -2.5357 -0.0222  0.6248
   11SAPS   C37 1427   5.118   3.149   7.640  0.6654  0.5573  0.6238
   11SAPS   H7X 1428   5.225   3.133   7.663  0.4274 -2.6371  0.0472
   11SAPS   H7Y 1429   5.085   3.051   7.598  0.8016  1.0694 -0.7031
   11SAPS   C38 1430   5.045   3.182   7.762  0.5847  0.1698 -0.5436
   11SAPS   H8X 1431   4.936   3.195   7.750  0.3925  0.4812  1.2967
   11SAPS   H8Y 1432   5.083   3.276   7.808  1.4297  0.2165 -1.2982
   11SAPS   C39 1433   5.053   3.070   7.866  0.1049 -0.7921 -0.3189
   11SAPS   H9X 1434   5.161   3.051   7.884  0.1630  0.0540  0.2623
   11SAPS   H9Y 1435   4.982   2.986   7.845 -3.9014  2.4053 -0.8777
   11SAPS  C310 1436   4.999   3.114   8.008  0.1248 -0.4221  0.2436
   11SAPS  H10X 1437   4.888   3.119   7.996  0.0922  1.1748  0.9411
   11SAPS  H10Y 1438   5.036   3.216   8.034  0.2620 -1.0689  2.8038
   11SAPS  C311 1439   5.046   3.018   8.115  0.0709 -0.1091  0.8019
   11SAPS  H11X 1440   5.157   3.029   8.110  0.3349 -2.5814 -1.9307
   11SAPS  H11Y 1441   5.020   2.917   8.077 -3.3467  1.6279 -2.0809
   11SAPS  C312 1442   4.986   3.050   8.254  0.4110  0.5150 -0.0929
   11SAPS  H12X 1443   4.881   3.017   8.241  0.5921  0.2348 -0.8919
   11SAPS  H12Y 1444   4.988   3.159   8.275 -0.2761  0.9057 -1.9001
   11SAPS  C313 1445   5.044   2.960   8.374 -0.4478  1.0183  0.9464
   11SAPS  H13X 1446   4.985   2.990   8.464 -0.2582  1.5841  0.8878
   11SAPS  H13Y 1447   5.151   2.983   8.392  0.4529 -2.4660  0.6753
   11SAPS  C314 1448   5.024   2.812   8.347  0.0940 -0.0098  0.0901
   11SAPS  H14X 1449   5.073   2.786   8.251  0.4386 -0.4047  0.3686
   11SAPS  H14Y 1450   4.918   2.784   8.330 -0.1325  1.1304 -0.4514
   11SAPS  C315 1451   5.085   2.727   8.457  0.1039 -0.3540  0.8875
   11SAPS  H15X 1452   5.051   2.776   8.550  0.5455  1.4054  0.1702
   11SAPS  H15Y 1453   5.196   2.738   8.460 -0.0174  0.6997  2.8463
   11SAPS  C316 1454   5.053   2.576   8.442  0.2679  0.1230 -0.2439
   11SAPS  H16X 1455   5.107   2.550   8.348 -1.0997  1.6765 -1.5263
   11SAPS  H16Y 1456   4.946   2.548   8.430 -0.2647  0.8765  2.1489
   11SAPS  C317 1457   5.109   2.487   8.551  0.3157 -0.3215  0.1023
   11SAPS  H17X 1458   5.049   2.508   8.642  1.8554 -1.0457  1.3204
   11SAPS  H17Y 1459   5.207   2.534   8.572 -0.0952  0.4098  0.4297
   11SAPS  C318 1460   5.115   2.342   8.510  1.0442 -0.1983 -0.3167
   11SAPS  H18X 1461   5.149   2.278   8.594  0.0418 -1.0697 -0.5598
   11SAPS  H18Y 1462   5.179   2.333   8.420  0.0560 -0.9346 -0.9628
   11SAPS  H18Z 1463   5.013   2.305   8.489  0.1617  0.0381  2.9737
   12SAPS     N 1464   4.637   5.169   5.794 -0.2353 -0.2718 -0.1481
   12SAPS   HN1 1465   4.714   5.188   5.727  0.9791  2.6881  1.8510
   12SAPS   HN2 1466   4.551   5.223   5.771 -0.1122  1.6305  3.2162
   12SAPS   HN3 1467   4.673   5.205   5.884 -1.7432  0.0076  0.3759
   12SAPS   C12 1468   4.600   5.028   5.809 -0.2449  0.7343  1.1855
   12SAPS  H12A 1469   4.499   5.027   5.848 -0.7245 -3.6297  0.3005
   12SAPS   C13 1470   4.597   4.947   5.677  0.6943  0.1595 -0.2490
   12SAPS  O13A 1471   4.622   5.003   5.568  0.5658  0.0384 -0.3336
   12SAPS  O13B 1472   4.585   4.823   5.681 -0.3388  0.5181 -0.2623
   12SAPS   C11 1473   4.692   4.961   5.914 -0.3086  0.0803 -0.2791
   12SAPS  H11A 1474   4.802   4.951   5.911 -0.3520 -0.6463  0.4178
   12SAPS  H11B 1475   4.665   4.854   5.912 -1.1484  0.2376  1.3108
   12SAPS     P 1476   4.713   5.125   6.124  0.0633  0.0554 -0.0335
   12SAPS   O13 1477   4.782   5.214   6.024 -0.6677  0.3362  0.1263
   12SAPS   O14 1478   4.607   5.181   6.213  0.2866  0.1067  0.2663
   12SAPS   O12 1479   4.652   5.011   6.037  0.2521  0.7190  0.1482
   12SAPS   O11 1480   4.820   5.056   6.206 -0.3419  0.2402 -0.2482
   12SAPS    C1 1481   4.829   4.915   6.248  0.6195 -0.3977 -0.4793
   12SAPS    HA 1482   4.763   4.853   6.183  1.3699 -1.2485 -0.4349
   12SAPS    HB 1483   4.933   4.878   6.241  1.0098  0.6472 -0.3244
   12SAPS    C2 1484   4.779   4.910   6.401  0.2502 -0.1597 -0.5806
   12SAPS    HS 1485   4.678   4.955   6.404 -0.9219 -2.6855  1.1006
   12SAPS   O21 1486   4.872   4.988   6.489 -0.0503 -0.1271 -0.1618
   12SAPS   C21 1487   4.826   5.019   6.603 -0.4631 -0.4848 -0.4156
   12SAPS   O22 1488   4.710   5.025   6.636 -0.0152  0.5819  0.0118
   12SAPS   C22 1489   4.952   5.052   6.694  0.9257  0.5367 -0.6986
   12SAPS   H2R 1490   5.023   4.966   6.695  1.5844  1.0688  0.2568
   12SAPS   H2S 1491   5.014   5.130   6.643  3.2388  0.7197  2.0937
   12SAPS    C3 1492   4.761   4.768   6.452 -0.0050  0.0817  0.0937
   12SAPS    HX 1493   4.865   4.729   6.449 -0.4026 -0.9655 -2.4070
   12SAPS    HY 1494   4.720   4.694   6.380  1.7236 -0.5467 -0.3175
   12SAPS   O31 1495   4.705   4.762   6.584 -0.4122  0.2097 -1.0773
   12SAPS   C31 1496   4.576   4.735   6.591  0.5354  1.1156  0.3054
   12SAPS   O32 1497   4.511   4.694   6.500 -0.5163 -0.1396  0.7979
   12SAPS   C32 1498   4.537   4.723   6.741  0.1113  0.5929 -0.4988
   12SAPS   H2X 1499   4.608   4.795   6.788 -0.1012  2.0169 -2.2640
   12SAPS   H2Y 1500   4.564   4.622   6.780 -1.0765  0.6546  0.5415
   12SAPS   C23 1501   4.917   5.083   6.836 -0.3835 -0.0359 -0.6490
   12SAPS   H3R 1502   4.872   4.994   6.885 -0.6204 -2.1064 -4.2625
   12SAPS   H3S 1503   4.857   5.176   6.833  1.5832  1.2806 -1.1893
   12SAPS   C24 1504   5.040   5.148   6.912  0.2877  0.4927  0.4356
   12SAPS   H4R 1505   5.001   5.197   7.004  1.9803 -1.7401  2.4727
   12SAPS   H4S 1506   5.079   5.223   6.840  0.6004 -2.1650 -2.3693
   12SAPS   C25 1507   5.140   5.037   6.944 -0.1152 -1.0143  0.3806
   12SAPS   H5R 1508   5.156   4.959   6.868  1.6501 -0.9739  0.6757
   12SAPS   C26 1509   5.200   5.023   7.067 -0.2733  0.6254  0.5628
   12SAPS   H6R 1510   5.278   4.945   7.068 -0.1082  0.7281 -1.2241
   12SAPS   C27 1511   5.189   5.109   7.192  0.3501  0.2806  0.1254
   12SAPS   H7R 1512   5.086   5.150   7.191  0.7348  1.2915 -1.1431
   12SAPS   H7S 1513   5.242   5.205   7.178 -0.2496  0.6514  0.3371
   12SAPS   C28 1514   5.216   5.038   7.320  0.1654  0.4104  0.0855
   12SAPS   H8R 1515   5.135   4.981   7.367  0.7105 -0.2995  0.1790
   12SAPS   C29 1516   5.325   5.055   7.386 -0.6077  0.3133 -0.0908
   12SAPS   H9R 1517   5.327   5.015   7.489  0.2867  2.0165  0.6068
   12SAPS  C210 1518   5.439   5.142   7.337  0.2335  0.2444 -0.3512
   12SAPS  H10R 1519   5.409   5.248   7.341  2.2341  0.8833 -0.8977
   12SAPS  H10S 1520   5.452   5.125   7.228  0.4560  3.2369 -0.8744
   12SAPS  C211 1521   5.567   5.126   7.428  0.2650  0.7247 -0.0121
   12SAPS  H11R 1522   5.651   5.070   7.383  0.3117  1.2132 -0.5491
   12SAPS  C212 1523   5.606   5.192   7.546  0.3113  0.3035 -0.3523
   12SAPS  H12R 1524   5.705   5.175   7.589  0.1106  3.8344  1.9322
   12SAPS  C213 1525   5.521   5.292   7.622 -0.5256 -0.0390  0.6859
   12SAPS  H13R 1526   5.448   5.242   7.689 -0.4828 -1.1826 -0.0993
   12SAPS  H13S 1527   5.455   5.336   7.545  0.5447  0.2154 -0.1048
   12SAPS  C214 1528   5.589   5.403   7.696 -0.6139  0.4715  0.4639
   12SAPS  H14R 1529   5.650   5.473   7.637 -0.2274  0.7609  1.1997
   12SAPS  C215 1530   5.584   5.419   7.827  0.2160  0.0904 -0.2867
   12SAPS  H15R 1531   5.638   5.504   7.871 -2.1681  1.3693  0.2973
   12SAPS  C216 1532   5.507   5.331   7.922 -0.8372 -0.2924 -0.0396
   12SAPS  H16R 1533   5.539   5.226   7.902 -1.1148 -0.5084  0.6031
   12SAPS  H16S 1534   5.397   5.338   7.906 -0.7666  2.1906  0.2161
   12SAPS  C217 1535   5.541   5.374   8.073 -0.1780 -0.1608  0.5717
   12SAPS  H17R 1536   5.488   5.470   8.095 -1.2057 -0.3079 -1.1058
   12SAPS  H17S 1537   5.650   5.392   8.070 -0.5849  3.4591 -4.1845
   12SAPS  C218 1538   5.506   5.267   8.171  0.3439  0.3850 -0.4962
   12SAPS  H18R 1539   5.561   5.176   8.140  0.7317  0.8885 -1.3404
   12SAPS  H18S 1540   5.399   5.239   8.168  0.3408  0.3854 -0.3915
   12SAPS  C219 1541   5.538   5.311   8.314  0.2909  0.3097 -0.1380
   12SAPS  H19R 1542   5.503   5.237   8.390 -0.4834  0.7221 -0.0891
   12SAPS  H19S 1543   5.457   5.384   8.333  0.3268  0.3276 -0.0532
   12SAPS  C220 1544   5.682   5.355   8.340 -0.3803 -0.2480 -0.0132
   12SAPS  H20R 1545   5.751   5.276   8.303  0.3643 -0.0211  0.8555
   12SAPS  H20S 1546   5.707   5.381   8.445  1.4003 -0.0134 -0.4582
   12SAPS  H20T 1547   5.710   5.446   8.281  3.5126 -0.2489  1.4984
   12SAPS   C33 1548   4.390   4.765   6.772 -0.0750  0.3339  0.8191
   12SAPS   H3X 1549   4.324   4.678   6.751  1.6662 -0.8353 -0.0534
   12SAPS   H3Y 1550   4.362   4.848   6.703  1.8234  0.5706  0.2741
   12SAPS   C34 1551   4.375   4.812   6.916 -0.0191 -0.0025  0.0542
   12SAPS   H4X 1552   4.266   4.820   6.934  0.0910  0.1492  0.6565
   12SAPS   H4Y 1553   4.424   4.911   6.922  1.3867 -0.6686 -0.0279
   12SAPS   C35 1554   4.439   4.721   7.014  0.6876 -0.5402 -0.4247
   12SAPS   H5X 1555   4.549   4.737   7.013  0.8101 -1.2137  0.3772
   12SAPS   H5Y 1556   4.413   4.617   6.984 -2.9980  0.3890 -0.9026
   12SAPS   C36 1557   4.374   4.754   7.150  0.9901 -0.0196  0.0160
   12SAPS   H6X 1558   4.270   4.716   7.160  0.7559  1.2340  3.7086
   12SAPS   H6Y 1559   4.364   4.863   7.168 -0.2523 -0.1284  0.0565
   12SAPS   C37 1560   4.444   4.683   7.268  0.0619  0.0442  0.6104
   12SAPS   H7X 1561   4.552   4.709   7.264  0.2348 -0.0215  3.3847
   12SAPS   H7Y 1562   4.436   4.572   7.258 -0.3475  0.2785 -3.6906
   12SAPS   C38 1563   4.390   4.719   7.402  0.4260 -0.2353  0.2946
   12SAPS   H8X 1564   4.294   4.665   7.419 -0.8221  0.6811 -3.0413
   12SAPS   H8Y 1565   4.369   4.828   7.405  1.1981 -0.0634  3.4816
   12SAPS   C39 1566   4.490   4.674   7.511  0.1922  0.1023  0.0037
   12SAPS   H9X 1567   4.585   4.730   7.502 -0.1363  0.9969  1.6918
   12SAPS   H9Y 1568   4.524   4.569   7.503  2.0656  0.7175 -0.5184
   12SAPS  C310 1569   4.423   4.688   7.647  0.3445  0.2818 -0.0171
   12SAPS  H10X 1570   4.347   4.609   7.660 -1.0013  1.6221  0.6697
   12SAPS  H10Y 1571   4.381   4.788   7.672 -0.9907 -0.7229  1.9849
   12SAPS  C311 1572   4.519   4.653   7.764 -0.0195  0.0390 -0.3500
   12SAPS  H11X 1573   4.607   4.721   7.760  0.9959 -1.2848 -1.7298
   12SAPS  H11Y 1574   4.546   4.545   7.759  0.5060  0.1625 -0.2558
   12SAPS  C312 1575   4.440   4.672   7.905  0.2824  0.1415 -0.5509
   12SAPS  H12X 1576   4.347   4.612   7.913  0.9206 -0.6456  1.7999
   12SAPS  H12Y 1577   4.411   4.780   7.910  0.2438  0.1314 -0.5623
   12SAPS  C313 1578   4.514   4.648   8.038  0.7787  0.1229  0.0036
   12SAPS  H13X 1579   4.476   4.717   8.116  1.2099  2.7221 -1.9441
   12SAPS  H13Y 1580   4.622   4.670   8.028  0.8646 -0.0022  0.6238
   12SAPS  C314 1581   4.493   4.495   8.078  0.2970 -0.7439 -0.2232
   12SAPS  H14X 1582   4.539   4.422   8.009  2.2681 -1.1823  1.4567
   12SAPS  H14Y 1583   4.383   4.478   8.075  0.0510  0.7513 -0.8316
   12SAPS  C315 1584   4.557   4.467   8.209 -0.3605  0.3084 -0.4580
   12SAPS  H15X 1585   4.505   4.533   8.282 -0.9720  2.1169 -2.4258
   12SAPS  H15Y 1586   4.665   4.494   8.215 -0.4843  0.6725  0.2510
   12SAPS  C316 1587   4.536   4.320   8.260  0.1999  0.1470 -0.2823
   12SAPS  H16X 1588   4.585   4.302   8.358 -0.1972  4.2543  0.8604
   12SAPS  H16Y 1589   4.579   4.268   8.172 -1.8738 -0.8445 -0.7588
   12SAPS  C317 1590   4.384   4.277   8.269 -0.6705  0.1789  0.2598
   12SAPS  H17X 1591   4.322   4.330   8.194 -2.0265  0.3721  1.4872
   12SAPS  H17Y 1592   4.341   4.305   8.367 -0.0302  1.6938  0.1296
   12SAPS  C318 1593   4.366   4.129   8.241 -0.7861  1.2192  0.3733
   12SAPS  H18X 1594   4.410   4.056   8.313 -0.8630 -1.0542 -1.7500
   12SAPS  H18Y 1595   4.401   4.106   8.138  1.2120 -0.1183  1.2658
   12SAPS  H18Z 1596   4.257   4.112   8.234 -1.0573  2.8284  0.3181
   13SAPS     N 1597   4.163   1.766   6.516 -0.3724  0.1316  0.2777
   13SAPS   HN1 1598   4.206   1.848   6.562 -0.2761  0.4434 -0.3530
   13SAPS   HN2 1599   4.139   1.697   6.590 -3.0697 -0.0676 -0.6894
   13SAPS   HN3 1600   4.220   1.733   6.435 -2.4651 -0.1970 -1.1340
   13SAPS   C12 1601   4.039   1.803   6.454  0.1938 -0.1122  0.7364
   13SAPS  H12A 1602   3.955   1.770   6.512 -2.5509 -1.2935 -3.4620
   13SAPS   C13 1603   4.015   1.952   6.421 -0.2667 -0.0821 -0.0278
   13SAPS  O13A 1604   4.114   2.026   6.427  0.1785  0.1008  0.0862
   13SAPS  O13B 1605   3.896   1.985   6.422 -0.9829 -0.4298  0.0804
   13SAPS   C11 1606   4.028   1.713   6.322 -0.2297 -0.2476 -0.1458
   13SAPS  H11A 1607   4.111   1.744   6.255  1.2277 -1.6426  0.9565
   13SAPS  H11B 1608   3.926   1.732   6.283 -1.4255 -2.1766  1.7812
   13SAPS     P 1609   4.018   1.475   6.242  0.0355 -0.1928 -0.0745
   13SAPS   O13 1610   3.910   1.524   6.150 -0.2129  0.0635  0.3627
   13SAPS   O14 1611   4.151   1.447   6.179 -0.1912 -0.0663 -0.7310
   13SAPS   O12 1612   4.041   1.578   6.360 -0.2236 -0.1038  0.2602
   13SAPS   O11 1613   3.974   1.349   6.322 -0.5859  0.4302 -0.2731
   13SAPS    C1 1614   3.900   1.358   6.450  0.1429  0.1940 -0.2989
   13SAPS    HA 1615   3.836   1.449   6.445 -1.5735 -0.9196  0.5748
   13SAPS    HB 1616   3.833   1.271   6.464 -0.3330  0.1020 -2.6998
   13SAPS    C2 1617   3.997   1.358   6.579 -0.0665 -0.8281 -0.3356
   13SAPS    HS 1618   4.048   1.456   6.566 -1.8552  0.1821 -0.1373
   13SAPS   O21 1619   4.078   1.240   6.572  0.4467  0.0732  0.4606
   13SAPS   C21 1620   4.180   1.238   6.653  0.1179  0.4882  0.0012
   13SAPS   O22 1621   4.221   1.329   6.722  0.1788 -0.1825 -0.7220
   13SAPS   C22 1622   4.230   1.096   6.650  0.4042  0.8886  0.3036
   13SAPS   H2R 1623   4.143   1.038   6.689  0.4701  0.0869 -0.6783
   13SAPS   H2S 1624   4.248   1.066   6.544 -1.4706 -0.9584  0.4323
   13SAPS    C3 1625   3.914   1.371   6.707  0.1153 -0.0695 -0.2128
   13SAPS    HX 1626   3.986   1.369   6.792 -1.0423  0.0912  0.8047
   13SAPS    HY 1627   3.855   1.279   6.726 -0.1156  0.2649  0.7521
   13SAPS   O31 1628   3.833   1.494   6.696 -0.6158 -0.2653  0.0114
   13SAPS   C31 1629   3.706   1.482   6.685 -0.1225 -0.1102  0.5182
   13SAPS   O32 1630   3.639   1.378   6.672  0.5431 -0.5892  0.1831
   13SAPS   C32 1631   3.644   1.618   6.680 -0.6291  0.2466  0.3278
   13SAPS   H2X 1632   3.541   1.598   6.641  0.9461 -2.0761 -3.1100
   13SAPS   H2Y 1633   3.697   1.677   6.602 -1.3429  1.5117  0.7551
   13SAPS   C23 1634   4.353   1.060   6.730 -0.2668 -0.5820 -0.2387
   13SAPS   H3R 1635   4.437   1.125   6.697  1.2968 -1.9633  0.8530
   13SAPS   H3S 1636   4.381   0.957   6.701  0.3346 -0.4588 -0.1163
   13SAPS   C24 1637   4.332   1.050   6.884  0.8715 -0.6318 -0.6899
   13SAPS   H4R 1638   4.327   1.156   6.915  2.9766 -0.2282 -1.5542
   13SAPS   H4S 1639   4.421   1.002   6.931  1.8937  0.0917 -1.8162
   13SAPS   C25 1640   4.210   0.978   6.939  0.1978 -0.2364  0.2496
   13SAPS   H5R 1641   4.217   0.871   6.912  1.5656  0.0726 -0.6927
   13SAPS   C26 1642   4.100   1.039   6.994 -0.5199 -0.1204  0.5513
   13SAPS   H6R 1643   4.015   0.980   7.032 -1.3785  0.7299 -0.0152
   13SAPS   C27 1644   4.082   1.186   7.010  0.3133  0.1055  0.6758
   13SAPS   H7R 1645   4.025   1.227   6.924 -0.1264 -1.2337  0.2999
   13SAPS   H7S 1646   4.181   1.235   7.007  0.5134 -0.2411 -2.9884
   13SAPS   C28 1647   4.010   1.211   7.142  0.0848  0.5529  0.4832
   13SAPS   H8R 1648   3.900   1.207   7.139 -0.0026  0.1855  2.3883
   13SAPS   C29 1649   4.071   1.230   7.258  0.2289 -0.3622  0.7491
   13SAPS   H9R 1650   4.007   1.260   7.342  0.8496  0.4606  0.9495
   13SAPS  C210 1651   4.218   1.233   7.290 -0.6181  0.2985 -0.1131
   13SAPS  H10R 1652   4.223   1.315   7.365  0.3928  0.5558 -0.4454
   13SAPS  H10S 1653   4.275   1.270   7.201  1.0995 -2.2626 -0.1908
   13SAPS  C211 1654   4.279   1.103   7.340 -0.5357 -0.1058 -0.0455
   13SAPS  H11R 1655   4.285   1.022   7.266 -1.3727 -0.2200  0.0002
   13SAPS  C212 1656   4.336   1.081   7.463  0.8071  0.2691  0.0193
   13SAPS  H12R 1657   4.379   0.980   7.469 -1.4141 -0.7326 -0.0179
   13SAPS  C213 1658   4.351   1.175   7.584  0.3984  0.6284  0.3050
   13SAPS  H13R 1659   4.427   1.253   7.566 -0.1188  0.6466 -2.0930
   13SAPS  H13S 1660   4.385   1.117   7.673  0.7366 -0.5997 -0.5899
   13SAPS  C214 1661   4.214   1.234   7.611  0.4564  0.4759 -0.0186
   13SAPS  H14R 1662   4.128   1.191   7.558  1.5656 -1.0823 -0.6286
   13SAPS  C215 1663   4.179   1.324   7.708  0.2753  0.0779  0.3769
   13SAPS  H15R 1664   4.077   1.364   7.709  0.6225  0.9907  0.3971
   13SAPS  C216 1665   4.272   1.386   7.802 -0.4519  0.1379  0.1558
   13SAPS  H16R 1666   4.259   1.496   7.803  1.3815  0.3862  0.7729
   13SAPS  H16S 1667   4.377   1.352   7.786 -1.1628 -2.1794  0.0313
   13SAPS  C217 1668   4.244   1.334   7.948  0.2516  0.4749 -0.2814
   13SAPS  H17R 1669   4.290   1.234   7.965  1.7183  1.5350  2.7723
   13SAPS  H17S 1670   4.136   1.321   7.968 -0.2337 -1.5327 -3.4802
   13SAPS  C218 1671   4.307   1.428   8.048 -0.6495  0.5914  0.8193
   13SAPS  H18R 1672   4.266   1.530   8.029 -1.9002 -0.2445 -1.3111
   13SAPS  H18S 1673   4.418   1.427   8.038 -0.7512 -0.4319 -0.5029
   13SAPS  C219 1674   4.279   1.372   8.194 -0.1205  0.4294  0.1915
   13SAPS  H19R 1675   4.354   1.416   8.263 -1.3054  0.7698  1.3035
   13SAPS  H19S 1676   4.303   1.264   8.207 -2.4401 -0.2957 -1.0274
   13SAPS  C220 1677   4.127   1.383   8.235 -0.3905  0.3885 -0.5999
   13SAPS  H20R 1678   4.087   1.482   8.206  0.4655  0.7903 -0.4578
   13SAPS  H20S 1679   4.111   1.374   8.345  0.6007  0.2850 -0.4552
   13SAPS  H20T 1680   4.074   1.307   8.174  0.4714  0.3398 -1.3042
   13SAPS   C33 1681   3.648   1.673   6.824  0.6058  0.1254 -0.4931
   13SAPS   H3X 1682   3.737   1.631   6.877 -0.3526 -0.5294  0.6289
   13SAPS   H3Y 1683   3.557   1.636   6.875  0.4530 -0.4381 -1.1515
   13SAPS   C34 1684   3.663   1.824   6.838  0.2489  0.7234 -0.3836
   13SAPS   H4X 1685   3.579   1.862   6.776 -0.7761 -0.6114  0.1468
   13SAPS   H4Y 1686   3.752   1.865   6.785 -0.2565  0.6323 -1.3093
   13SAPS   C35 1687   3.657   1.884   6.984 -0.7811 -0.1819  0.0736
   13SAPS   H5X 1688   3.648   1.994   6.976 -0.9592 -0.0746  1.6098
   13SAPS   H5Y 1689   3.746   1.846   7.039 -0.9525 -2.9068 -1.3507
   13SAPS   C36 1690   3.528   1.849   7.055  0.9562 -0.8432  0.2306
   13SAPS   H6X 1691   3.513   1.740   7.071 -2.3006 -0.4041  0.8861
   13SAPS   H6Y 1692   3.443   1.886   6.994  1.9263  0.2898 -0.4870
   13SAPS   C37 1693   3.512   1.911   7.200  0.5230  0.0855  0.4341
   13SAPS   H7X 1694   3.505   2.021   7.187 -2.8209 -0.0320  0.2684
   13SAPS   H7Y 1695   3.605   1.897   7.259  1.7623  0.9047 -1.2695
   13SAPS   C38 1696   3.393   1.849   7.275 -0.4606 -0.0206  0.0944
   13SAPS   H8X 1697   3.418   1.741   7.277  0.3385  0.1395 -0.5752
   13SAPS   H8Y 1698   3.304   1.869   7.212  0.8152 -0.9599 -2.1076
   13SAPS   C39 1699   3.367   1.915   7.415 -0.8689 -0.6785  0.0773
   13SAPS   H9X 1700   3.336   2.019   7.390 -3.2059 -0.8996  1.7634
   13SAPS   H9Y 1701   3.467   1.924   7.462 -1.3373  2.9533  0.7309
   13SAPS  C310 1702   3.259   1.851   7.501 -0.6380  0.6410 -0.2121
   13SAPS  H10X 1703   3.273   1.742   7.519 -0.5528  0.3281 -2.0392
   13SAPS  H10Y 1704   3.161   1.841   7.449 -1.2998 -1.7030  1.2862
   13SAPS  C311 1705   3.231   1.913   7.636 -0.2843  0.3428 -0.5827
   13SAPS  H11X 1706   3.137   1.872   7.676 -0.2278  0.9598  0.2054
   13SAPS  H11Y 1707   3.208   2.019   7.609 -0.8737  0.6532  1.0488
   13SAPS  C312 1708   3.353   1.904   7.732 -0.0130 -0.1428  0.5481
   13SAPS  H12X 1709   3.441   1.949   7.682 -0.8709  2.6858  1.3913
   13SAPS  H12Y 1710   3.367   1.795   7.749 -2.3673 -0.6730 -0.5139
   13SAPS  C313 1711   3.335   1.983   7.862  0.6524  1.1752  0.1870
   13SAPS  H13X 1712   3.266   1.922   7.924  0.1169  1.8143  0.2212
   13SAPS  H13Y 1713   3.280   2.077   7.841 -2.6255 -0.6246  0.1157
   13SAPS  C314 1714   3.461   2.007   7.946  0.8407  0.2387 -0.0107
   13SAPS  H14X 1715   3.538   2.067   7.893  2.3086 -1.9154 -0.4607
   13SAPS  H14Y 1716   3.504   1.909   7.978  0.0487  0.4989  1.9598
   13SAPS  C315 1717   3.437   2.080   8.084  0.3340 -0.3903 -0.6681
   13SAPS  H15X 1718   3.354   2.031   8.139 -0.3434  0.5692 -0.8199
   13SAPS  H15Y 1719   3.399   2.184   8.078  0.5949  0.0691  3.2439
   13SAPS  C316 1720   3.558   2.089   8.177 -0.3980 -0.1190  0.0456
   13SAPS  H16X 1721   3.633   2.151   8.123  0.2760 -0.8074  0.1803
   13SAPS  H16Y 1722   3.603   1.988   8.178 -1.3959 -0.6290 -1.5664
   13SAPS  C317 1723   3.533   2.158   8.315 -0.3974 -0.0975  0.4712
   13SAPS  H17X 1724   3.429   2.141   8.349 -0.3069 -0.3928  0.5966
   13SAPS  H17Y 1725   3.547   2.267   8.296 -1.1113 -0.3175 -1.5700
   13SAPS  C318 1726   3.633   2.099   8.415  0.2821 -0.1232  0.4137
   13SAPS  H18X 1727   3.667   1.997   8.389 -0.9888 -0.0013 -1.9316
   13SAPS  H18Y 1728   3.590   2.094   8.518  0.4035  1.4924  0.5825
   13SAPS  H18Z 1729   3.728   2.157   8.416  1.5418 -2.1064  0.6755
   14SAPS     N 1730   6.036   5.645   5.888  0.2747 -0.0735 -0.1579
   14SAPS   HN1 1731   6.017   5.721   5.820  0.8934  0.4371  0.2294
   14SAPS   HN2 1732   5.950   5.619   5.942  0.1557 -0.4115 -0.5116
   14SAPS   HN3 1733   6.107   5.678   5.957 -0.1685 -1.0361  0.7905
   14SAPS   C12 1734   6.098   5.534   5.817  0.0036 -0.2673 -0.0145
   14SAPS  H12A 1735   6.034   5.513   5.732 -1.0510 -1.0605  0.9447
   14SAPS   C13 1736   6.244   5.557   5.773  0.5626  0.1132  0.0183
   14SAPS  O13A 1737   6.293   5.670   5.778  0.2086  0.2289 -0.3635
   14SAPS  O13B 1738   6.287   5.467   5.693 -0.2422  0.8441  0.1463
   14SAPS   C11 1739   6.092   5.403   5.917  0.3641 -0.4096 -0.5456
   14SAPS  H11A 1740   6.140   5.317   5.867  0.5418 -1.3821  1.2199
   14SAPS  H11B 1741   5.990   5.367   5.940 -0.1207  1.4600  0.4646
   14SAPS     P 1742   6.214   5.346   6.152 -0.0282 -0.2086  0.3901
   14SAPS   O13 1743   6.314   5.257   6.088 -0.7677  0.7840 -0.1011
   14SAPS   O14 1744   6.259   5.429   6.272 -0.1678 -0.0552  0.0851
   14SAPS   O12 1745   6.154   5.440   6.034 -0.0175 -0.1914  0.0608
   14SAPS   O11 1746   6.087   5.259   6.203 -0.1887 -0.0835 -0.5320
   14SAPS    C1 1747   6.001   5.328   6.295  0.3654 -0.8116  0.7089
   14SAPS    HA 1748   5.979   5.431   6.261  0.9324 -0.4497  1.3949
   14SAPS    HB 1749   5.900   5.287   6.273 -0.0156  0.0094  0.9078
   14SAPS    C2 1750   6.030   5.310   6.447 -0.3572 -0.1114  0.0581
   14SAPS    HS 1751   6.138   5.333   6.461 -0.5873  0.8036  0.4249
   14SAPS   O21 1752   6.002   5.174   6.491 -0.0165 -0.6564 -0.2549
   14SAPS   C21 1753   6.098   5.091   6.467  0.0423  0.7958 -0.4244
   14SAPS   O22 1754   6.213   5.114   6.430 -0.4702 -0.4795 -0.1352
   14SAPS   C22 1755   6.054   4.944   6.500  0.5512 -0.0823  0.5587
   14SAPS   H2R 1756   5.969   4.939   6.571 -0.3265 -1.0020 -0.5326
   14SAPS   H2S 1757   6.005   4.900   6.411  0.6087  0.1522  0.4103
   14SAPS    C3 1758   5.946   5.422   6.519 -0.2718  0.3704 -0.0445
   14SAPS    HX 1759   5.853   5.440   6.462  0.7717  0.8870 -1.6289
   14SAPS    HY 1760   6.001   5.517   6.505 -1.4280  0.9124 -1.1408
   14SAPS   O31 1761   5.933   5.392   6.660  0.5780  0.2215  0.0795
   14SAPS   C31 1762   5.818   5.335   6.693 -0.2283 -0.0133 -0.3776
   14SAPS   O32 1763   5.714   5.337   6.634  0.6229 -0.3593 -0.0683
   14SAPS   C32 1764   5.839   5.268   6.835 -0.3506  0.2631  0.6342
   14SAPS   H2X 1765   5.938   5.287   6.881 -1.7009  2.1885  2.9402
   14SAPS   H2Y 1766   5.836   5.160   6.808  1.0323  0.4571 -0.3900
   14SAPS   C23 1767   6.165   4.859   6.564 -0.0557 -0.2618  0.4639
   14SAPS   H3R 1768   6.231   4.837   6.478 -0.5088  1.0029 -0.2449
   14SAPS   H3S 1769   6.118   4.762   6.591  0.4925 -0.9222 -0.9058
   14SAPS   C24 1770   6.224   4.929   6.689 -0.2380 -0.3671 -0.0258
   14SAPS   H4R 1771   6.268   5.028   6.665  0.1617 -0.9662 -1.9217
   14SAPS   H4S 1772   6.317   4.877   6.721 -0.3271 -2.6010 -2.9852
   14SAPS   C25 1773   6.123   4.937   6.801  0.3123 -0.0723 -0.8225
   14SAPS   H5R 1774   6.058   4.848   6.807 -0.8509  0.8206  0.3906
   14SAPS   C26 1775   6.131   5.024   6.905  0.2319 -0.1435 -0.1746
   14SAPS   H6R 1776   6.055   5.022   6.985  0.7177  1.0179  0.3335
   14SAPS   C27 1777   6.242   5.130   6.921  0.0494  0.6984 -0.0804
   14SAPS   H7R 1778   6.186   5.226   6.915 -0.2335  0.5474  0.1097
   14SAPS   H7S 1779   6.317   5.135   6.839  1.7639 -1.2918  1.2557
   14SAPS   C28 1780   6.312   5.107   7.051 -0.1088 -0.5761 -0.4268
   14SAPS   H8R 1781   6.383   5.023   7.053  1.2043  0.5249  1.4488
   14SAPS   C29 1782   6.289   5.178   7.167  0.2457  0.0900  0.0791
   14SAPS   H9R 1783   6.345   5.149   7.257 -1.7076 -0.8929  1.0575
   14SAPS  C210 1784   6.192   5.285   7.193 -0.3457 -0.1849 -0.8081
   14SAPS  H10R 1785   6.144   5.313   7.098  2.2763 -0.0838 -2.1901
   14SAPS  H10S 1786   6.245   5.375   7.230 -1.4919  0.8749 -1.7041
   14SAPS  C211 1787   6.097   5.238   7.301  0.2853 -0.8306 -0.0601
   14SAPS  H11R 1788   5.996   5.226   7.260 -0.0244  2.4615 -0.5265
   14SAPS  C212 1789   6.113   5.234   7.433 -0.3327 -0.4697  1.0924
   14SAPS  H12R 1790   6.019   5.204   7.482 -1.7378 -1.1075 -1.7818
   14SAPS  C213 1791   6.248   5.275   7.506  0.0469  0.3203 -0.2930
   14SAPS  H13R 1792   6.282   5.377   7.476  3.1245  0.3580  2.7827
   14SAPS  H13S 1793   6.332   5.207   7.485 -0.8758 -1.0546  0.3443
   14SAPS  C214 1794   6.243   5.271   7.658 -0.2055  0.2669  0.7332
   14SAPS  H14R 1795   6.204   5.363   7.704 -1.6883 -1.2209  2.5759
   14SAPS  C215 1796   6.263   5.167   7.741 -0.5298  0.0722 -0.4954
   14SAPS  H15R 1797   6.230   5.179   7.845  0.8291 -1.1541  0.1260
   14SAPS  C216 1798   6.307   5.022   7.698  1.1426 -0.5777  0.1265
   14SAPS  H16R 1799   6.291   5.014   7.588 -0.3915  1.4398  0.1462
   14SAPS  H16S 1800   6.244   4.936   7.730  0.7688 -0.1332  0.6224
   14SAPS  C217 1801   6.447   4.996   7.750 -1.0270 -0.6206 -0.6624
   14SAPS  H17R 1802   6.516   5.060   7.691 -1.1415  0.7698  0.6710
   14SAPS  H17S 1803   6.469   4.887   7.741  1.6570 -0.3662  1.4638
   14SAPS  C218 1804   6.463   5.010   7.911 -0.0971 -1.0729  1.0800
   14SAPS  H18R 1805   6.384   4.954   7.966  0.1365 -0.7092  1.8065
   14SAPS  H18S 1806   6.462   5.117   7.943  1.6808 -0.2412 -1.3245
   14SAPS  C219 1807   6.600   4.961   7.957 -0.2292  0.1372 -0.4044
   14SAPS  H19R 1808   6.672   5.017   7.893 -0.5793  2.3716  1.0171
   14SAPS  H19S 1809   6.613   4.852   7.942  2.4698  0.0918  1.5647
   14SAPS  C220 1810   6.629   5.001   8.102  0.2470 -0.9306  0.1163
   14SAPS  H20R 1811   6.533   4.972   8.151  0.2189 -1.2491 -0.1201
   14SAPS  H20S 1812   6.631   5.111   8.092 -1.7607 -0.8433  0.2016
   14SAPS  H20T 1813   6.724   4.952   8.132 -0.3421 -2.1959 -0.0137
   14SAPS   C33 1814   5.741   5.301   6.946  0.3222 -0.1184 -0.0904
   14SAPS   H3X 1815   5.732   5.217   7.018  0.8174  0.0356  0.1614
   14SAPS   H3Y 1816   5.641   5.317   6.901  0.7644  3.3110 -0.0910
   14SAPS   C34 1817   5.792   5.426   7.026  0.0641  0.4036  0.2039
   14SAPS   H4X 1818   5.791   5.507   6.950  2.6236 -0.0623 -0.4171
   14SAPS   H4Y 1819   5.901   5.419   7.046  0.2959  0.8751 -0.8287
   14SAPS   C35 1820   5.708   5.464   7.160 -0.3501 -0.2737  0.3978
   14SAPS   H5X 1821   5.751   5.387   7.228  1.4907 -0.5161 -0.9554
   14SAPS   H5Y 1822   5.600   5.437   7.154 -0.3128 -0.9041  1.9830
   14SAPS   C36 1823   5.719   5.607   7.199  0.1611 -0.5103 -0.1988
   14SAPS   H6X 1824   5.656   5.678   7.141 -3.2384 -1.0598  2.5234
   14SAPS   H6Y 1825   5.825   5.637   7.184  0.0681 -0.5720 -1.0252
   14SAPS   C37 1826   5.682   5.630   7.349  0.1959 -0.6702  0.1821
   14SAPS   H7X 1827   5.733   5.555   7.414 -2.1990 -2.0243  0.6352
   14SAPS   H7Y 1828   5.572   5.616   7.359  0.1246 -0.2864 -0.0732
   14SAPS   C38 1829   5.715   5.770   7.405 -0.2590  0.2844  0.5430
   14SAPS   H8X 1830   5.664   5.848   7.345  2.1358  0.4841 -1.4350
   14SAPS   H8Y 1831   5.821   5.800   7.386 -1.5299  4.2543 -1.3400
   14SAPS   C39 1832   5.668   5.798   7.555 -0.0419  0.0844  0.2429
   14SAPS   H9X 1833   5.705   5.902   7.568  1.1955 -0.4735  1.4580
   14SAPS   H9Y 1834   5.709   5.718   7.620  1.4641 -0.5589 -1.4318
   14SAPS  C310 1835   5.515   5.790   7.574 -0.4686  0.3389 -0.5179
   14SAPS  H10X 1836   5.484   5.689   7.541 -1.2784  0.3239  0.2331
   14SAPS  H10Y 1837   5.449   5.873   7.540 -1.3487  0.5192  1.4305
   14SAPS  C311 1838   5.495   5.800   7.726  0.3677  0.3513 -0.2349
   14SAPS  H11X 1839   5.531   5.700   7.757 -0.7460 -1.1197 -3.2321
   14SAPS  H11Y 1840   5.393   5.818   7.767  0.5891  0.8249  0.1159
   14SAPS  C312 1841   5.583   5.900   7.804  0.1950 -0.9520 -0.4575
   14SAPS  H12X 1842   5.556   6.006   7.790  2.1347 -0.2912  0.3840
   14SAPS  H12Y 1843   5.690   5.900   7.776  1.7459  0.8281  4.3548
   14SAPS  C313 1844   5.567   5.881   7.950 -0.5177  0.7368 -0.3581
   14SAPS  H13X 1845   5.579   5.772   7.970 -1.0205  0.5982 -0.7936
   14SAPS  H13Y 1846   5.467   5.908   7.992 -0.3872  1.7550 -0.6714
   14SAPS  C314 1847   5.653   5.979   8.043 -0.2743  0.1959 -0.6318
   14SAPS  H14X 1848   5.605   6.079   8.047 -1.2414 -0.2608 -0.2941
   14SAPS  H14Y 1849   5.751   5.982   7.991 -0.1421 -2.6118 -0.6978
   14SAPS  C315 1850   5.643   5.934   8.194 -0.4989  0.7053  0.5314
   14SAPS  H15X 1851   5.688   5.833   8.205 -0.3841  0.7754  0.7117
   14SAPS  H15Y 1852   5.535   5.923   8.216 -0.5939 -0.3659 -0.3512
   14SAPS  C316 1853   5.707   6.022   8.297 -0.3922  0.5800  0.1701
   14SAPS  H16X 1854   5.644   6.113   8.295 -0.9249  0.2286  0.3852
   14SAPS  H16Y 1855   5.813   6.032   8.268  0.4975 -3.1216  1.5496
   14SAPS  C317 1856   5.713   5.969   8.439  0.4560  0.8970  0.0403
   14SAPS  H17X 1857   5.618   5.913   8.452  0.4401  0.3444 -2.0203
   14SAPS  H17Y 1858   5.707   6.052   8.512 -4.4157 -1.3224  2.5625
   14SAPS  C318 1859   5.833   5.890   8.474  0.6339 -0.5756  0.2503
   14SAPS  H18X 1860   5.925   5.935   8.430  1.7148 -1.4686  1.5303
   14SAPS  H18Y 1861   5.840   5.786   8.436  3.9640 -0.9716  1.5860
   14SAPS  H18Z 1862   5.851   5.892   8.583  1.8161 -1.4023  0.0999
   15SAPS     N 1863   4.876   5.483   5.978 -0.0376 -0.0754 -0.2048
   15SAPS   HN1 1864   4.868   5.387   6.016 -1.5637  0.4604  0.9348
   15SAPS   HN2 1865   4.876   5.551   6.057 -2.3270 -0.7554  0.4498
   15SAPS   HN3 1866   4.789   5.499   5.924 -0.1067 -2.0726 -0.7540
   15SAPS   C12 1867   4.992   5.507   5.890 -0.5877  0.8422  0.5411
   15SAPS  H12A 1868   4.990   5.427   5.818 -0.3464 -0.0814  1.5324
   15SAPS   C13 1869   5.005   5.638   5.807 -0.3376 -0.9012  0.1650
   15SAPS  O13A 1870   4.913   5.725   5.799  0.0933  0.2695 -0.4128
   15SAPS  O13B 1871   5.119   5.661   5.760  0.3607 -0.5310 -0.3148
   15SAPS   C11 1872   5.119   5.490   5.973  0.4700  0.5750 -0.1017
   15SAPS  H11A 1873   5.125   5.556   6.062 -0.2160 -1.3070  1.3946
   15SAPS  H11B 1874   5.212   5.532   5.928  1.1193  2.4189  2.6753
   15SAPS     P 1875   5.243   5.265   5.970  0.0227 -0.3329 -0.4116
   15SAPS   O13 1876   5.216   5.266   5.824 -0.2842  0.2288 -0.8183
   15SAPS   O14 1877   5.370   5.327   6.017  0.1527  0.1548  0.4669
   15SAPS   O12 1878   5.132   5.357   6.024  0.2276 -0.2136 -0.3643
   15SAPS   O11 1879   5.216   5.125   6.043 -0.2414  0.0157 -0.0598
   15SAPS    C1 1880   5.118   5.114   6.144  0.9092 -0.2448 -0.3206
   15SAPS    HA 1881   5.024   5.173   6.132 -1.6869 -2.6786  5.0553
   15SAPS    HB 1882   5.077   5.011   6.142  1.2505 -0.4259  1.2639
   15SAPS    C2 1883   5.180   5.125   6.281  0.1563 -0.5002 -0.0793
   15SAPS    HS 1884   5.106   5.077   6.349  2.0086 -1.6218  1.2392
   15SAPS   O21 1885   5.202   5.261   6.328  0.0398  0.5754  0.0800
   15SAPS   C21 1886   5.105   5.345   6.352 -0.2676  0.0067 -0.1105
   15SAPS   O22 1887   4.981   5.322   6.351 -0.4308 -0.2224 -0.2106
   15SAPS   C22 1888   5.162   5.485   6.387 -0.4871 -0.3805 -0.1173
   15SAPS   H2R 1889   5.271   5.495   6.366 -0.5050  0.7180  0.2024
   15SAPS   H2S 1890   5.126   5.551   6.306  0.1640  0.2015  0.0515
   15SAPS    C3 1891   5.317   5.055   6.297 -0.5740 -0.0409 -0.8487
   15SAPS    HX 1892   5.392   5.083   6.220  0.1968  3.0364  0.8427
   15SAPS    HY 1893   5.290   4.948   6.296  0.4178 -0.3080 -0.4206
   15SAPS   O31 1894   5.377   5.095   6.421 -0.3221 -0.2040  0.6426
   15SAPS   C31 1895   5.399   4.997   6.514 -0.3883 -0.7381  0.3475
   15SAPS   O32 1896   5.364   4.880   6.511 -0.2553  0.7184  0.0524
   15SAPS   C32 1897   5.484   5.070   6.617 -0.5597  0.0893 -0.1771
   15SAPS   H2X 1898   5.464   5.179   6.614  2.1656  0.6675 -0.3288
   15SAPS   H2Y 1899   5.590   5.067   6.582 -1.0903 -1.0031 -1.7830
   15SAPS   C23 1900   5.121   5.536   6.528  0.4483  0.2558 -0.1447
   15SAPS   H3R 1901   5.012   5.555   6.521  0.7761  1.6724 -2.1165
   15SAPS   H3S 1902   5.173   5.634   6.532  0.0959  0.5662 -2.1297
   15SAPS   C24 1903   5.154   5.439   6.647 -0.0102  0.4494 -0.3970
   15SAPS   H4R 1904   5.099   5.343   6.637 -0.8519  0.9446 -0.5807
   15SAPS   H4S 1905   5.101   5.488   6.731  1.6544  2.0639 -0.2109
   15SAPS   C25 1906   5.304   5.417   6.662 -0.0420  0.4573 -0.0966
   15SAPS   H5R 1907   5.362   5.402   6.570 -1.4167 -2.4386 -0.6223
   15SAPS   C26 1908   5.371   5.417   6.779  0.3673 -0.3671 -0.4308
   15SAPS   H6R 1909   5.481   5.415   6.768  0.4307 -0.2237  0.1253
   15SAPS   C27 1910   5.327   5.438   6.923 -0.1906  0.5820 -0.3519
   15SAPS   H7R 1911   5.416   5.423   6.988 -0.8032 -1.6283  0.0530
   15SAPS   H7S 1912   5.251   5.362   6.952  0.3963  0.2531  0.3476
   15SAPS   C28 1913   5.280   5.577   6.961 -0.5095  0.6262 -0.3242
   15SAPS   H8R 1914   5.260   5.646   6.877  0.1489  1.2443  0.0185
   15SAPS   C29 1915   5.261   5.624   7.086  0.2470 -0.6035  0.5621
   15SAPS   H9R 1916   5.251   5.733   7.099  3.6587 -0.2896  1.5863
   15SAPS  C210 1917   5.276   5.548   7.214 -0.5223 -0.2896  0.5015
   15SAPS  H10R 1918   5.326   5.612   7.289 -0.2888 -2.8283  2.6374
   15SAPS  H10S 1919   5.342   5.459   7.200 -1.7838 -1.2844  0.6459
   15SAPS  C211 1920   5.143   5.489   7.264  0.1276 -0.6464  0.2203
   15SAPS  H11R 1921   5.094   5.415   7.199 -0.8085 -0.4414  0.6755
   15SAPS  C212 1922   5.085   5.518   7.380  0.2114  0.2699 -0.4786
   15SAPS  H12R 1923   4.998   5.459   7.413 -2.3527  3.1828 -1.4640
   15SAPS  C213 1924   5.134   5.617   7.485 -0.0396  0.0128  0.4638
   15SAPS  H13R 1925   5.042   5.672   7.516  0.7950  2.4238 -0.9963
   15SAPS  H13S 1926   5.189   5.706   7.448 -0.1266  0.0225  0.3583
   15SAPS  C214 1927   5.200   5.545   7.597 -0.2483  0.6816  0.4251
   15SAPS  H14R 1928   5.308   5.531   7.582 -0.3720  0.3236 -0.1644
   15SAPS  C215 1929   5.134   5.512   7.713 -0.4528  0.7533  0.9715
   15SAPS  H15R 1930   5.188   5.448   7.784 -0.0929  0.2876  0.2903
   15SAPS  C216 1931   4.987   5.547   7.746  0.1579 -0.3317 -0.2126
   15SAPS  H16R 1932   4.940   5.454   7.784  1.4835 -0.8229  0.2866
   15SAPS  H16S 1933   4.928   5.581   7.658  1.4429  2.9321  0.0327
   15SAPS  C217 1934   4.982   5.661   7.857 -0.1559 -0.5328  0.2255
   15SAPS  H17R 1935   5.039   5.621   7.943 -1.2723  0.9190  1.6913
   15SAPS  H17S 1936   4.875   5.676   7.882 -0.1828  0.1831 -0.2889
   15SAPS  C218 1937   5.034   5.799   7.805  0.6083  0.9309  0.0748
   15SAPS  H18R 1938   4.987   5.815   7.706  0.1587 -2.4681 -0.3814
   15SAPS  H18S 1939   5.144   5.797   7.793  0.6201  2.3451 -0.1970
   15SAPS  C219 1940   4.995   5.916   7.891  0.3839 -0.8316  0.5341
   15SAPS  H19R 1941   4.889   5.908   7.924  0.4535  0.8252  1.2659
   15SAPS  H19S 1942   4.991   6.013   7.838 -0.2885 -1.1379  0.0192
   15SAPS  C220 1943   5.093   5.927   8.002 -0.1587 -0.3345  0.1102
   15SAPS  H20R 1944   5.088   5.845   8.076 -1.3514 -1.3084 -1.0070
   15SAPS  H20S 1945   5.073   6.021   8.059  1.2072  0.2159 -0.2709
   15SAPS  H20T 1946   5.184   5.945   7.940 -0.7832  1.1652 -0.4301
   15SAPS   C33 1947   5.469   5.028   6.768 -0.5716 -0.7399  0.2280
   15SAPS   H3X 1948   5.359   5.037   6.786 -0.6220  3.4931 -1.1444
   15SAPS   H3Y 1949   5.496   5.100   6.847 -0.2702 -0.5691 -0.0273
   15SAPS   C34 1950   5.518   4.887   6.796 -0.3414 -0.4376 -0.3972
   15SAPS   H4X 1951   5.471   4.812   6.730  0.6593 -1.8263  0.4124
   15SAPS   H4Y 1952   5.485   4.852   6.896 -2.7724 -2.5311 -1.8297
   15SAPS   C35 1953   5.672   4.879   6.795  0.1597 -0.3255 -0.1898
   15SAPS   H5X 1954   5.727   4.975   6.803  0.2592 -0.4638  0.9965
   15SAPS   H5Y 1955   5.699   4.842   6.694  1.1030 -1.8889  0.5916
   15SAPS   C36 1956   5.730   4.794   6.906  0.3183 -0.9587  0.1704
   15SAPS   H6X 1957   5.827   4.745   6.882 -0.1464 -1.0614 -1.7068
   15SAPS   H6Y 1958   5.663   4.705   6.912 -1.5365  0.1729 -2.0060
   15SAPS   C37 1959   5.739   4.872   7.035  0.4763  1.1241  0.1618
   15SAPS   H7X 1960   5.661   4.951   7.041  0.4261  1.2854 -1.9339
   15SAPS   H7Y 1961   5.837   4.925   7.036  0.9300  0.3094  1.7419
   15SAPS   C38 1962   5.742   4.782   7.159  0.3792 -0.3016 -0.2527
   15SAPS   H8X 1963   5.800   4.846   7.228  0.8837 -1.2064  0.1661
   15SAPS   H8Y 1964   5.800   4.689   7.141  0.8720 -0.1268  0.4131
   15SAPS   C39 1965   5.602   4.741   7.212 -0.1535 -0.3528 -0.1164
   15SAPS   H9X 1966   5.563   4.655   7.154 -0.8011  0.6591 -1.2047
   15SAPS   H9Y 1967   5.539   4.832   7.198 -0.3211 -0.4872 -0.2356
   15SAPS  C310 1968   5.598   4.716   7.365 -0.0087 -0.5309  0.3868
   15SAPS  H10X 1969   5.631   4.808   7.417  1.8368 -1.0794  0.2467
   15SAPS  H10Y 1970   5.668   4.632   7.384  0.1119 -0.9440 -1.6114
   15SAPS  C311 1971   5.461   4.679   7.420  0.0751 -0.0384  0.1965
   15SAPS  H11X 1972   5.418   4.598   7.357  3.5159 -1.1566 -0.9882
   15SAPS  H11Y 1973   5.382   4.755   7.405 -2.6117 -2.7069 -0.1372
   15SAPS  C312 1974   5.465   4.619   7.560 -0.6560  0.5816  0.0909
   15SAPS  H12X 1975   5.547   4.545   7.567 -2.1652 -1.4231 -1.9113
   15SAPS  H12Y 1976   5.374   4.561   7.586  1.4463 -4.1782 -2.0532
   15SAPS  C313 1977   5.481   4.727   7.674  0.0415  0.0959  0.1373
   15SAPS  H13X 1978   5.383   4.769   7.703 -0.6368 -2.4358  1.8860
   15SAPS  H13Y 1979   5.536   4.815   7.634  0.7653  0.4518  1.8325
   15SAPS  C314 1980   5.548   4.671   7.807  0.3759 -0.0586  1.3345
   15SAPS  H14X 1981   5.583   4.765   7.854 -1.9727  0.8174  1.4252
   15SAPS  H14Y 1982   5.639   4.613   7.778 -0.9398 -0.0368 -3.7130
   15SAPS  C315 1983   5.449   4.588   7.885  0.7811  0.0262  0.1339
   15SAPS  H15X 1984   5.400   4.513   7.818 -0.3100  1.2223 -0.4648
   15SAPS  H15Y 1985   5.365   4.652   7.921 -0.9791 -1.1487 -1.6257
   15SAPS  C316 1986   5.519   4.518   8.000  0.1631 -0.0497  0.7333
   15SAPS  H16X 1987   5.582   4.436   7.960 -0.2536  0.3014 -0.7000
   15SAPS  H16Y 1988   5.454   4.458   8.068  0.7854 -1.5973 -0.0067
   15SAPS  C317 1989   5.608   4.616   8.081  0.2113 -0.6460  0.2281
   15SAPS  H17X 1990   5.546   4.705   8.104  1.1897  0.1306 -0.0603
   15SAPS  H17Y 1991   5.689   4.659   8.018 -0.6315 -0.5197 -0.7965
   15SAPS  C318 1992   5.662   4.562   8.211 -0.7094  0.4588 -0.7909
   15SAPS  H18X 1993   5.743   4.493   8.177  1.5736  1.4633  2.1603
   15SAPS  H18Y 1994   5.595   4.508   8.282 -2.4891  3.2033 -0.2530
   15SAPS  H18Z 1995   5.720   4.631   8.275  0.6268 -1.7755  0.5546
   16SAPS     N 1996   2.352   6.525   6.285 -0.1812  0.9686 -0.4215
   16SAPS   HN1 1997   2.315   6.619   6.260  0.3072  1.4551  0.6210
   16SAPS   HN2 1998   2.350   6.465   6.201  1.7527  0.4922 -0.1642
   16SAPS   HN3 1999   2.294   6.483   6.360  0.7052 -0.9703 -0.7829
   16SAPS   C12 2000   2.491   6.540   6.336 -0.5146  0.4855 -0.6365
   16SAPS  H12A 2001   2.525   6.445   6.373 -0.8103  0.9920  1.0094
   16SAPS   C13 2002   2.588   6.586   6.230  0.0207 -0.3170 -0.1121
   16SAPS  O13A 2003   2.557   6.581   6.106 -0.3215  0.1012 -0.4519
   16SAPS  O13B 2004   2.704   6.612   6.269 -1.0236  0.7644  0.1836
   16SAPS   C11 2005   2.502   6.645   6.457  0.0999 -0.3411 -0.0690
   16SAPS  H11A 2006   2.490   6.748   6.418 -0.4458  0.1939  1.4481
   16SAPS  H11B 2007   2.603   6.633   6.503 -0.0914 -0.1628  0.3997
   16SAPS     P 2008   2.397   6.511   6.666  0.3039  0.4604  0.1250
   16SAPS   O13 2009   2.263   6.509   6.726  0.2097 -0.1063 -0.0821
   16SAPS   O14 2010   2.451   6.382   6.616  0.1599  0.1232 -0.5953
   16SAPS   O12 2011   2.405   6.630   6.559 -0.2512  0.3919  0.1721
   16SAPS   O11 2012   2.488   6.570   6.785  0.0942  0.5213 -0.2435
   16SAPS    C1 2013   2.488   6.709   6.820 -0.0188 -0.4177 -0.1550
   16SAPS    HA 2014   2.406   6.766   6.771  0.0705  0.1474  0.3482
   16SAPS    HB 2015   2.458   6.717   6.926 -0.7483 -0.3925 -0.3562
   16SAPS    C2 2016   2.626   6.772   6.798  0.3159  0.1589  0.0748
   16SAPS    HS 2017   2.641   6.779   6.689 -2.1656 -0.0663 -0.3547
   16SAPS   O21 2018   2.719   6.687   6.860  0.2777 -0.1908  0.2650
   16SAPS   C21 2019   2.845   6.697   6.808  0.0840  0.5660 -0.4689
   16SAPS   O22 2020   2.882   6.776   6.723  0.0196 -0.0836 -0.2349
   16SAPS   C22 2021   2.929   6.574   6.859  0.4678  0.5536 -0.3099
   16SAPS   H2R 2022   2.879   6.486   6.814  2.4549 -0.0581 -1.4735
   16SAPS   H2S 2023   3.032   6.578   6.818 -0.7513  1.4683 -3.5512
   16SAPS    C3 2024   2.631   6.912   6.858  0.0733 -0.7081 -0.0492
   16SAPS    HX 2025   2.564   6.977   6.798 -0.0856 -0.0450  0.8169
   16SAPS    HY 2026   2.731   6.955   6.836 -0.3215  1.0074  1.3167
   16SAPS   O31 2027   2.593   6.921   6.997  0.0105  0.4669  0.2696
   16SAPS   C31 2028   2.683   6.903   7.094 -0.5511 -0.1922  0.4293
   16SAPS   O32 2029   2.800   6.868   7.074  0.5482  0.2216 -0.1563
   16SAPS   C32 2030   2.618   6.912   7.236 -0.3023 -0.0940 -0.4031
   16SAPS   H2X 2031   2.573   6.811   7.246  2.3892 -1.4331 -0.8044
   16SAPS   H2Y 2032   2.549   6.999   7.235  1.7713  1.6314 -0.6956
   16SAPS   C23 2033   2.948   6.553   7.007 -0.1410  0.4603  0.5117
   16SAPS   H3R 2034   2.854   6.505   7.040 -0.7624 -0.8519 -2.7555
   16SAPS   H3S 2035   2.961   6.653   7.053  1.6799  0.5717 -0.1349
   16SAPS   C24 2036   3.058   6.458   7.048  0.5449  0.3410 -0.5034
   16SAPS   H4R 2037   3.062   6.475   7.158 -0.7420  1.5493 -0.6158
   16SAPS   H4S 2038   3.155   6.490   7.005  1.3755 -0.4491  0.7231
   16SAPS   C25 2039   3.036   6.321   6.996 -0.4214  0.4968 -0.0715
   16SAPS   H5R 2040   2.997   6.321   6.894 -0.2003  0.7297 -0.1575
   16SAPS   C26 2041   3.039   6.210   7.070  0.0295  0.9350 -0.0893
   16SAPS   H6R 2042   3.026   6.113   7.019  2.4759 -0.2096  1.2671
   16SAPS   C27 2043   3.065   6.195   7.217 -0.9474 -0.0237  0.8435
   16SAPS   H7R 2044   3.164   6.243   7.232 -1.2993  0.4133  1.8672
   16SAPS   H7S 2045   3.058   6.087   7.240 -2.4168 -0.8794 -2.9750
   16SAPS   C28 2046   2.958   6.251   7.302  0.8605  0.1469 -0.2213
   16SAPS   H8R 2047   2.861   6.260   7.252  0.9108 -0.8003 -0.5039
   16SAPS   C29 2048   2.973   6.279   7.432 -0.0249 -0.2328 -0.9336
   16SAPS   H9R 2049   2.887   6.326   7.483 -0.2780 -1.5028 -0.1477
   16SAPS  C210 2050   3.103   6.269   7.511  0.0036 -0.0697  0.0433
   16SAPS  H10R 2051   3.171   6.206   7.450  0.0024 -1.0255  0.9883
   16SAPS  H10S 2052   3.075   6.219   7.606 -1.8190  3.0429  1.3279
   16SAPS  C211 2053   3.171   6.401   7.546  0.3515 -0.0118 -0.4264
   16SAPS  H11R 2054   3.210   6.450   7.456 -0.3354 -0.4386 -0.9669
   16SAPS  C212 2055   3.169   6.465   7.661 -0.2513 -0.6879  0.0577
   16SAPS  H12R 2056   3.222   6.561   7.670 -1.6398  0.2967 -1.7321
   16SAPS  C213 2057   3.106   6.415   7.794  0.6195  0.0540 -0.7461
   16SAPS  H13R 2058   3.185   6.350   7.837 -1.7255 -3.1213 -0.9131
   16SAPS  H13S 2059   3.026   6.339   7.787  2.8728 -2.8120  1.8724
   16SAPS  C214 2060   3.068   6.511   7.899 -0.7288 -0.2028 -0.0780
   16SAPS  H14R 2061   2.963   6.545   7.902 -0.9934 -1.0436  0.5507
   16SAPS  C215 2062   3.147   6.574   7.993  0.5454  0.0460 -0.5937
   16SAPS  H15R 2063   3.095   6.631   8.071  1.6433 -0.1319  0.2879
   16SAPS  C216 2064   3.294   6.566   8.009  0.6711 -0.3666  0.0697
   16SAPS  H16R 2065   3.347   6.662   7.991  1.7504 -0.7313  1.1739
   16SAPS  H16S 2066   3.333   6.487   7.941  1.3676 -1.8851  2.1307
   16SAPS  C217 2067   3.336   6.527   8.151  0.1206  0.5418 -0.9810
   16SAPS  H17R 2068   3.306   6.607   8.222 -0.7954  1.2027 -2.0696
   16SAPS  H17S 2069   3.445   6.521   8.169 -0.2293  0.2110  1.3291
   16SAPS  C218 2070   3.281   6.388   8.201 -0.7289 -0.9145 -0.7321
   16SAPS  H18R 2071   3.295   6.309   8.124 -1.3575 -0.0708 -1.7345
   16SAPS  H18S 2072   3.172   6.388   8.223 -0.3201 -0.2656  1.6618
   16SAPS  C219 2073   3.352   6.350   8.338  0.3949  0.2890  0.2166
   16SAPS  H19R 2074   3.330   6.420   8.421 -0.1645 -0.6672  0.9040
   16SAPS  H19S 2075   3.462   6.354   8.329  0.5819 -2.7153  0.1413
   16SAPS  C220 2076   3.320   6.203   8.376  0.4318 -0.0212 -0.1105
   16SAPS  H20R 2077   3.358   6.132   8.300  0.5748 -0.8268  0.7033
   16SAPS  H20S 2078   3.210   6.206   8.395  0.3311 -0.3103 -0.6362
   16SAPS  H20T 2079   3.373   6.182   8.471  0.5887 -1.7497 -0.5468
   16SAPS   C33 2080   2.726   6.910   7.346  0.2166  0.4044  1.1172
   16SAPS   H3X 2081   2.788   6.999   7.321  0.2448  0.8203  2.5675
   16SAPS   H3Y 2082   2.792   6.821   7.343  0.1139  0.3648 -0.3807
   16SAPS   C34 2083   2.677   6.923   7.491  0.7232 -0.0124 -0.1760
   16SAPS   H4X 2084   2.596   6.849   7.509  0.5939 -1.0329 -4.0448
   16SAPS   H4Y 2085   2.639   7.026   7.508 -0.7892 -0.3383 -1.3758
   16SAPS   C35 2086   2.785   6.889   7.595 -0.1202 -0.1377 -0.2834
   16SAPS   H5X 2087   2.878   6.950   7.592 -0.0816 -0.2118 -0.6568
   16SAPS   H5Y 2088   2.820   6.786   7.572 -0.3951 -1.1848  3.4398
   16SAPS   C36 2089   2.730   6.902   7.735 -0.4613  0.0189  0.7177
   16SAPS   H6X 2090   2.652   6.822   7.740  2.2006 -2.8350 -0.2242
   16SAPS   H6Y 2091   2.668   6.990   7.761 -1.5174 -0.3558 -0.4378
   16SAPS   C37 2092   2.822   6.889   7.852 -0.8014  0.2153 -0.0927
   16SAPS   H7X 2093   2.921   6.915   7.810 -1.0808 -1.0160 -1.6107
   16SAPS   H7Y 2094   2.831   6.782   7.879  2.0379  0.4649  0.2449
   16SAPS   C38 2095   2.790   6.967   7.974  0.1695  0.2318 -0.0846
   16SAPS   H8X 2096   2.710   6.924   8.038  0.0583  1.1275  0.4010
   16SAPS   H8Y 2097   2.761   7.067   7.935  1.4262  1.3047  1.5894
   16SAPS   C39 2098   2.918   6.993   8.060 -0.5479 -0.1357  1.0717
   16SAPS   H9X 2099   2.898   7.096   8.098  0.0369  0.0645  0.8408
   16SAPS   H9Y 2100   3.008   7.013   7.998  0.0825  1.4085  2.3957
   16SAPS  C310 2101   2.940   6.885   8.169  0.5810 -0.2079 -0.1031
   16SAPS  H10X 2102   2.968   6.797   8.107  1.0644  1.0594 -1.7558
   16SAPS  H10Y 2103   2.846   6.862   8.223  0.0057  0.9008 -0.6149
   16SAPS  C311 2104   3.041   6.931   8.275  0.0655  0.5446 -1.0827
   16SAPS  H11X 2105   2.995   7.016   8.329 -1.3498 -0.2613 -0.9668
   16SAPS  H11Y 2106   3.132   6.964   8.220  2.0277  1.3692  2.3827
   16SAPS  C312 2107   3.096   6.822   8.377  0.3593  0.0849  0.3827
   16SAPS  H12X 2108   3.124   6.731   8.321 -0.7179 -0.1931  0.2791
   16SAPS  H12Y 2109   3.010   6.791   8.440  0.3381 -1.1841 -0.2460
   16SAPS  C313 2110   3.212   6.861   8.459  0.0923  0.1107 -1.0627
   16SAPS  H13X 2111   3.182   6.931   8.540 -1.1865  1.0383 -2.2899
   16SAPS  H13Y 2112   3.293   6.905   8.398  1.6297  1.3473  1.6863
   16SAPS  C314 2113   3.277   6.736   8.527 -0.0900  0.3835 -0.6339
   16SAPS  H14X 2114   3.307   6.662   8.449  0.8483  0.2750 -0.1922
   16SAPS  H14Y 2115   3.206   6.684   8.595  1.6528 -1.1039  0.1537
   16SAPS  C315 2116   3.393   6.772   8.621 -0.5514  0.0465 -0.2313
   16SAPS  H15X 2117   3.349   6.826   8.707  2.8808  1.6068  0.7174
   16SAPS  H15Y 2118   3.453   6.848   8.566 -0.9948  0.4903 -0.1008
   16SAPS  C316 2119   3.487   6.659   8.676  0.4616 -0.8167 -0.0185
   16SAPS  H16X 2120   3.417   6.585   8.720 -0.5392  0.3356  0.3527
   16SAPS  H16Y 2121   3.553   6.695   8.757  1.1159  0.3760 -1.0578
   16SAPS  C317 2122   3.578   6.611   8.562  0.5885  0.4482 -0.6447
   16SAPS  H17X 2123   3.645   6.694   8.530  0.3313  0.4252 -1.2660
   16SAPS  H17Y 2124   3.521   6.588   8.469 -2.0061 -1.0309  1.1483
   16SAPS  C318 2125   3.676   6.494   8.596 -0.2111  0.0841  0.1167
   16SAPS  H18X 2126   3.625   6.405   8.638  1.7410 -0.8317  0.6364
   16SAPS  H18Y 2127   3.742   6.530   8.677 -2.2178  3.7728  0.3190
   16SAPS  H18Z 2128   3.731   6.458   8.506 -1.3907  3.3599 -2.0749
   17SAPC     N 2129   1.799   4.786  11.054  0.6129  0.2509  0.1188
   17SAPC   C12 2130   1.695   4.894  11.045 -0.1906 -0.1812  0.4197
   17SAPC  H12A 2131   1.725   4.967  10.971 -1.8267  0.0231 -0.0968
   17SAPC  H12B 2132   1.690   4.946  11.140 -0.8779  0.3518  0.1108
   17SAPC   C13 2133   1.835   4.731  10.919  0.2674  0.2873  0.0590
   17SAPC  H13A 2134   1.916   4.660  10.934  0.4277  0.2260 -1.0198
   17SAPC  H13B 2135   1.756   4.675  10.871  0.0965 -0.1274  0.8112
   17SAPC  H13C 2136   1.869   4.808  10.851  2.7805  0.0107  0.8838
   17SAPC   C14 2137   1.931   4.839  11.114  0.1589 -0.2399  0.0449
   17SAPC  H14A 2138   1.959   4.937  11.077  1.1166  0.0855  1.5351
   17SAPC  H14B 2139   1.921   4.858  11.219 -1.4440  1.2376 -0.3317
   17SAPC  H14C 2140   2.014   4.770  11.106  0.3327  0.1089 -1.5932
   17SAPC   C15 2141   1.737   4.676  11.128  0.3418 -0.4672 -0.1340
   17SAPC  H15A 2142   1.656   4.632  11.072  1.0242  1.3154 -2.6852
   17SAPC  H15B 2143   1.819   4.606  11.127  1.2091  0.5152 -1.3777
   17SAPC  H15C 2144   1.699   4.702  11.226  1.3632 -0.3776  0.2496
   17SAPC   C11 2145   1.557   4.850  11.000 -0.0796 -0.1347 -0.2775
   17SAPC  H11A 2146   1.495   4.942  11.011  0.7150  0.4588 -0.6616
   17SAPC  H11B 2147   1.515   4.774  11.070 -0.7700  0.3591 -0.1353
   17SAPC     P 2148   1.556   4.894  10.751 -0.0430 -0.1553 -0.3870
   17SAPC   O13 2149   1.412   4.918  10.720 -0.4981  0.0801  0.1852
   17SAPC   O14 2150   1.642   5.009  10.789  0.1820 -0.1517  0.2590
   17SAPC   O12 2151   1.549   4.793  10.872  0.1961  0.3481 -0.0413
   17SAPC   O11 2152   1.613   4.808  10.634  0.2359 -0.2561 -0.2729
   17SAPC    C1 2153   1.671   4.885  10.524 -0.3960  0.0702  0.5965
   17SAPC    HA 2154   1.633   4.989  10.527 -3.3006 -0.9113  0.7051
   17SAPC    HB 2155   1.782   4.880  10.528 -0.3827 -0.1180  0.0405
   17SAPC    C2 2156   1.636   4.816  10.387  0.5820 -0.6197 -0.1636
   17SAPC    HS 2157   1.661   4.878  10.299  0.0370 -0.9169 -0.5345
   17SAPC   O21 2158   1.496   4.775  10.378 -0.1306  0.5182 -0.4920
   17SAPC   C21 2159   1.415   4.872  10.373  0.0452 -0.1205 -0.1906
   17SAPC   O22 2160   1.445   4.989  10.358 -0.2643  0.1073  0.1168
   17SAPC   C22 2161   1.267   4.826  10.378 -0.7004  0.6661 -0.5922
   17SAPC   H2R 2162   1.260   4.733  10.317 -0.2963  1.6833 -2.2558
   17SAPC   H2S 2163   1.256   4.792  10.483 -0.3900  0.4029 -0.6411
   17SAPC    C3 2164   1.720   4.693  10.359 -1.1206 -0.4077 -0.2817
   17SAPC    HX 2165   1.700   4.615  10.435  0.7328 -2.2454 -1.5494
   17SAPC    HY 2166   1.828   4.720  10.361 -0.9030 -0.9574 -2.4520
   17SAPC   O31 2167   1.701   4.632  10.225 -0.1880  0.3714  0.9268
   17SAPC   C31 2168   1.766   4.519  10.208  0.8321  0.1055 -0.2509
   17SAPC   O32 2169   1.834   4.464  10.295  0.2444 -0.4860  0.4148
   17SAPC   C32 2170   1.743   4.459  10.060 -0.4377 -0.1754 -0.0571
   17SAPC   H2X 2171   1.826   4.492   9.994 -0.8964 -2.3218 -1.8038
   17SAPC   H2Y 2172   1.649   4.500  10.017 -0.6498 -1.3944 -0.7784
   17SAPC   C23 2173   1.170   4.926  10.321 -0.7497  0.2657  0.5056
   17SAPC   H3R 2174   1.183   5.028  10.364 -0.9907 -0.0180  1.2693
   17SAPC   H3S 2175   1.071   4.885  10.351 -1.1423 -0.4020 -1.5423
   17SAPC   C24 2176   1.173   4.943  10.165  0.1169 -0.6910 -0.5671
   17SAPC   H4R 2177   1.273   4.983  10.141 -0.3979  0.7177 -0.4652
   17SAPC   H4S 2178   1.107   5.027  10.135 -0.8699 -0.0387  2.9582
   17SAPC   C25 2179   1.157   4.818  10.084 -0.3448 -0.6017  0.4290
   17SAPC   H5R 2180   1.056   4.793  10.046 -0.4234 -0.1793  0.3627
   17SAPC   C26 2181   1.252   4.746  10.018 -0.9815  0.5136  0.4423
   17SAPC   H6R 2182   1.214   4.662   9.958 -0.5791  0.6328  0.0140
   17SAPC   C27 2183   1.405   4.772  10.017 -0.0362 -0.5502  0.2653
   17SAPC   H7R 2184   1.437   4.666  10.020 -3.2605 -1.5851  1.8295
   17SAPC   H7S 2185   1.434   4.814  10.116 -0.4380  1.5610 -0.4667
   17SAPC   C28 2186   1.459   4.857   9.911 -0.3896  0.3000 -0.2706
   17SAPC   H8R 2187   1.488   4.959   9.939  1.1969 -0.4708  1.0129
   17SAPC   C29 2188   1.479   4.823   9.779 -0.0834 -0.9631  0.2499
   17SAPC   H9R 2189   1.512   4.908   9.717  2.4201 -0.6221  1.8752
   17SAPC  C210 2190   1.451   4.692   9.711 -0.4122  0.3035 -0.3656
   17SAPC  H10R 2191   1.355   4.705   9.656  0.0617  1.6796 -0.8993
   17SAPC  H10S 2192   1.422   4.613   9.783  0.8196 -0.4311 -0.6520
   17SAPC  C211 2193   1.559   4.632   9.626 -0.3976  0.1971  0.1500
   17SAPC  H11R 2194   1.653   4.628   9.683 -0.4679 -0.8667  0.2058
   17SAPC  C212 2195   1.545   4.574   9.500  0.1824  0.6689  0.6224
   17SAPC  H12R 2196   1.633   4.533   9.448 -1.4834 -0.2858 -1.6135
   17SAPC  C213 2197   1.412   4.573   9.420  0.4030 -0.2798  0.1421
   17SAPC  H13R 2198   1.394   4.678   9.387 -0.7782 -0.7146 -0.6434
   17SAPC  H13S 2199   1.327   4.548   9.486  0.0371  1.3673  0.3267
   17SAPC  C214 2200   1.420   4.477   9.297  0.5794  0.1857  0.2919
   17SAPC  H14R 2201   1.456   4.376   9.322  0.2780 -0.0710 -0.2735
   17SAPC  C215 2202   1.397   4.499   9.169 -0.2095 -0.2094  0.3248
   17SAPC  H15R 2203   1.381   4.415   9.099 -0.4924 -0.9494  1.2482
   17SAPC  C216 2204   1.366   4.639   9.110 -0.3848  0.2472 -0.2887
   17SAPC  H16R 2205   1.464   4.679   9.077  1.1793 -2.2403  1.0330
   17SAPC  H16S 2206   1.327   4.711   9.185 -1.5291 -2.5084  1.9527
   17SAPC  C217 2207   1.266   4.642   9.000 -0.5137 -0.2158  0.1105
   17SAPC  H17R 2208   1.177   4.578   9.018 -0.6900  0.0149  0.0634
   17SAPC  H17S 2209   1.315   4.609   8.906  0.7106 -1.1323  1.0429
   17SAPC  C218 2210   1.223   4.788   8.983  0.4147 -0.2586  0.3090
   17SAPC  H18R 2211   1.313   4.851   8.965 -0.1251 -0.0901 -2.0997
   17SAPC  H18S 2212   1.182   4.830   9.077  1.0645  0.0375  0.4645
   17SAPC  C219 2213   1.140   4.807   8.852  0.2924 -0.3462  0.4450
   17SAPC  H19R 2214   1.198   4.770   8.765 -1.6536 -3.9905  0.5160
   17SAPC  H19S 2215   1.121   4.915   8.833 -0.6996 -0.1896  2.0995
   17SAPC  C220 2216   1.014   4.737   8.864 -0.0346  0.7663 -0.5563
   17SAPC  H20R 2217   0.962   4.732   8.962 -1.9370  0.6954 -1.5229
   17SAPC  H20S 2218   1.012   4.633   8.826  1.4825  0.0492  1.1757
   17SAPC  H20T 2219   0.945   4.784   8.791 -0.2466  0.4003 -0.5956
   17SAPC   C33 2220   1.748   4.309  10.071  0.1994  0.4864  0.2069
   17SAPC   H3X 2221   1.674   4.273  10.146 -4.2607  1.2396 -3.3874
   17SAPC   H3Y 2222   1.852   4.272  10.089 -0.5141 -1.1779  1.1401
   17SAPC   C34 2223   1.709   4.238   9.937 -0.5152  0.5267  0.3595
   17SAPC   H4X 2224   1.605   4.264   9.906  0.1968  2.7755 -0.2893
   17SAPC   H4Y 2225   1.722   4.132   9.969  1.4109  1.1012  1.6095
   17SAPC   C35 2226   1.799   4.276   9.814  0.0293 -0.4261 -0.1022
   17SAPC   H5X 2227   1.907   4.260   9.835 -0.2607 -0.4508  1.5220
   17SAPC   H5Y 2228   1.782   4.377   9.770  0.3161 -0.7597 -0.9919
   17SAPC   C36 2229   1.773   4.182   9.695 -0.1273 -0.0608 -0.7013
   17SAPC   H6X 2230   1.664   4.192   9.678 -0.3146  1.5025  1.0469
   17SAPC   H6Y 2231   1.783   4.077   9.730 -1.0215 -0.7344 -2.3570
   17SAPC   C37 2232   1.850   4.203   9.568  0.3267 -0.5736  0.0673
   17SAPC   H7X 2233   1.959   4.194   9.588  0.9018  2.0448 -1.4130
   17SAPC   H7Y 2234   1.830   4.308   9.537  0.2512 -0.7487 -0.4710
   17SAPC   C38 2235   1.820   4.106   9.456  0.8773  0.4234 -0.6713
   17SAPC   H8X 2236   1.709   4.118   9.451  0.8766  1.0865  0.4386
   17SAPC   H8Y 2237   1.854   4.006   9.490  0.5596  0.9758  1.4570
   17SAPC   C39 2238   1.887   4.133   9.323 -0.0638 -0.3367 -0.4679
   17SAPC   H9X 2239   1.868   4.048   9.255  1.0727 -0.9382 -0.0520
   17SAPC   H9Y 2240   1.995   4.138   9.348 -0.9882 -2.4015  5.6304
   17SAPC  C310 2241   1.849   4.266   9.253 -0.3991 -0.4995 -0.1048
   17SAPC  H10X 2242   1.856   4.342   9.333 -2.3661  1.4755 -1.6531
   17SAPC  H10Y 2243   1.744   4.265   9.214 -0.4013  0.8636 -0.1728
   17SAPC  C311 2244   1.937   4.289   9.130 -0.1131  0.4355 -0.5010
   17SAPC  H11X 2245   2.039   4.253   9.157 -1.5022 -2.0030  2.1236
   17SAPC  H11Y 2246   1.932   4.395   9.100  0.9674  0.0094 -2.3153
   17SAPC  C312 2247   1.902   4.197   9.006 -0.0709 -0.9175  0.9127
   17SAPC  H12X 2248   1.814   4.233   8.949  2.1036  0.3121 -1.8935
   17SAPC  H12Y 2249   1.904   4.091   9.040  2.2944 -0.3947  2.7036
   17SAPC  C313 2250   2.015   4.210   8.904 -0.3354  0.3996 -0.1446
   17SAPC  H13X 2251   2.104   4.149   8.930 -0.7208 -0.3615 -0.5687
   17SAPC  H13Y 2252   2.047   4.316   8.896 -0.7727  0.4417 -1.6962
   17SAPC  C314 2253   1.973   4.145   8.775  0.2522  0.1535 -0.3224
   17SAPC  H14X 2254   1.891   4.200   8.724  1.3949  1.0940 -1.1870
   17SAPC  H14Y 2255   1.948   4.039   8.798  0.0452  0.1595 -0.5146
   17SAPC  C315 2256   2.083   4.142   8.673 -0.1195  0.5265 -0.9789
   17SAPC  H15X 2257   2.161   4.076   8.716 -0.9693  0.6740  0.9139
   17SAPC  H15Y 2258   2.113   4.247   8.651  2.2786  0.3020  0.8452
   17SAPC  C316 2259   2.033   4.090   8.533  0.3507 -0.4660 -0.7442
   17SAPC  H16X 2260   1.930   4.130   8.526  1.2555  2.1314 -0.3920
   17SAPC  H16Y 2261   2.011   3.981   8.535  0.6278 -0.5490 -1.6887
   17SAPC  C317 2262   2.113   4.137   8.412 -0.5001  0.0293  0.0374
   17SAPC  H17X 2263   2.076   4.240   8.391 -1.2256 -0.4819 -1.3694
   17SAPC  H17Y 2264   2.089   4.063   8.332 -1.1799  0.3880 -0.0998
   17SAPC  C318 2265   2.268   4.139   8.419  0.4877 -0.0606  0.4413
   17SAPC  H18X 2266   2.299   4.033   8.433  0.7657 -0.5153 -2.7841
   17SAPC  H18Y 2267   2.310   4.181   8.326  0.1058  2.7217  1.4331
   17SAPC  H18Z 2268   2.298   4.197   8.509 -0.1520 -1.0594  1.3356
   18SAPC     N 2269   6.288   6.382  10.760 -0.2174 -0.3582 -0.2601
   18SAPC   C12 2270   6.169   6.433  10.678 -0.0812  0.1510 -0.4829
   18SAPC  H12A 2271   6.196   6.518  10.618 -2.0253 -0.0963 -1.8197
   18SAPC  H12B 2272   6.083   6.467  10.734 -0.4243  0.4537 -1.1796
   18SAPC   C13 2273   6.249   6.255  10.830 -0.3420 -0.5813 -0.0816
   18SAPC  H13A 2274   6.195   6.187  10.765  1.2273 -1.2284 -0.7681
   18SAPC  H13B 2275   6.333   6.196  10.864 -0.2855 -0.5711 -0.2022
   18SAPC  H13C 2276   6.195   6.273  10.921  1.4425 -4.0366  1.8733
   18SAPC   C14 2277   6.401   6.361  10.666  0.3576 -0.9470 -0.7860
   18SAPC  H14A 2278   6.377   6.288  10.591 -2.1086 -2.1274  1.0006
   18SAPC  H14B 2279   6.424   6.455  10.618  0.9903 -0.8697 -0.3493
   18SAPC  H14C 2280   6.486   6.330  10.725  2.0866  1.5007 -1.8014
   18SAPC   C15 2281   6.337   6.482  10.861  1.7817  0.5001  0.6953
   18SAPC  H15A 2282   6.381   6.573  10.821  2.2742  0.9834  2.2557
   18SAPC  H15B 2283   6.245   6.509  10.910  0.5956 -0.3800 -0.9318
   18SAPC  H15C 2284   6.402   6.446  10.939 -0.8531 -0.8034  2.4305
   18SAPC   C11 2285   6.116   6.331  10.573 -0.5032  0.7863  0.0778
   18SAPC  H11A 2286   6.205   6.304  10.512 -0.3673  0.3090  0.4779
   18SAPC  H11B 2287   6.044   6.382  10.506 -1.6727  0.4789  1.0772
   18SAPC     P 2288   5.913   6.207  10.690 -0.2797  0.0500 -0.1396
   18SAPC   O13 2289   5.922   6.125  10.814 -0.4383  0.7453 -0.2101
   18SAPC   O14 2290   5.868   6.345  10.702 -0.0815  0.7994  0.0590
   18SAPC   O12 2291   6.060   6.211  10.631 -0.1368 -0.0593 -0.7602
   18SAPC   O11 2292   5.828   6.136  10.580  0.5494  0.0330 -0.3541
   18SAPC    C1 2293   5.702   6.181  10.529 -0.2949  0.6493  0.4410
   18SAPC    HA 2294   5.625   6.102  10.547  2.3128 -1.9790  0.7882
   18SAPC    HB 2295   5.668   6.276  10.576  0.9468  1.2322  0.1808
   18SAPC    C2 2296   5.698   6.197  10.367 -0.4945  0.4485 -0.1803
   18SAPC    HS 2297   5.593   6.177  10.337 -0.2339 -5.0895  1.4257
   18SAPC   O21 2298   5.790   6.103  10.304  0.2967 -0.7970  0.1462
   18SAPC   C21 2299   5.741   6.052  10.191  0.3108  0.7272 -0.3920
   18SAPC   O22 2300   5.629   6.076  10.150 -0.5269  0.2954  0.6271
   18SAPC   C22 2301   5.850   5.965  10.131  0.4444 -0.2989  0.0127
   18SAPC   H2R 2302   5.935   6.034  10.112 -0.9108  2.0196  1.8082
   18SAPC   H2S 2303   5.880   5.881  10.197  0.4710  1.0245  1.7677
   18SAPC    C3 2304   5.742   6.341  10.329 -0.6990 -0.1314 -1.2409
   18SAPC    HX 2305   5.845   6.359  10.367 -0.3669 -0.3232 -2.0407
   18SAPC    HY 2306   5.681   6.417  10.383  1.7410  0.5285  0.8480
   18SAPC   O31 2307   5.752   6.354  10.189  0.2236  0.1421 -0.4761
   18SAPC   C31 2308   5.641   6.393  10.131 -0.2017 -0.8497  0.9607
   18SAPC   O32 2309   5.539   6.434  10.185 -0.5065  0.2802 -0.6956
   18SAPC   C32 2310   5.667   6.375   9.979 -0.3837 -0.3350 -0.4622
   18SAPC   H2X 2311   5.671   6.265   9.964 -0.2572 -0.1801 -1.6656
   18SAPC   H2Y 2312   5.761   6.425   9.946 -2.2015  1.9853 -2.5263
   18SAPC   C23 2313   5.810   5.918   9.989  0.5609 -0.4581  0.2612
   18SAPC   H3R 2314   5.795   6.005   9.922  3.3136 -0.7806 -0.9062
   18SAPC   H3S 2315   5.709   5.872   9.986 -0.2731  1.2213  0.9812
   18SAPC   C24 2316   5.913   5.825   9.927 -0.0828  0.0595 -0.8532
   18SAPC   H4R 2317   5.952   5.745   9.993 -2.6092 -1.0020 -0.5497
   18SAPC   H4S 2318   5.991   5.893   9.886 -3.6105  4.5791 -0.8860
   18SAPC   C25 2319   5.857   5.743   9.810 -0.3514 -0.6682 -0.4469
   18SAPC   H5R 2320   5.827   5.640   9.833  0.2233 -0.8447 -0.4862
   18SAPC   C26 2321   5.873   5.782   9.676 -0.4109 -0.3892 -0.5396
   18SAPC   H6R 2322   5.839   5.707   9.602  2.0134 -0.9485 -1.1776
   18SAPC   C27 2323   5.938   5.901   9.618  0.2686 -0.0738 -0.2308
   18SAPC   H7R 2324   6.037   5.913   9.667 -1.0588 -0.0180  2.6386
   18SAPC   H7S 2325   5.878   5.993   9.636  0.4387 -0.4084  2.4124
   18SAPC   C28 2326   5.969   5.896   9.470  0.5425 -0.4398 -0.9473
   18SAPC   H8R 2327   6.032   5.811   9.442  0.1733 -1.3494  0.8693
   18SAPC   C29 2328   5.912   5.967   9.372  0.8460  0.2704  0.0775
   18SAPC   H9R 2329   5.958   5.948   9.274  1.2195 -1.9572  0.6209
   18SAPC  C210 2330   5.801   6.071   9.381 -0.2777  0.3627 -0.0579
   18SAPC  H10R 2331   5.826   6.155   9.312 -0.2535  0.4026 -0.0009
   18SAPC  H10S 2332   5.794   6.126   9.477 -4.0336  0.5811 -0.2920
   18SAPC  C211 2333   5.668   6.006   9.359 -0.4272 -0.5296 -0.1377
   18SAPC  H11R 2334   5.604   5.997   9.448 -0.9920 -1.4685 -0.6230
   18SAPC  C212 2335   5.625   5.940   9.248 -0.0923 -0.2042  0.1607
   18SAPC  H12R 2336   5.524   5.896   9.255 -0.7789  1.2519 -0.0105
   18SAPC  C213 2337   5.686   5.932   9.109  0.2771 -0.8014 -0.5993
   18SAPC  H13R 2338   5.762   6.013   9.101 -0.8449  0.0730 -3.5182
   18SAPC  H13S 2339   5.607   5.955   9.034 -1.9600 -1.0214  1.5755
   18SAPC  C214 2340   5.758   5.810   9.082  0.2515  0.0336  0.2903
   18SAPC  H14R 2341   5.821   5.762   9.159 -2.2796  0.8827  3.0641
   18SAPC  C215 2342   5.741   5.736   8.970 -0.1812 -0.6768  0.5719
   18SAPC  H15R 2343   5.813   5.654   8.956 -1.7628 -1.9059 -0.7928
   18SAPC  C216 2344   5.658   5.767   8.847  0.2959  0.2267 -0.2259
   18SAPC  H16R 2345   5.692   5.700   8.765  1.2298 -1.9092  1.7800
   18SAPC  H16S 2346   5.685   5.865   8.802  3.2410 -0.1211  0.5932
   18SAPC  C217 2347   5.509   5.757   8.853 -0.3096  0.5399  0.2606
   18SAPC  H17R 2348   5.470   5.811   8.942 -1.5439 -1.9825  1.3803
   18SAPC  H17S 2349   5.493   5.651   8.883  0.2865  0.1581 -0.7339
   18SAPC  C218 2350   5.435   5.793   8.717  0.0123 -0.1329  0.1815
   18SAPC  H18R 2351   5.475   5.895   8.695 -1.4162  0.5471  0.6334
   18SAPC  H18S 2352   5.328   5.796   8.744 -0.0974  0.1120 -0.2664
   18SAPC  C219 2353   5.455   5.699   8.597  0.6119 -0.1970  0.2034
   18SAPC  H19R 2354   5.558   5.717   8.561  0.5881  2.2004  1.1694
   18SAPC  H19S 2355   5.381   5.738   8.524  0.9775 -0.4312 -0.2994
   18SAPC  C220 2356   5.445   5.549   8.621 -0.4140 -0.2256 -0.1243
   18SAPC  H20R 2357   5.527   5.499   8.565  0.3623 -1.0257  1.6510
   18SAPC  H20S 2358   5.357   5.500   8.573  1.2975 -2.5252 -1.1047
   18SAPC  H20T 2359   5.435   5.532   8.731  0.7364  1.2803  0.2374
   18SAPC   C33 2360   5.541   6.414   9.888 -0.1841 -0.5691 -0.5721
   18SAPC   H3X 2361   5.509   6.517   9.915  0.3342 -0.6279  0.3136
   18SAPC   H3Y 2362   5.467   6.333   9.898  2.5425 -3.0527  1.2459
   18SAPC   C34 2363   5.577   6.394   9.742 -0.1484  0.5762 -1.3889
   18SAPC   H4X 2364   5.591   6.285   9.722 -1.2564 -0.1304  1.1568
   18SAPC   H4Y 2365   5.680   6.426   9.717 -0.1187  0.9882 -0.7698
   18SAPC   C35 2366   5.483   6.469   9.648 -0.2908  0.3592  0.0745
   18SAPC   H5X 2367   5.474   6.577   9.672  2.2260  0.4379  0.9681
   18SAPC   H5Y 2368   5.381   6.427   9.658 -0.2720  0.4105  0.5021
   18SAPC   C36 2369   5.542   6.474   9.504  0.1279  0.5775 -0.0203
   18SAPC   H6X 2370   5.652   6.490   9.507  0.1525  0.3717  2.2687
   18SAPC   H6Y 2371   5.496   6.568   9.467 -1.2429 -0.6451 -1.5730
   18SAPC   C37 2372   5.522   6.349   9.424 -0.2782  0.2289  0.5442
   18SAPC   H7X 2373   5.413   6.351   9.406  0.1588 -1.6764 -2.9895
   18SAPC   H7Y 2374   5.557   6.255   9.472 -0.9232 -0.2876  0.0032
   18SAPC   C38 2375   5.580   6.370   9.286 -0.3154 -0.5422 -0.8779
   18SAPC   H8X 2376   5.557   6.281   9.223 -2.0039 -0.3826 -0.5323
   18SAPC   H8Y 2377   5.691   6.374   9.293 -0.1235 -3.6422 -0.6570
   18SAPC   C39 2378   5.518   6.494   9.217 -0.2932 -0.4192  0.2340
   18SAPC   H9X 2379   5.548   6.587   9.269  3.7358 -0.4498 -1.6717
   18SAPC   H9Y 2380   5.408   6.491   9.204 -0.3292  1.7418 -0.2724
   18SAPC  C310 2381   5.584   6.516   9.079  0.2263  1.2271 -0.0169
   18SAPC  H10X 2382   5.584   6.418   9.027 -2.3560  1.1982 -0.1029
   18SAPC  H10Y 2383   5.690   6.546   9.092  0.4530  0.8694 -0.9252
   18SAPC  C311 2384   5.504   6.617   9.002 -0.0144 -0.5499  0.0510
   18SAPC  H11X 2385   5.507   6.713   9.058 -1.0188 -0.1738 -0.5059
   18SAPC  H11Y 2386   5.396   6.589   9.000 -0.5548  1.3846 -1.2218
   18SAPC  C312 2387   5.558   6.634   8.861  0.0191 -0.6512  0.1286
   18SAPC  H12X 2388   5.501   6.710   8.804  2.9686  1.6496  0.0199
   18SAPC  H12Y 2389   5.545   6.535   8.811  1.8911 -2.7048  3.3271
   18SAPC  C313 2390   5.709   6.676   8.836 -0.9066  0.2100  0.5720
   18SAPC  H13X 2391   5.756   6.575   8.832 -0.5559  0.4041 -0.9483
   18SAPC  H13Y 2392   5.749   6.748   8.910 -1.8462  2.7233 -1.2183
   18SAPC  C314 2393   5.727   6.751   8.696 -0.3123  0.0740  0.1689
   18SAPC  H14X 2394   5.836   6.764   8.682 -0.0524 -1.7283  0.3132
   18SAPC  H14Y 2395   5.681   6.852   8.686  0.7213  0.3896 -2.1118
   18SAPC  C315 2396   5.688   6.658   8.570 -0.8074  0.5338 -0.2039
   18SAPC  H15X 2397   5.680   6.733   8.488  0.2963  1.2172  0.2983
   18SAPC  H15Y 2398   5.589   6.610   8.589  0.4723 -3.5786 -2.6626
   18SAPC  C316 2399   5.788   6.551   8.528 -0.0083  0.0977 -0.2759
   18SAPC  H16X 2400   5.791   6.494   8.623  0.1958  1.1555  0.3677
   18SAPC  H16Y 2401   5.884   6.601   8.504  0.6557 -0.6337  0.7387
   18SAPC  C317 2402   5.742   6.468   8.404 -0.1643 -0.2519  0.0007
   18SAPC  H17X 2403   5.729   6.535   8.317 -1.7921 -1.4712 -0.7414
   18SAPC  H17Y 2404   5.643   6.419   8.419  0.2617 -0.3352  3.5941
   18SAPC  C318 2405   5.852   6.375   8.358 -0.7549 -0.0700  0.4707
   18SAPC  H18X 2406   5.899   6.313   8.438 -0.7123  0.0349  0.5276
   18SAPC  H18Y 2407   5.932   6.440   8.318 -0.5823 -0.6457 -0.1244
   18SAPC  H18Z 2408   5.814   6.300   8.286  0.3511 -0.1884  0.0009
   19SAPC     N 2409   3.517   2.595  10.754  0.2220  0.5315  0.0848
   19SAPC   C12 2410   3.464   2.511  10.633 -0.3459  0.3966  0.2504
   19SAPC  H12A 2411   3.459   2.407  10.662 -0.1787  0.8242  1.9220
   19SAPC  H12B 2412   3.536   2.527  10.555  0.6393 -1.4121  0.7273
   19SAPC   C13 2413   3.437   2.573  10.875 -1.1214  0.1794 -0.5762
   19SAPC  H13A 2414   3.465   2.637  10.957  2.0767 -2.1285  0.3058
   19SAPC  H13B 2415   3.332   2.591  10.857 -0.7406  0.5196 -2.7982
   19SAPC  H13C 2416   3.433   2.470  10.907  0.2568  0.0553 -0.7737
   19SAPC   C14 2417   3.657   2.557  10.790 -0.6876  0.1200 -0.2022
   19SAPC  H14A 2418   3.719   2.567  10.702 -1.2458  0.5903 -0.5471
   19SAPC  H14B 2419   3.699   2.626  10.861  0.0791 -2.6388  2.2231
   19SAPC  H14C 2420   3.670   2.457  10.830  2.4604 -0.0993 -1.4421
   19SAPC   C15 2421   3.512   2.735  10.720  0.5709  0.8905 -0.1204
   19SAPC  H15A 2422   3.552   2.801  10.796  1.1392  0.0610  0.3192
   19SAPC  H15B 2423   3.573   2.740  10.631 -1.1682 -1.6620 -1.6201
   19SAPC  H15C 2424   3.410   2.761  10.698 -0.2981 -2.1613 -0.2213
   19SAPC   C11 2425   3.324   2.545  10.590  0.1747  0.6408 -0.3954
   19SAPC  H11A 2426   3.258   2.562  10.678  0.7689  0.9247  0.0076
   19SAPC  H11B 2427   3.291   2.454  10.535  3.1237 -0.8188  0.0425
   19SAPC     P 2428   3.205   2.754  10.488  0.0512 -0.4486 -0.3222
   19SAPC   O13 2429   3.178   2.808  10.627  0.0710  0.0719 -0.2035
   19SAPC   O14 2430   3.229   2.838  10.368  0.0356 -0.0235 -0.7789
   19SAPC   O12 2431   3.327   2.660  10.503  0.5273  0.1731 -0.7800
   19SAPC   O11 2432   3.090   2.650  10.456 -0.1379  0.6052 -0.1011
   19SAPC    C1 2433   3.103   2.561  10.335  0.3934  0.9781 -0.1734
   19SAPC    HA 2434   3.184   2.579  10.262  0.1664 -0.4421 -0.8106
   19SAPC    HB 2435   3.109   2.456  10.370  0.5146  0.8694 -0.5246
   19SAPC    C2 2436   2.959   2.561  10.264  0.6803 -0.2116 -0.3787
   19SAPC    HS 2437   2.883   2.594  10.339 -1.6911 -3.4135 -1.1648
   19SAPC   O21 2438   2.928   2.427  10.229 -0.1004 -0.6769  0.0703
   19SAPC   C21 2439   2.802   2.393  10.218 -0.3901  0.4031  0.0952
   19SAPC   O22 2440   2.706   2.457  10.254 -0.1233  0.0293 -0.0932
   19SAPC   C22 2441   2.788   2.264  10.134  0.5565  1.2042  0.1544
   19SAPC   H2R 2442   2.875   2.256  10.066 -1.1856 -2.2161 -2.0033
   19SAPC   H2S 2443   2.793   2.179  10.205  1.5466  1.7941  0.8104
   19SAPC    C3 2444   2.955   2.648  10.135  0.3554  0.4341  0.6834
   19SAPC    HX 2445   3.022   2.594  10.064 -0.7354 -1.3274  0.9449
   19SAPC    HY 2446   2.997   2.746  10.168  0.9347  0.0187  1.2132
   19SAPC   O31 2447   2.824   2.661  10.068 -0.1333  0.5292  0.4356
   19SAPC   C31 2448   2.747   2.750  10.131  1.1747  0.7219  1.1138
   19SAPC   O32 2449   2.773   2.820  10.222 -0.5950  0.7702 -0.8432
   19SAPC   C32 2450   2.605   2.704  10.091 -0.5182  0.1641 -0.3507
   19SAPC   H2X 2451   2.558   2.642  10.170 -1.3773  1.3892  0.1284
   19SAPC   H2Y 2452   2.607   2.641   9.999 -3.6346 -0.0669 -0.3805
   19SAPC   C23 2453   2.662   2.250  10.054  0.0284  0.4025 -0.7215
   19SAPC   H3R 2454   2.646   2.324   9.972 -1.1147  0.6916 -0.2564
   19SAPC   H3S 2455   2.583   2.278  10.126  1.1326 -0.1719  0.7653
   19SAPC   C24 2456   2.638   2.111   9.996  0.2558 -0.2691  0.4023
   19SAPC   H4R 2457   2.530   2.105   9.972  0.0874  0.8742  0.7860
   19SAPC   H4S 2458   2.645   2.041  10.082  0.7244 -0.3905  0.2686
   19SAPC   C25 2459   2.740   2.075   9.889  0.2784 -0.5305 -0.1876
   19SAPC   H5R 2460   2.824   2.014   9.927  1.9687  1.3614 -0.7475
   19SAPC   C26 2461   2.740   2.119   9.764  0.0500  0.0757 -0.2934
   19SAPC   H6R 2462   2.820   2.081   9.700  0.9187  0.8737  0.2973
   19SAPC   C27 2463   2.653   2.221   9.698  0.0166 -0.7528 -0.1579
   19SAPC   H7R 2464   2.560   2.235   9.758 -0.5499  0.7620 -1.3474
   19SAPC   H7S 2465   2.624   2.178   9.600  2.8019  0.8738 -1.8299
   19SAPC   C28 2466   2.720   2.357   9.672  0.2998  0.0437  0.1838
   19SAPC   H8R 2467   2.749   2.421   9.757  2.2392  1.6136 -1.5541
   19SAPC   C29 2468   2.748   2.409   9.550 -0.2081  0.7171  0.5452
   19SAPC   H9R 2469   2.809   2.501   9.544  1.8607 -0.6459 -0.5008
   19SAPC  C210 2470   2.715   2.343   9.421 -0.7751 -0.3673 -0.6426
   19SAPC  H10R 2471   2.629   2.275   9.437 -1.4614  0.3596 -1.1589
   19SAPC  H10S 2472   2.803   2.279   9.397 -1.2438  0.0807 -3.9511
   19SAPC  C211 2473   2.687   2.438   9.308 -1.0374 -0.0189  0.1920
   19SAPC  H11R 2474   2.730   2.539   9.320 -1.0538 -0.2786  3.2859
   19SAPC  C212 2475   2.614   2.397   9.199  0.8922  0.3193  0.0744
   19SAPC  H12R 2476   2.604   2.465   9.113 -2.1049 -0.3363 -0.2045
   19SAPC  C213 2477   2.543   2.264   9.168  0.0814  0.4694 -0.0169
   19SAPC  H13R 2478   2.547   2.199   9.258  0.0154  0.7355  0.1806
   19SAPC  H13S 2479   2.611   2.212   9.098  0.7180  0.2519  0.7520
   19SAPC  C214 2480   2.400   2.289   9.120 -0.2393 -0.3762 -0.3753
   19SAPC  H14R 2481   2.332   2.334   9.195  1.3789  0.1499  0.8287
   19SAPC  C215 2482   2.348   2.283   8.995  0.4807  0.6693 -0.1524
   19SAPC  H15R 2483   2.244   2.314   8.982  0.3313  1.0862  1.7729
   19SAPC  C216 2484   2.424   2.231   8.867  0.4038  0.2664 -0.2546
   19SAPC  H16R 2485   2.506   2.169   8.910 -0.1270  1.1554  2.2002
   19SAPC  H16S 2486   2.471   2.320   8.820 -0.2881 -0.4126 -2.3355
   19SAPC  C217 2487   2.356   2.148   8.757 -0.1254  0.0523  0.5527
   19SAPC  H17R 2488   2.282   2.207   8.701 -2.0738 -2.7942 -0.1040
   19SAPC  H17S 2489   2.311   2.056   8.800 -0.3660  0.8050  1.9703
   19SAPC  C218 2490   2.462   2.096   8.659  0.4954 -0.5099  0.6650
   19SAPC  H18R 2491   2.553   2.062   8.713  0.4058  0.1076  1.2218
   19SAPC  H18S 2492   2.503   2.177   8.595  0.0434 -0.0872  0.8980
   19SAPC  C219 2493   2.409   1.980   8.570 -0.3129  0.0988 -0.3745
   19SAPC  H19R 2494   2.314   2.006   8.520 -0.9876 -0.1484  0.7442
   19SAPC  H19S 2495   2.379   1.891   8.630 -1.4420  0.0535 -0.9893
   19SAPC  C220 2496   2.516   1.928   8.473 -0.0058 -0.4246 -0.0569
   19SAPC  H20R 2497   2.607   1.913   8.534 -1.0564 -0.3646  1.5915
   19SAPC  H20S 2498   2.527   1.997   8.387 -0.5406  1.3939  1.2913
   19SAPC  H20T 2499   2.477   1.829   8.439 -0.8147 -0.6858  1.5581
   19SAPC   C33 2500   2.519   2.824  10.044 -0.6589 -0.8708 -0.9835
   19SAPC   H3X 2501   2.555   2.874   9.952 -1.1236  0.9477 -0.2034
   19SAPC   H3Y 2502   2.519   2.903  10.121 -1.2815  0.0671 -1.9287
   19SAPC   C34 2503   2.375   2.787  10.025  0.9511  0.2169  0.1616
   19SAPC   H4X 2504   2.325   2.786  10.124  2.1538 -2.2787  0.8105
   19SAPC   H4Y 2505   2.375   2.681   9.992  0.1478  0.5248 -0.8806
   19SAPC   C35 2506   2.299   2.861   9.921 -0.3791  0.0668 -0.1567
   19SAPC   H5X 2507   2.317   2.968   9.946  0.9560  0.0334 -0.8964
   19SAPC   H5Y 2508   2.190   2.843   9.933 -0.5995  2.1321  1.5233
   19SAPC   C36 2509   2.338   2.828   9.778 -0.0193  0.1471 -0.8928
   19SAPC   H6X 2510   2.348   2.718   9.763 -1.8568 -0.2008  0.1825
   19SAPC   H6Y 2511   2.439   2.866   9.751 -0.4182  0.7753 -1.4984
   19SAPC   C37 2512   2.226   2.870   9.677 -0.2489 -0.3104  0.0492
   19SAPC   H7X 2513   2.170   2.956   9.720 -1.0592  0.0027 -1.5788
   19SAPC   H7Y 2514   2.149   2.793   9.659 -0.8275  0.6088 -1.5498
   19SAPC   C38 2515   2.282   2.888   9.531 -0.4327  0.3050 -0.1764
   19SAPC   H8X 2516   2.306   2.788   9.489  1.2128  1.3391 -1.8975
   19SAPC   H8Y 2517   2.370   2.955   9.525 -1.1523  1.2387 -0.6751
   19SAPC   C39 2518   2.175   2.950   9.441  0.4293  0.3304 -0.1575
   19SAPC   H9X 2519   2.141   3.047   9.483  0.5384  0.1559  0.3470
   19SAPC   H9Y 2520   2.095   2.872   9.442 -0.6392  1.4021  0.0754
   19SAPC  C310 2521   2.222   2.967   9.296  0.4068 -0.6117 -0.0512
   19SAPC  H10X 2522   2.312   3.031   9.289  1.1934 -1.7156 -0.2154
   19SAPC  H10Y 2523   2.143   3.023   9.242  1.6659  3.1887  1.6706
   19SAPC  C311 2524   2.259   2.827   9.226 -0.4227  0.7995  0.1021
   19SAPC  H11X 2525   2.168   2.777   9.188 -1.3206  1.0054  1.8572
   19SAPC  H11Y 2526   2.313   2.757   9.294 -2.2002  2.0796  3.0437
   19SAPC  C312 2527   2.364   2.843   9.105  0.0393 -0.0305 -0.4069
   19SAPC  H12X 2528   2.431   2.914   9.159  0.4120 -0.5007 -0.2459
   19SAPC  H12Y 2529   2.314   2.888   9.017 -0.6892  0.4926  0.2681
   19SAPC  C313 2530   2.439   2.713   9.081 -0.0856 -0.1669  0.3194
   19SAPC  H13X 2531   2.372   2.633   9.120 -0.0678 -0.6721 -0.6823
   19SAPC  H13Y 2532   2.536   2.712   9.135 -0.0827  0.4536  0.3422
   19SAPC  C314 2533   2.478   2.702   8.936 -0.5409  0.0187 -0.3612
   19SAPC  H14X 2534   2.397   2.729   8.864 -2.7231  0.6016  2.1457
   19SAPC  H14Y 2535   2.491   2.593   8.917 -1.7572 -0.0481 -0.9042
   19SAPC  C315 2536   2.603   2.785   8.896  0.6098 -0.8212  0.4607
   19SAPC  H15X 2537   2.688   2.777   8.967  2.5797  0.3114 -1.6084
   19SAPC  H15Y 2538   2.583   2.895   8.894  0.7403 -0.8031 -0.6768
   19SAPC  C316 2539   2.655   2.746   8.752 -0.7191  0.3677 -0.2932
   19SAPC  H16X 2540   2.614   2.643   8.738 -1.6381  0.8364 -1.2630
   19SAPC  H16Y 2541   2.765   2.754   8.744 -0.8913  2.0058 -1.4168
   19SAPC  C317 2542   2.600   2.838   8.641 -1.1089 -0.1404 -0.2388
   19SAPC  H17X 2543   2.501   2.872   8.679 -1.3022  2.2051 -2.5575
   19SAPC  H17Y 2544   2.576   2.781   8.549 -0.8250  2.1470 -1.7831
   19SAPC  C318 2545   2.687   2.957   8.605 -0.6864 -0.4360 -0.5408
   19SAPC  H18X 2546   2.705   3.021   8.694 -2.0618  1.5042 -1.6044
   19SAPC  H18Y 2547   2.643   3.019   8.524  1.6963  0.1253 -1.4991
   19SAPC  H18Z 2548   2.791   2.924   8.582  0.4520  0.1137  3.0903
   20SAPC     N 2549   6.205   3.616  11.025  0.0838 -0.2390 -0.7710
   20SAPC   C12 2550   6.194   3.621  10.869  0.0772  0.0494 -0.1096
   20SAPC  H12A 2551   6.210   3.524  10.824 -1.0345 -0.1473 -0.1217
   20SAPC  H12B 2552   6.265   3.692  10.829 -1.4209  2.6263  1.5387
   20SAPC   C13 2553   6.351   3.595  11.070  0.0180  0.1196  0.3657
   20SAPC  H13A 2554   6.407   3.667  11.012 -2.2760  0.9045 -1.0038
   20SAPC  H13B 2555   6.353   3.609  11.177 -2.6216 -0.9979  0.6542
   20SAPC  H13C 2556   6.375   3.495  11.037 -1.7522 -0.1435 -0.2737
   20SAPC   C14 2557   6.169   3.752  11.088 -0.5471  0.1939 -0.1464
   20SAPC  H14A 2558   6.246   3.816  11.046 -1.1437 -0.0392 -1.6455
   20SAPC  H14B 2559   6.071   3.782  11.055 -1.4354 -2.1380  0.1894
   20SAPC  H14C 2560   6.171   3.744  11.196 -0.2025 -1.2945 -0.2451
   20SAPC   C15 2561   6.123   3.505  11.079 -0.0176 -0.1401  0.8815
   20SAPC  H15A 2562   6.146   3.414  11.026  2.3993  0.5250  0.6791
   20SAPC  H15B 2563   6.133   3.491  11.185 -3.1557 -0.4964  1.2379
   20SAPC  H15C 2564   6.020   3.533  11.064 -0.1065  0.2942  2.1721
   20SAPC   C11 2565   6.054   3.648  10.819 -0.3732  0.2486  0.7649
   20SAPC  H11A 2566   5.984   3.579  10.872 -2.0728 -0.2998 -2.0142
   20SAPC  H11B 2567   6.046   3.622  10.712  1.9041 -0.0516  0.6312
   20SAPC     P 2568   6.064   3.901  10.754 -0.3650  0.2784  0.1324
   20SAPC   O13 2569   6.012   4.033  10.802  0.1273  0.4759 -0.2985
   20SAPC   O14 2570   6.214   3.892  10.749  0.7356  0.0698  0.2419
   20SAPC   O12 2571   6.005   3.785  10.842 -0.3819 -0.5013 -0.4170
   20SAPC   O11 2572   6.012   3.868  10.612 -0.3200  0.3279  0.3114
   20SAPC    C1 2573   5.873   3.883  10.576  0.5183 -0.1419  0.3708
   20SAPC    HA 2574   5.814   3.792  10.597  0.5984 -0.2489  0.1332
   20SAPC    HB 2575   5.832   3.971  10.630  0.2006 -1.4712  2.4032
   20SAPC    C2 2576   5.853   3.893  10.421  0.1754  0.3391 -0.2431
   20SAPC    HS 2577   5.761   3.951  10.402  0.5489  0.7263 -0.9311
   20SAPC   O21 2578   5.861   3.772  10.354 -0.0637  0.3955 -0.6007
   20SAPC   C21 2579   5.739   3.708  10.361 -0.4359  0.1013  0.4938
   20SAPC   O22 2580   5.643   3.750  10.413  1.2808  0.1084 -0.3760
   20SAPC   C22 2581   5.752   3.588  10.265 -0.2416  0.5169  0.1242
   20SAPC   H2R 2582   5.713   3.614  10.164 -0.2556 -0.3338 -0.0981
   20SAPC   H2S 2583   5.858   3.557  10.256  0.0309  0.2747  3.2562
   20SAPC    C3 2584   5.960   3.995  10.363 -0.7899  0.5949  0.0466
   20SAPC    HX 2585   6.060   3.957  10.392 -0.8591 -0.3420 -0.8878
   20SAPC    HY 2586   5.952   4.094  10.413  1.2561  0.1078  1.4825
   20SAPC   O31 2587   5.939   4.010  10.222  0.3975  0.3031 -0.7045
   20SAPC   C31 2588   6.051   3.990  10.151 -0.3328 -0.1065 -0.2637
   20SAPC   O32 2589   6.165   3.976  10.192 -0.4590  0.3708 -0.3540
   20SAPC   C32 2590   5.997   3.945  10.010  0.3238 -0.5687  0.0351
   20SAPC   H2X 2591   5.960   4.035   9.956  1.3549 -0.6885 -0.9149
   20SAPC   H2Y 2592   5.906   3.883  10.027 -0.2005  0.1918  0.0243
   20SAPC   C23 2593   5.666   3.465  10.317  0.1607 -0.0570  0.7541
   20SAPC   H3R 2594   5.563   3.506  10.323  1.1465  2.3639  2.4530
   20SAPC   H3S 2595   5.697   3.439  10.421  0.5654 -2.1405  0.1672
   20SAPC   C24 2596   5.673   3.342  10.226 -0.2490 -0.6176  0.4810
   20SAPC   H4R 2597   5.782   3.323  10.236  0.0751  1.0931  0.4969
   20SAPC   H4S 2598   5.663   3.386  10.124  1.2463  0.8312  0.9095
   20SAPC   C25 2599   5.578   3.230  10.268  0.2939  0.0080  0.1443
   20SAPC   H5R 2600   5.470   3.253  10.258 -0.0938 -1.0526  1.6676
   20SAPC   C26 2601   5.606   3.099  10.287 -0.2329 -0.5975  0.9460
   20SAPC   H6R 2602   5.522   3.037  10.323  0.2802 -1.2337  1.0710
   20SAPC   C27 2603   5.742   3.036  10.284 -0.4192  0.5063 -0.5210
   20SAPC   H7R 2604   5.794   3.062  10.189  1.0129 -0.0913  0.0621
   20SAPC   H7S 2605   5.736   2.925  10.277  2.3715  0.3070 -1.2002
   20SAPC   C28 2606   5.826   3.091  10.395 -0.0785 -0.2239  0.9129
   20SAPC   H8R 2607   5.771   3.120  10.486 -0.5194 -1.1339  0.9475
   20SAPC   C29 2608   5.960   3.074  10.407 -0.5967  0.3074 -0.6571
   20SAPC   H9R 2609   6.004   3.103  10.503 -1.9749 -1.0094  0.4297
   20SAPC  C210 2610   6.045   3.005  10.301  0.6853 -0.3167 -0.3547
   20SAPC  H10R 2611   5.988   2.981  10.209  1.3439 -0.1456 -0.8127
   20SAPC  H10S 2612   6.078   2.905  10.339  1.8190 -0.0859 -0.7048
   20SAPC  C211 2613   6.172   3.077  10.278 -0.0172  0.4650  0.2075
   20SAPC  H11R 2614   6.256   3.036  10.336  0.7702  0.1816 -1.1062
   20SAPC  C212 2615   6.189   3.180  10.191 -0.3840  0.3212 -0.0123
   20SAPC  H12R 2616   6.293   3.206  10.165  0.5086 -1.8544  1.1066
   20SAPC  C213 2617   6.087   3.240  10.101 -0.2721 -0.0612 -0.2736
   20SAPC  H13R 2618   5.991   3.188  10.122 -1.9628  3.4733  1.6992
   20SAPC  H13S 2619   6.121   3.218   9.997  0.6591 -0.5887  0.1305
   20SAPC  C214 2620   6.060   3.383  10.126 -0.8201  1.2546  0.1038
   20SAPC  H14R 2621   6.057   3.413  10.232 -0.0990  1.3165  0.1128
   20SAPC  C215 2622   6.037   3.481  10.037  0.2356 -0.0403  0.6394
   20SAPC  H15R 2623   6.015   3.581  10.079  0.9389  0.6247 -0.5160
   20SAPC  C216 2624   6.032   3.478   9.890  1.0130 -0.0998  0.0402
   20SAPC  H16R 2625   6.074   3.382   9.855  1.6582  1.0950 -2.6839
   20SAPC  H16S 2626   6.084   3.564   9.842  1.3271  0.0010  0.5480
   20SAPC  C217 2627   5.890   3.476   9.836  0.2826 -1.1240 -0.1368
   20SAPC  H17R 2628   5.839   3.567   9.874 -0.8159 -0.6040 -2.6023
   20SAPC  H17S 2629   5.838   3.387   9.877 -2.1909  0.7890  1.1838
   20SAPC  C218 2630   5.880   3.496   9.682 -0.2965  0.6126 -0.0030
   20SAPC  H18R 2631   5.920   3.407   9.630 -0.5942 -0.5196  1.6419
   20SAPC  H18S 2632   5.951   3.576   9.650  0.6474 -0.3494 -0.3586
   20SAPC  C219 2633   5.740   3.509   9.633 -0.3405  0.2124  0.6134
   20SAPC  H19R 2634   5.684   3.591   9.682  0.8523  2.4829 -1.5800
   20SAPC  H19S 2635   5.681   3.416   9.649 -2.5225  1.4573  0.2077
   20SAPC  C220 2636   5.744   3.539   9.481  0.1677  0.2169 -0.3001
   20SAPC  H20R 2637   5.649   3.587   9.447 -0.3351  0.0916  0.8948
   20SAPC  H20S 2638   5.763   3.454   9.413 -1.1504  0.0921 -0.5387
   20SAPC  H20T 2639   5.826   3.610   9.456  0.6296 -0.3058 -0.2712
   20SAPC   C33 2640   6.105   3.886   9.925 -0.4230  0.1073  0.2945
   20SAPC   H3X 2641   6.143   3.786   9.958 -1.0299  0.4278  2.1106
   20SAPC   H3Y 2642   6.194   3.951   9.934  0.5874 -0.7368 -2.6871
   20SAPC   C34 2643   6.073   3.873   9.773  0.3245  0.2251 -0.2529
   20SAPC   H4X 2644   5.990   3.800   9.760 -0.7146  1.6629 -2.3495
   20SAPC   H4Y 2645   6.157   3.826   9.718  0.4740 -0.4226  0.5190
   20SAPC   C35 2646   6.055   4.004   9.694  0.0341 -0.0576 -0.5074
   20SAPC   H5X 2647   6.135   4.073   9.729 -0.6440  0.4884 -0.0159
   20SAPC   H5Y 2648   5.954   4.044   9.717 -0.5618 -2.2100  0.9995
   20SAPC   C36 2649   6.086   3.978   9.545  0.0904 -0.4797 -0.0789
   20SAPC   H6X 2650   5.997   3.928   9.499 -0.6358  1.4323 -0.8621
   20SAPC   H6Y 2651   6.177   3.915   9.541 -1.0196 -2.1767  0.4391
   20SAPC   C37 2652   6.105   4.110   9.472  0.2712 -0.0561  0.0468
   20SAPC   H7X 2653   6.168   4.172   9.540 -1.4947 -0.2787  1.9947
   20SAPC   H7Y 2654   6.006   4.156   9.451 -1.5061 -3.3356  0.5630
   20SAPC   C38 2655   6.174   4.092   9.338  0.1526 -0.5391 -0.0621
   20SAPC   H8X 2656   6.123   4.013   9.279  3.0283 -0.8111 -2.4742
   20SAPC   H8Y 2657   6.276   4.051   9.357 -0.3675 -2.8139 -1.7241
   20SAPC   C39 2658   6.189   4.217   9.249  0.3240  0.0388 -0.8567
   20SAPC   H9X 2659   6.254   4.289   9.304  0.4209 -0.6748 -0.0162
   20SAPC   H9Y 2660   6.086   4.259   9.240  0.1245  0.0461  1.0565
   20SAPC  C310 2661   6.260   4.191   9.115  0.1146  1.1146 -0.2349
   20SAPC  H10X 2662   6.205   4.114   9.056  1.5217  1.4681 -2.1115
   20SAPC  H10Y 2663   6.366   4.159   9.130 -0.2040  0.2891  0.3368
   20SAPC  C311 2664   6.282   4.325   9.041 -0.4220 -0.4177  0.0765
   20SAPC  H11X 2665   6.357   4.386   9.096  0.2354  3.0598 -4.1081
   20SAPC  H11Y 2666   6.187   4.382   9.044  1.4474  2.9223  1.7374
   20SAPC  C312 2667   6.335   4.314   8.899 -0.4487 -0.3948 -0.4780
   20SAPC  H12X 2668   6.333   4.408   8.839  0.5027  0.3097  0.5521
   20SAPC  H12Y 2669   6.268   4.240   8.851  0.5869 -2.0072  0.4821
   20SAPC  C313 2670   6.480   4.265   8.894 -0.3522  0.3210 -0.2010
   20SAPC  H13X 2671   6.487   4.235   8.788 -0.5193 -2.7363  0.5504
   20SAPC  H13Y 2672   6.502   4.174   8.955  0.1146  0.2410 -0.4831
   20SAPC  C314 2673   6.586   4.376   8.912 -0.3720  0.0178 -0.5063
   20SAPC  H14X 2674   6.602   4.397   9.020 -0.6840 -0.1750 -0.4221
   20SAPC  H14Y 2675   6.536   4.461   8.861 -0.6630 -0.0424 -0.3307
   20SAPC  C315 2676   6.724   4.360   8.844  0.0013  0.5902 -0.2533
   20SAPC  H15X 2677   6.763   4.463   8.835 -3.8907  2.1990 -0.5853
   20SAPC  H15Y 2678   6.714   4.323   8.740 -2.7916 -0.4878  0.3065
   20SAPC  C316 2679   6.817   4.272   8.932 -0.5269 -0.6908  0.4579
   20SAPC  H16X 2680   6.770   4.172   8.932 -2.6558  0.2538  0.3817
   20SAPC  H16Y 2681   6.808   4.325   9.030 -0.0861 -0.7012  0.5050
   20SAPC  C317 2682   6.965   4.274   8.891  0.1761 -0.1073  0.1538
   20SAPC  H17X 2683   7.028   4.258   8.981 -2.1104 -0.2378  1.8204
   20SAPC  H17Y 2684   6.991   4.368   8.839  0.5500 -1.3538 -2.0413
   20SAPC  C318 2685   7.012   4.166   8.795  0.0295  0.2937 -0.0785
   20SAPC  H18X 2686   6.996   4.062   8.830  0.1757  0.2863 -0.0322
   20SAPC  H18Y 2687   7.117   4.180   8.760 -0.1201 -0.0197 -0.6575
   20SAPC  H18Z 2688   6.948   4.169   8.704 -0.9178  2.4513  0.5906
   21SAPC     N 2689   5.716   2.526  10.847  0.1657  0.0853 -0.2705
   21SAPC   C12 2690   5.687   2.658  10.764  0.0490 -0.2700 -0.2658
   21SAPC  H12A 2691   5.739   2.744  10.805  1.0921 -1.0864  0.1743
   21SAPC  H12B 2692   5.580   2.677  10.766 -0.1031 -1.1350  0.0916
   21SAPC   C13 2693   5.673   2.402  10.778 -0.3497 -0.3474  0.5982
   21SAPC  H13A 2694   5.703   2.317  10.836  1.7784  0.6514  1.0373
   21SAPC  H13B 2695   5.570   2.395  10.746 -0.1505 -0.2167 -0.0892
   21SAPC  H13C 2696   5.736   2.390  10.691  0.4287  0.2401  1.0757
   21SAPC   C14 2697   5.858   2.492  10.882 -0.1376 -0.1671  0.1420
   21SAPC  H14A 2698   5.903   2.567  10.945 -3.4357  1.4332  0.8072
   21SAPC  H14B 2699   5.861   2.401  10.939  1.0856 -0.0558  0.2887
   21SAPC  H14C 2700   5.916   2.481  10.791 -0.6665 -1.9727 -0.0120
   21SAPC   C15 2701   5.641   2.537  10.979  0.5598  0.4089  0.3111
   21SAPC  H15A 2702   5.658   2.452  11.044 -0.9130 -2.2379 -2.5068
   21SAPC  H15B 2703   5.674   2.622  11.037 -0.0993 -0.1835  1.5987
   21SAPC  H15C 2704   5.535   2.543  10.958  0.6896  1.1471 -0.1623
   21SAPC   C11 2705   5.746   2.662  10.624  0.7525 -0.1696 -0.3460
   21SAPC  H11A 2706   5.718   2.756  10.572  0.9686 -0.4608 -0.9990
   21SAPC  H11B 2707   5.710   2.580  10.559  1.6672  1.0337 -2.4647
   21SAPC     P 2708   5.985   2.567  10.543 -0.0618 -0.4550 -0.3651
   21SAPC   O13 2709   6.116   2.639  10.513  0.6070  0.1234  0.7065
   21SAPC   O14 2710   5.997   2.435  10.612 -0.5878 -0.0218 -0.3293
   21SAPC   O12 2711   5.890   2.660  10.623  0.3408  0.1621  0.5710
   21SAPC   O11 2712   5.902   2.541  10.407  0.1773  0.2709 -0.5006
   21SAPC    C1 2713   5.851   2.651  10.333  0.0064  0.0392 -0.2098
   21SAPC    HA 2714   5.741   2.666  10.339 -0.1360 -0.0729 -1.9770
   21SAPC    HB 2715   5.892   2.753  10.353  1.1098 -0.1927 -1.1446
   21SAPC    C2 2716   5.871   2.627  10.171 -0.2363  0.3329 -0.2730
   21SAPC    HS 2717   5.824   2.709  10.112  1.4418  1.2949 -0.3261
   21SAPC   O21 2718   5.818   2.495  10.132  0.9036  0.1212 -0.4325
   21SAPC   C21 2719   5.684   2.488  10.147  0.8150 -0.0039  0.7338
   21SAPC   O22 2720   5.605   2.576  10.168  0.0304 -0.2406 -0.0897
   21SAPC   C22 2721   5.641   2.341  10.128 -0.6748 -0.8687 -0.5774
   21SAPC   H2R 2722   5.717   2.290  10.065  1.3934  1.2791  0.0346
   21SAPC   H2S 2723   5.647   2.299  10.231  0.9360  1.3498  0.3082
   21SAPC    C3 2724   6.023   2.639  10.130 -0.0162 -0.6613 -0.0870
   21SAPC    HX 2725   6.080   2.554  10.172 -1.3305 -0.2820  2.7100
   21SAPC    HY 2726   6.047   2.733  10.185  1.7807 -0.5580 -0.9748
   21SAPC   O31 2727   6.044   2.668   9.989  0.3352  0.2899 -0.9177
   21SAPC   C31 2728   6.178   2.683   9.970  0.8516 -1.0443 -0.5477
   21SAPC   O32 2729   6.261   2.680  10.057 -0.3551  0.1436 -0.7635
   21SAPC   C32 2730   6.214   2.708   9.834  0.5204  0.7244  0.2035
   21SAPC   H2X 2731   6.317   2.669   9.818  0.4056  0.3205  0.4240
   21SAPC   H2Y 2732   6.209   2.818   9.826  0.1186  0.5608 -2.6487
   21SAPC   C23 2733   5.499   2.314  10.069 -0.2896  0.2635  0.2508
   21SAPC   H3R 2734   5.428   2.370  10.135 -0.2379 -2.2865  2.6360
   21SAPC   H3S 2735   5.476   2.206  10.068 -2.2124  0.6118  1.1967
   21SAPC   C24 2736   5.484   2.357   9.926  0.1463  0.1554 -0.4404
   21SAPC   H4R 2737   5.504   2.465   9.909  0.7561 -0.2816 -2.9096
   21SAPC   H4S 2738   5.379   2.337   9.896  0.0243  0.0508  0.0391
   21SAPC   C25 2739   5.558   2.266   9.834  0.4253  0.6256  0.4000
   21SAPC   H5R 2740   5.521   2.162   9.829  0.2277  0.6378  1.3927
   21SAPC   C26 2741   5.656   2.307   9.748 -0.7348  0.3683  0.4413
   21SAPC   H6R 2742   5.700   2.228   9.685 -1.9787  0.9156 -1.1834
   21SAPC   C27 2743   5.708   2.447   9.723  0.1294 -0.1078  0.8654
   21SAPC   H7R 2744   5.790   2.450   9.648 -1.8641 -0.6389 -1.4643
   21SAPC   H7S 2745   5.760   2.478   9.816  0.6383 -0.2323  0.6269
   21SAPC   C28 2746   5.594   2.545   9.678  0.0718  0.1842 -0.4439
   21SAPC   H8R 2747   5.506   2.491   9.641  0.7173 -1.5826  0.4443
   21SAPC   C29 2748   5.590   2.677   9.708 -0.5402  0.2046  0.1345
   21SAPC   H9R 2749   5.512   2.742   9.667  0.1821 -0.2660 -2.1536
   21SAPC  C210 2750   5.692   2.756   9.776 -0.8148 -0.1117  0.4428
   21SAPC  H10R 2751   5.755   2.803   9.698  0.0879 -2.2991 -0.2081
   21SAPC  H10S 2752   5.766   2.697   9.835  1.9824  2.0373 -0.6780
   21SAPC  C211 2753   5.629   2.854   9.872  0.5480  0.4783 -0.2972
   21SAPC  H11R 2754   5.575   2.814   9.959 -1.7914  0.3805 -1.6856
   21SAPC  C212 2755   5.653   2.985   9.870 -0.2980  0.5171  0.1102
   21SAPC  H12R 2756   5.604   3.054   9.940 -1.9742  0.0601 -0.5800
   21SAPC  C213 2757   5.743   3.063   9.779 -0.5254  0.6612  0.8299
   21SAPC  H13R 2758   5.714   3.170   9.787  1.8908  1.8131 -3.1006
   21SAPC  H13S 2759   5.733   3.029   9.674  0.0704  1.6352  0.4441
   21SAPC  C214 2760   5.882   3.058   9.814 -0.0648  0.9775 -1.1768
   21SAPC  H14R 2761   5.896   3.051   9.923 -2.2673  0.2287 -0.8901
   21SAPC  C215 2762   5.992   3.045   9.730  0.2011 -0.2120 -0.5565
   21SAPC  H15R 2763   6.092   3.026   9.770  0.8273 -1.4359 -2.5336
   21SAPC  C216 2764   5.993   3.038   9.580 -0.0908 -0.6078 -0.5572
   21SAPC  H16R 2765   5.898   2.988   9.552 -0.9507  2.0631 -3.0338
   21SAPC  H16S 2766   6.071   2.971   9.537  1.7604  1.0349  0.0825
   21SAPC  C217 2767   5.998   3.172   9.508  0.2294  0.4223  0.3795
   21SAPC  H17R 2768   6.050   3.254   9.563  1.6347 -0.5137  0.5203
   21SAPC  H17S 2769   5.901   3.215   9.477  1.6114  3.4198 -0.1935
   21SAPC  C218 2770   6.094   3.164   9.384 -0.0728  0.7166 -0.1394
   21SAPC  H18R 2771   6.190   3.109   9.397 -0.0027  0.2355 -2.3126
   21SAPC  H18S 2772   6.129   3.266   9.357  0.2744 -0.0829 -3.1133
   21SAPC  C219 2773   6.026   3.099   9.260  0.2967 -0.2099  0.0852
   21SAPC  H19R 2774   5.991   2.997   9.287  1.8082 -1.1931 -1.4784
   21SAPC  H19S 2775   6.098   3.084   9.177  1.8902  1.2275  1.1200
   21SAPC  C220 2776   5.911   3.180   9.209  0.0473 -0.4734 -0.4153
   21SAPC  H20R 2777   5.945   3.286   9.199  0.1403 -0.4304  0.3490
   21SAPC  H20S 2778   5.829   3.190   9.283 -0.6711 -2.1220 -0.9497
   21SAPC  H20T 2779   5.884   3.145   9.107 -1.7104 -1.7859  0.4325
   21SAPC   C33 2780   6.106   2.649   9.731  0.2770  0.1267  0.1018
   21SAPC   H3X 2781   6.013   2.708   9.745  0.3125 -0.0760  1.2782
   21SAPC   H3Y 2782   6.087   2.541   9.742  0.1809  0.2739  1.5245
   21SAPC   C34 2783   6.160   2.681   9.593  0.7227 -0.3962 -0.5199
   21SAPC   H4X 2784   6.230   2.600   9.562  0.4739 -0.7224 -0.2296
   21SAPC   H4Y 2785   6.210   2.780   9.589 -0.1989  0.0765 -0.5897
   21SAPC   C35 2786   6.050   2.668   9.483  0.6823 -0.8241  0.3221
   21SAPC   H5X 2787   5.979   2.753   9.483  2.2722  0.5853  1.7361
   21SAPC   H5Y 2788   5.985   2.581   9.507 -2.1243  1.0742  0.1409
   21SAPC   C36 2789   6.110   2.647   9.349 -0.1738 -0.1337  0.2567
   21SAPC   H6X 2790   6.027   2.638   9.275  2.1353 -1.7037 -2.3371
   21SAPC   H6Y 2791   6.158   2.547   9.349  0.3507  0.0142 -2.7150
   21SAPC   C37 2792   6.207   2.756   9.315 -0.2593  0.9561  1.0943
   21SAPC   H7X 2793   6.305   2.756   9.367  1.7899 -1.6615 -2.2932
   21SAPC   H7Y 2794   6.155   2.854   9.323  0.0644  1.1483  0.8674
   21SAPC   C38 2795   6.246   2.733   9.161 -0.6029  0.1980 -0.3908
   21SAPC   H8X 2796   6.162   2.739   9.088 -1.8802  0.5122  1.0540
   21SAPC   H8Y 2797   6.290   2.631   9.160 -1.7455 -0.3158 -0.4512
   21SAPC   C39 2798   6.355   2.840   9.136  0.2053  0.3717 -0.2893
   21SAPC   H9X 2799   6.440   2.831   9.208  0.4976  1.2590 -0.5230
   21SAPC   H9Y 2800   6.315   2.943   9.145 -1.8776 -0.3714 -0.5119
   21SAPC  C310 2801   6.413   2.833   8.998  0.2312  0.2742 -0.0035
   21SAPC  H10X 2802   6.475   2.741   8.994 -0.3488 -0.1348  0.3417
   21SAPC  H10Y 2803   6.481   2.921   9.002 -0.6013  0.8822  2.1365
   21SAPC  C311 2804   6.302   2.853   8.891 -0.3613  0.5527  0.4484
   21SAPC  H11X 2805   6.249   2.949   8.909  0.2881  0.9826  0.1220
   21SAPC  H11Y 2806   6.227   2.771   8.894  0.9012 -0.6232  0.2648
   21SAPC  C312 2807   6.349   2.863   8.743 -0.2620  0.1361 -0.0137
   21SAPC  H12X 2808   6.407   2.770   8.724  1.5504  0.3986  3.3482
   21SAPC  H12Y 2809   6.433   2.935   8.736 -0.0637  0.2259  2.3850
   21SAPC  C313 2810   6.235   2.880   8.635  0.3355 -0.2790 -0.5084
   21SAPC  H13X 2811   6.168   2.967   8.653  0.3185  0.1196 -2.2923
   21SAPC  H13Y 2812   6.174   2.787   8.637 -1.4553  0.8465 -0.8256
   21SAPC  C314 2813   6.298   2.899   8.496 -0.0084  0.0993 -0.5409
   21SAPC  H14X 2814   6.216   2.904   8.421  0.6526  1.7559 -1.1901
   21SAPC  H14Y 2815   6.363   2.811   8.476 -1.6968 -1.2238 -0.4370
   21SAPC  C315 2816   6.381   3.028   8.484  0.6508 -0.0844 -0.3737
   21SAPC  H15X 2817   6.484   3.003   8.519 -0.1530 -1.5160  1.1069
   21SAPC  H15Y 2818   6.341   3.096   8.561 -1.5383 -1.1874 -0.4660
   21SAPC  C316 2819   6.382   3.086   8.345 -0.2549  0.2355 -0.2491
   21SAPC  H16X 2820   6.275   3.093   8.316 -0.9285  0.4049  2.1263
   21SAPC  H16Y 2821   6.434   3.012   8.280 -0.8794 -1.8723  1.5338
   21SAPC  C317 2822   6.471   3.215   8.343  0.4313  0.7091 -0.2201
   21SAPC  H17X 2823   6.500   3.240   8.239  0.1155 -0.5986 -0.6312
   21SAPC  H17Y 2824   6.564   3.186   8.397  1.0251  2.7269 -0.0770
   21SAPC  C318 2825   6.399   3.333   8.411  0.7249  0.2863  0.5513
   21SAPC  H18X 2826   6.370   3.323   8.518  0.0001  1.6898  0.5179
   21SAPC  H18Y 2827   6.304   3.349   8.355  1.4015 -0.6761 -0.9271
   21SAPC  H18Z 2828   6.461   3.424   8.403 -0.7986  1.7014  3.2152
   22SAPC     N 2829   3.200   4.560  10.989 -0.4280  1.0754 -0.3506
   22SAPC   C12 2830   3.203   4.579  10.838 -0.2348 -0.8170  0.7260
   22SAPC  H12A 2831   3.201   4.484  10.787  0.1881 -0.6815  0.4496
   22SAPC  H12B 2832   3.292   4.631  10.806  0.0335 -1.4418  0.4395
   22SAPC   C13 2833   3.239   4.691  11.059 -0.1731 -0.2390  0.1006
   22SAPC  H13A 2834   3.200   4.694  11.160 -0.8041  1.2095 -0.1655
   22SAPC  H13B 2835   3.344   4.715  11.057 -0.0594 -0.5635  1.2531
   22SAPC  H13C 2836   3.182   4.773  11.018 -1.1694 -0.6097  0.7203
   22SAPC   C14 2837   3.063   4.519  11.044 -0.3117 -0.0864  0.4339
   22SAPC  H14A 2838   2.985   4.592  11.028  1.8551  2.2848  0.0397
   22SAPC  H14B 2839   3.021   4.429  11.002 -0.5699  0.7547 -1.1752
   22SAPC  H14C 2840   3.066   4.506  11.151 -2.1617 -0.8168  0.4290
   22SAPC   C15 2841   3.300   4.458  11.030 -0.3262 -0.0129  0.3604
   22SAPC  H15A 2842   3.327   4.489  11.130 -2.2890  3.3519 -0.0128
   22SAPC  H15B 2843   3.252   4.361  11.039  3.2374 -2.0833 -0.8271
   22SAPC  H15C 2844   3.389   4.452  10.969  1.2746  1.5294  2.3755
   22SAPC   C11 2845   3.082   4.648  10.765  0.4724  0.2802 -0.0772
   22SAPC  H11A 2846   2.998   4.577  10.774  1.3792 -0.8071  0.0532
   22SAPC  H11B 2847   3.105   4.660  10.657  0.1849  0.4349 -0.1213
   22SAPC     P 2848   2.917   4.837  10.817  0.0207  0.3210 -0.1486
   22SAPC   O13 2849   2.810   4.752  10.878 -0.0486 -1.3448 -0.3594
   22SAPC   O14 2850   2.935   4.977  10.857  0.0274  0.2828  0.1524
   22SAPC   O12 2851   3.053   4.770  10.830 -0.3248 -0.3799  0.6079
   22SAPC   O11 2852   2.906   4.828  10.662 -0.4859  0.2654 -0.1522
   22SAPC    C1 2853   2.868   4.949  10.594  0.6735  0.3235  0.3038
   22SAPC    HA 2854   2.926   5.039  10.623 -1.2506  1.8409 -0.3414
   22SAPC    HB 2855   2.900   4.927  10.489  1.7526 -3.3265  1.2644
   22SAPC    C2 2856   2.715   4.984  10.586  0.1333  0.4433 -0.4809
   22SAPC    HS 2857   2.688   5.013  10.689  0.5476 -2.3650  0.5097
   22SAPC   O21 2858   2.641   4.867  10.551  0.0995  0.0437  0.1484
   22SAPC   C21 2859   2.513   4.862  10.568  0.1060  1.0653  0.2504
   22SAPC   O22 2860   2.445   4.939  10.634  0.0172 -0.1226  0.1215
   22SAPC   C22 2861   2.455   4.747  10.486 -0.3259 -0.3341 -0.0399
   22SAPC   H2R 2862   2.536   4.672  10.469 -0.2734 -0.1246 -0.7788
   22SAPC   H2S 2863   2.359   4.705  10.521 -0.0237 -1.3916 -0.4508
   22SAPC    C3 2864   2.684   5.103  10.494  0.2886  0.1899  0.5404
   22SAPC    HX 2865   2.747   5.191  10.522 -2.1804  1.4879  2.3516
   22SAPC    HY 2866   2.580   5.135  10.515  0.1809 -0.1020  0.4473
   22SAPC   O31 2867   2.714   5.069  10.353 -0.0496 -0.2468  0.5355
   22SAPC   C31 2868   2.627   5.116  10.270 -0.3917  0.3532  0.1614
   22SAPC   O32 2869   2.519   5.165  10.295  0.0498 -0.5285 -0.1948
   22SAPC   C32 2870   2.685   5.105  10.127 -0.4997  0.2372 -0.0985
   22SAPC   H2X 2871   2.752   5.017  10.125 -0.0905  0.4256  2.3616
   22SAPC   H2Y 2872   2.740   5.202  10.128 -1.4399  0.7817  1.6405
   22SAPC   C23 2873   2.412   4.791  10.341 -0.6411 -0.3333  0.1712
   22SAPC   H3R 2874   2.420   4.697  10.282 -1.9284 -2.0247  2.5220
   22SAPC   H3S 2875   2.477   4.868  10.294 -0.9325 -0.9216 -1.2522
   22SAPC   C24 2876   2.272   4.840  10.326 -0.1203 -0.0017 -0.0015
   22SAPC   H4R 2877   2.256   4.896  10.232 -0.9545  2.2829  1.3992
   22SAPC   H4S 2878   2.254   4.929  10.391 -1.4652  1.0935 -1.7841
   22SAPC   C25 2879   2.178   4.722  10.339 -0.2448 -0.7348 -0.3499
   22SAPC   H5R 2880   2.138   4.715  10.441 -1.9349 -0.3409 -0.9594
   22SAPC   C26 2881   2.120   4.646  10.242 -0.5501 -0.3094 -0.1073
   22SAPC   H6R 2882   2.047   4.572  10.278 -0.9385  1.8258  4.0455
   22SAPC   C27 2883   2.145   4.647  10.092 -0.4571  0.2853 -0.4307
   22SAPC   H7R 2884   2.242   4.696  10.072  0.3250 -0.5836  1.0899
   22SAPC   H7S 2885   2.056   4.701  10.053 -0.8844  0.1622  0.3624
   22SAPC   C28 2886   2.151   4.504  10.044 -0.2760  0.1097 -0.5470
   22SAPC   H8R 2887   2.200   4.430  10.109 -2.5489 -1.1395 -0.1393
   22SAPC   C29 2888   2.113   4.463   9.924 -0.3151  0.0933  0.0511
   22SAPC   H9R 2889   2.129   4.356   9.907 -0.1766  0.1526 -0.1878
   22SAPC  C210 2890   2.054   4.543   9.810 -0.1775  0.8197  0.1955
   22SAPC  H10R 2891   1.972   4.609   9.846 -0.6305  0.3302  0.0791
   22SAPC  H10S 2892   2.014   4.465   9.742  0.1546 -0.6348  1.5954
   22SAPC  C211 2893   2.169   4.625   9.754  0.6881 -0.4303  0.5111
   22SAPC  H11R 2894   2.197   4.710   9.817 -3.1910  1.9786 -0.6823
   22SAPC  C212 2895   2.233   4.606   9.635  0.6481 -0.3659  0.2910
   22SAPC  H12R 2896   2.302   4.682   9.595 -0.1051 -0.9564 -2.3038
   22SAPC  C213 2897   2.195   4.511   9.529 -0.8265  0.4975 -0.1203
   22SAPC  H13R 2898   2.144   4.418   9.560 -0.5755  0.1079 -0.8520
   22SAPC  H13S 2899   2.289   4.471   9.486  0.0361  2.6622 -0.4013
   22SAPC  C214 2900   2.119   4.570   9.413  0.0506 -0.2548 -0.2023
   22SAPC  H14R 2901   2.012   4.584   9.433 -0.3363 -0.1608 -2.1450
   22SAPC  C215 2902   2.157   4.593   9.288  0.4290  0.0352 -0.2799
   22SAPC  H15R 2903   2.091   4.633   9.210  2.3970  0.3544 -1.8674
   22SAPC  C216 2904   2.296   4.566   9.241  0.1130 -0.0116 -0.4840
   22SAPC  H16R 2905   2.342   4.473   9.280 -0.2106  0.3534  0.8300
   22SAPC  H16S 2906   2.364   4.642   9.285  2.2089 -1.5574 -0.9338
   22SAPC  C217 2907   2.323   4.584   9.088  0.2503 -0.7029  0.3615
   22SAPC  H17R 2908   2.434   4.579   9.077  0.3614  0.8088  0.6615
   22SAPC  H17S 2909   2.290   4.687   9.064  2.6913  0.0426 -0.1314
   22SAPC  C218 2910   2.252   4.482   8.996  0.0375  0.0755 -0.0034
   22SAPC  H18R 2911   2.142   4.497   8.997 -0.4024 -2.7092 -0.0283
   22SAPC  H18S 2912   2.253   4.379   9.037 -0.2185  0.1202  0.1189
   22SAPC  C219 2913   2.292   4.482   8.846  0.4407 -0.0784  0.3581
   22SAPC  H19R 2914   2.247   4.408   8.776  1.4289 -0.0145 -0.3660
   22SAPC  H19S 2915   2.403   4.475   8.841  0.4641  0.8648 -2.1087
   22SAPC  C220 2916   2.258   4.614   8.791 -0.0784 -0.2641 -1.0914
   22SAPC  H20R 2917   2.313   4.698   8.839  0.3819 -1.1465 -0.0329
   22SAPC  H20S 2918   2.149   4.623   8.805  0.0780 -1.5031  1.5539
   22SAPC  H20T 2919   2.270   4.614   8.680  0.8169  0.1132 -1.0000
   22SAPC   C33 2920   2.584   5.095  10.012 -0.5555 -0.4103 -0.2103
   22SAPC   H3X 2921   2.647   5.099   9.921  3.1313 -1.4037  2.0913
   22SAPC   H3Y 2922   2.519   5.184  10.016 -3.1827 -2.2390  0.6974
   22SAPC   C34 2923   2.482   4.980  10.018 -0.3223 -0.3182  0.2910
   22SAPC   H4X 2924   2.438   4.979  10.120 -2.1369 -0.8375 -0.4500
   22SAPC   H4Y 2925   2.530   4.882   9.999 -1.7669 -1.1604  0.8581
   22SAPC   C35 2926   2.366   5.015   9.922 -0.2628 -0.5747 -1.0962
   22SAPC   H5X 2927   2.307   5.100   9.962 -1.1872 -2.0955  0.9397
   22SAPC   H5Y 2928   2.295   4.931   9.936  1.6075 -2.0254  0.2286
   22SAPC   C36 2929   2.394   5.018   9.769  0.2714 -0.0861 -0.0728
   22SAPC   H6X 2930   2.456   5.107   9.744 -0.1536  0.9812  2.4076
   22SAPC   H6Y 2931   2.305   5.049   9.710  1.0066  0.5125 -0.8948
   22SAPC   C37 2932   2.452   4.898   9.702  0.3741 -0.0291  0.3060
   22SAPC   H7X 2933   2.384   4.816   9.734  1.7505 -0.6182  1.8578
   22SAPC   H7Y 2934   2.558   4.890   9.735  0.7300  1.0160 -0.5277
   22SAPC   C38 2935   2.439   4.902   9.555 -0.5199  0.0238  0.0203
   22SAPC   H8X 2936   2.336   4.932   9.526 -1.1376 -2.1424 -0.2055
   22SAPC   H8Y 2937   2.458   4.802   9.510 -3.1146 -0.9014  0.8478
   22SAPC   C39 2938   2.541   4.972   9.475 -0.7569 -0.0227  0.4726
   22SAPC   H9X 2939   2.645   4.950   9.505  0.1964  1.7057 -1.3461
   22SAPC   H9Y 2940   2.531   5.083   9.475 -0.7550 -0.0211 -0.2122
   22SAPC  C310 2941   2.529   4.924   9.321 -1.0167  0.2065  0.1718
   22SAPC  H10X 2942   2.427   4.950   9.284 -0.8683 -0.2742 -0.6065
   22SAPC  H10Y 2943   2.553   4.816   9.326  1.2721  0.4876 -2.5281
   22SAPC  C311 2944   2.631   4.990   9.229  0.9708 -0.2294  0.3423
   22SAPC  H11X 2945   2.733   4.978   9.271  0.6996 -0.5423  0.9294
   22SAPC  H11Y 2946   2.616   5.100   9.231 -0.6710 -0.3760 -1.3337
   22SAPC  C312 2947   2.624   4.932   9.075  0.1466  0.5153 -0.1717
   22SAPC  H12X 2948   2.611   4.823   9.091  1.0552  0.6130  1.4937
   22SAPC  H12Y 2949   2.728   4.936   9.037  0.8370  2.7491  1.6835
   22SAPC  C313 2950   2.521   4.999   8.989  0.3519  0.3544 -0.6640
   22SAPC  H13X 2951   2.547   5.107   8.999  1.4870  0.1039 -0.8660
   22SAPC  H13Y 2952   2.418   4.990   9.031  0.6424  1.1281  0.2720
   22SAPC  C314 2953   2.534   4.972   8.840  0.2335  0.2163  0.6194
   22SAPC  H14X 2954   2.501   4.867   8.825  0.0112  0.3955 -0.1491
   22SAPC  H14Y 2955   2.638   4.988   8.805 -0.0313  1.2134  0.2535
   22SAPC  C315 2956   2.450   5.065   8.753 -0.7736  0.4726  0.1698
   22SAPC  H15X 2957   2.488   5.166   8.779 -0.4805  0.8816 -1.6917
   22SAPC  H15Y 2958   2.345   5.051   8.786 -1.3460 -0.1102 -1.7231
   22SAPC  C316 2959   2.467   5.048   8.605 -0.1831  0.0453  0.0337
   22SAPC  H16X 2960   2.455   4.942   8.578  1.0008 -0.7416  2.3202
   22SAPC  H16Y 2961   2.568   5.089   8.584 -1.1489  1.8891 -1.3325
   22SAPC  C317 2962   2.368   5.134   8.529 -0.1052  0.4377 -0.5321
   22SAPC  H17X 2963   2.268   5.106   8.568  0.8378 -2.2969  0.1536
   22SAPC  H17Y 2964   2.390   5.101   8.425  2.7456 -0.4508  0.2711
   22SAPC  C318 2965   2.389   5.285   8.539 -0.8307  0.8541  0.4850
   22SAPC  H18X 2966   2.303   5.341   8.495 -0.7287  0.4348 -0.2687
   22SAPC  H18Y 2967   2.480   5.315   8.482 -0.1259  0.1380  1.2141
   22SAPC  H18Z 2968   2.399   5.326   8.641 -0.7346 -0.2903  0.9473
   23SAPC     N 2969   4.947   0.974  11.304  0.0240 -0.0483  1.2716
   23SAPC   C12 2970   4.994   0.945  11.160 -0.1943  0.0969  0.2191
   23SAPC  H12A 2971   5.101   0.926  11.155 -0.4144 -1.0670 -0.2607
   23SAPC  H12B 2972   4.985   1.033  11.098  1.3290  1.0184  1.2209
   23SAPC   C13 2973   4.794   1.003  11.297 -0.0364  0.1481 -0.1536
   23SAPC  H13A 2974   4.741   0.919  11.255  0.1967  1.2549 -2.8895
   23SAPC  H13B 2975   4.752   1.033  11.391 -3.4212  0.4688 -1.6235
   23SAPC  H13C 2976   4.786   1.083  11.225  0.9758 -0.2293 -0.7100
   23SAPC   C14 2977   4.981   0.862  11.398 -0.1220 -0.1075  0.4678
   23SAPC  H14A 2978   4.953   0.891  11.498 -1.4234  0.6520 -0.0962
   23SAPC  H14B 2979   4.948   0.763  11.369  2.4061 -0.4418 -1.7029
   23SAPC  H14C 2980   5.088   0.850  11.404  0.4093  1.0323 -3.4906
   23SAPC   C15 2981   5.025   1.100  11.348 -0.7921  1.2042  0.4337
   23SAPC  H15A 2982   5.125   1.071  11.378 -1.3146 -2.6264 -0.9394
   23SAPC  H15B 2983   5.033   1.179  11.275  2.8407  0.7093  0.0696
   23SAPC  H15C 2984   4.978   1.133  11.439 -1.0908 -2.0408  1.5849
   23SAPC   C11 2985   4.920   0.833  11.088 -0.5576  0.7987 -0.0270
   23SAPC  H11A 2986   4.912   0.753  11.164  1.5760  1.7673  1.3133
   23SAPC  H11B 2987   4.977   0.790  11.003 -0.1521 -0.1868  0.7326
   23SAPC     P 2988   4.770   0.917  10.893  0.2420  0.2351  0.2551
   23SAPC   O13 2989   4.746   0.788  10.822 -0.2009 -0.0718 -0.0005
   23SAPC   O14 2990   4.658   1.013  10.900  0.0459 -0.2467 -0.7713
   23SAPC   O12 2991   4.793   0.875  11.042 -0.0113  0.5346 -0.3603
   23SAPC   O11 2992   4.913   0.978  10.846  0.3103 -0.5969  0.3710
   23SAPC    C1 2993   4.909   1.120  10.835 -0.6228  0.1214 -0.4918
   23SAPC    HA 2994   4.881   1.169  10.931 -0.3789  0.0379 -0.3780
   23SAPC    HB 2995   5.015   1.152  10.825 -0.2708 -1.0214 -0.5344
   23SAPC    C2 2996   4.826   1.185  10.720  0.2254 -0.1479  1.0738
   23SAPC    HS 2997   4.720   1.186  10.755 -0.1119  3.4197  0.3180
   23SAPC   O21 2998   4.833   1.104  10.602  0.1220 -0.1964 -0.5620
   23SAPC   C21 2999   4.726   1.092  10.524  0.7497 -0.1424 -0.7205
   23SAPC   O22 3000   4.615   1.142  10.552  0.8914  0.1295 -0.3861
   23SAPC   C22 3001   4.752   0.988  10.411  0.0697  0.3117  0.4457
   23SAPC   H2R 3002   4.783   0.900  10.471 -0.3962  1.0691  1.8355
   23SAPC   H2S 3003   4.657   0.963  10.359 -0.1381  1.6174  0.1610
   23SAPC    C3 3004   4.864   1.326  10.685 -0.4126 -0.1987  0.2511
   23SAPC    HX 3005   4.973   1.319  10.668 -0.2005  0.4386  1.2612
   23SAPC    HY 3006   4.850   1.404  10.763  2.8526 -0.4805  1.2608
   23SAPC   O31 3007   4.824   1.376  10.559 -0.1510  0.0722  0.4091
   23SAPC   C31 3008   4.726   1.467  10.544  0.5837 -0.5652 -0.3330
   23SAPC   O32 3009   4.642   1.480  10.632 -0.5357  0.0197  0.0109
   23SAPC   C32 3010   4.728   1.535  10.415  0.3067 -0.1916  0.9709
   23SAPC   H2X 3011   4.831   1.569  10.390 -0.1980  0.8262  0.2068
   23SAPC   H2Y 3012   4.668   1.627  10.428  0.0142 -0.6154  2.7863
   23SAPC   C23 3013   4.870   1.027  10.316 -0.2989 -0.5441  0.1685
   23SAPC   H3R 3014   4.961   0.994  10.370 -0.2820 -1.6868 -0.5175
   23SAPC   H3S 3015   4.862   1.132  10.281  0.3642 -0.2739  0.8001
   23SAPC   C24 3016   4.868   0.940  10.188  0.3338  0.4636  0.0991
   23SAPC   H4R 3017   4.963   0.951  10.132  1.0391  3.3917  1.6694
   23SAPC   H4S 3018   4.792   0.985  10.120 -0.9507 -1.7764 -0.0510
   23SAPC   C25 3019   4.862   0.792  10.207  0.4090 -0.2093 -0.4885
   23SAPC   H5R 3020   4.939   0.745  10.270 -1.0633 -0.8474  0.9124
   23SAPC   C26 3021   4.759   0.711  10.167  0.0396  0.2799  0.3360
   23SAPC   H6R 3022   4.769   0.606  10.200 -0.4223 -0.5648 -2.0198
   23SAPC   C27 3023   4.631   0.745  10.093  0.3781  0.2705  0.7676
   23SAPC   H7R 3024   4.642   0.708   9.989 -1.8129  0.2242  0.5085
   23SAPC   H7S 3025   4.612   0.855  10.094  1.1123  0.4104  0.3371
   23SAPC   C28 3026   4.509   0.681  10.144 -0.1089 -0.7044  0.0435
   23SAPC   H8R 3027   4.494   0.712  10.248  1.7396 -2.5397  0.9449
   23SAPC   C29 3028   4.417   0.604  10.087  0.2118  0.3905 -0.0481
   23SAPC   H9R 3029   4.329   0.578  10.146  0.8584 -0.7232  0.4572
   23SAPC  C210 3030   4.422   0.565   9.945 -0.2428  0.3448 -0.0211
   23SAPC  H10R 3031   4.470   0.645   9.885  0.8374  0.1523  0.5720
   23SAPC  H10S 3032   4.321   0.553   9.900 -0.9434 -1.5745  1.8719
   23SAPC  C211 3033   4.498   0.443   9.923  0.1066 -0.3963 -0.2455
   23SAPC  H11R 3034   4.579   0.416   9.992  2.4990 -0.3781 -2.8712
   23SAPC  C212 3035   4.484   0.361   9.818 -0.0588 -0.3673 -0.3536
   23SAPC  H12R 3036   4.555   0.279   9.798  0.3610  0.0633 -0.6401
   23SAPC  C213 3037   4.385   0.367   9.702 -0.3383  0.4940 -0.3230
   23SAPC  H13R 3038   4.442   0.408   9.615  0.3833  1.7183  0.6921
   23SAPC  H13S 3039   4.313   0.448   9.727  0.6001  1.3323 -0.2601
   23SAPC  C214 3040   4.319   0.236   9.662  0.2338 -0.6060 -0.7988
   23SAPC  H14R 3041   4.377   0.147   9.692  0.0030  0.3093  2.8412
   23SAPC  C215 3042   4.208   0.213   9.592 -0.5702 -0.3059 -0.2118
   23SAPC  H15R 3043   4.171   0.110   9.605 -1.3818 -0.0352 -0.3143
   23SAPC  C216 3044   4.111   0.306   9.532  0.1277 -0.1434 -0.0343
   23SAPC  H16R 3045   4.148   0.410   9.538  2.1050 -0.7999 -0.0890
   23SAPC  H16S 3046   4.019   0.308   9.594 -1.1790  0.6645 -1.9013
   23SAPC  C217 3047   4.054   0.272   9.383 -0.2145 -0.0472 -0.8275
   23SAPC  H17R 3048   3.992   0.354   9.339  2.5341  1.4308 -2.2349
   23SAPC  H17S 3049   3.988   0.183   9.389 -0.8068  0.4455  0.4810
   23SAPC  C218 3050   4.163   0.236   9.281 -0.3838 -0.4189 -0.4531
   23SAPC  H18R 3051   4.108   0.186   9.199 -0.9927  0.6163 -0.7015
   23SAPC  H18S 3052   4.215   0.148   9.323  0.7921  0.2285 -0.5097
   23SAPC  C219 3053   4.254   0.348   9.239 -0.4277 -0.2899 -1.0333
   23SAPC  H19R 3054   4.322   0.382   9.320 -0.5604  1.8273 -1.7499
   23SAPC  H19S 3055   4.204   0.445   9.218 -1.2745 -0.1940  1.1666
   23SAPC  C220 3056   4.350   0.321   9.119 -0.4652  0.2523 -0.3411
   23SAPC  H20R 3057   4.443   0.383   9.119 -0.4180  0.1826 -0.8688
   23SAPC  H20S 3058   4.302   0.332   9.020  1.0039 -1.0517 -1.2531
   23SAPC  H20T 3059   4.397   0.221   9.128  1.9504  1.1366 -2.0881
   23SAPC   C33 3060   4.662   1.445  10.300 -0.0835  0.2859  0.0341
   23SAPC   H3X 3061   4.568   1.404  10.341  1.0373 -1.4852  0.9669
   23SAPC   H3Y 3062   4.737   1.365  10.282  0.5658  1.0888 -0.9829
   23SAPC   C34 3063   4.627   1.519  10.170  0.6714  0.4215  0.1417
   23SAPC   H4X 3064   4.696   1.602  10.141 -0.2655  1.0058 -0.4951
   23SAPC   H4Y 3065   4.539   1.585  10.186  0.2339  0.1267 -0.9372
   23SAPC   C35 3066   4.590   1.426  10.051  0.2015 -0.4240 -0.3253
   23SAPC   H5X 3067   4.557   1.321  10.071 -0.6400 -0.2172 -0.5952
   23SAPC   H5Y 3068   4.691   1.418  10.007  0.2447  1.1366 -0.5658
   23SAPC   C36 3069   4.483   1.499   9.961  0.2058  0.0566  0.1073
   23SAPC   H6X 3070   4.491   1.608   9.985 -0.8299  0.6255 -1.9085
   23SAPC   H6Y 3071   4.391   1.452  10.001  1.9108 -1.9947  1.9103
   23SAPC   C37 3072   4.503   1.461   9.820 -0.0579 -0.0554  1.3603
   23SAPC   H7X 3073   4.519   1.352   9.817  0.0792 -0.0236  0.6742
   23SAPC   H7Y 3074   4.595   1.517   9.791 -0.6000  0.6423  0.9354
   23SAPC   C38 3075   4.391   1.502   9.727 -0.2254  0.6542  0.3781
   23SAPC   H8X 3076   4.355   1.603   9.758  1.2962  1.2618  0.2076
   23SAPC   H8Y 3077   4.302   1.435   9.730  0.0029  0.2983 -0.6751
   23SAPC   C39 3078   4.439   1.499   9.581  0.3505  0.0770  0.0400
   23SAPC   H9X 3079   4.442   1.394   9.544  0.1530 -0.0382  0.3367
   23SAPC   H9Y 3080   4.542   1.538   9.573 -0.0708  1.0323 -0.8688
   23SAPC  C310 3081   4.337   1.578   9.498  0.1129 -0.3069  0.2441
   23SAPC  H10X 3082   4.311   1.676   9.545  0.3443  0.0378 -0.3336
   23SAPC  H10Y 3083   4.243   1.519   9.493 -0.5267  0.7264 -0.2877
   23SAPC  C311 3084   4.383   1.590   9.354  0.4815  0.0442  0.7100
   23SAPC  H11X 3085   4.398   1.498   9.294 -2.3285 -0.1862  0.2280
   23SAPC  H11Y 3086   4.486   1.631   9.365  1.2068 -1.8529  1.4300
   23SAPC  C312 3087   4.288   1.679   9.266 -0.3475 -0.2731  0.0289
   23SAPC  H12X 3088   4.276   1.786   9.292 -1.3500 -0.0257 -1.3289
   23SAPC  H12Y 3089   4.188   1.634   9.286  1.3135 -3.5561  1.6903
   23SAPC  C313 3090   4.333   1.658   9.120  0.1676  0.0426 -0.9519
   23SAPC  H13X 3091   4.350   1.550   9.098  2.3024  0.7862 -3.4112
   23SAPC  H13Y 3092   4.432   1.707   9.108 -0.9541  2.7041 -0.1287
   23SAPC  C314 3093   4.232   1.717   9.018 -0.3213 -0.3157  0.2467
   23SAPC  H14X 3094   4.201   1.816   9.059 -2.3263 -1.5636  1.9165
   23SAPC  H14Y 3095   4.141   1.660   8.991 -1.4753  1.9701 -0.9881
   23SAPC  C315 3096   4.295   1.756   8.881 -0.5996  0.6570 -0.3062
   23SAPC  H15X 3097   4.401   1.781   8.902 -0.9282  2.1791 -0.3984
   23SAPC  H15Y 3098   4.231   1.835   8.835 -2.3075 -1.5861 -2.0843
   23SAPC  C316 3099   4.278   1.637   8.784  0.0338 -0.4321  0.7587
   23SAPC  H16X 3100   4.170   1.639   8.758  0.4837 -2.4923 -1.6677
   23SAPC  H16Y 3101   4.294   1.538   8.834  0.8758 -0.6814  0.0180
   23SAPC  C317 3102   4.363   1.628   8.659 -0.0023  0.3173  0.3112
   23SAPC  H17X 3103   4.470   1.631   8.690  0.7653 -0.9067 -2.0055
   23SAPC  H17Y 3104   4.348   1.721   8.600  0.3890 -0.2691 -0.7503
   23SAPC  C318 3105   4.345   1.512   8.552  0.1456  0.6710 -0.0062
   23SAPC  H18X 3106   4.405   1.532   8.461 -0.0711  0.2164 -0.2555
   23SAPC  H18Y 3107   4.239   1.490   8.528  0.1873  1.2327 -0.7220
   23SAPC  H18Z 3108   4.385   1.418   8.596 -1.2669  0.3337  0.6430
   24SAPC     N 3109   1.491   1.000  11.283 -0.2267 -0.4459  0.3732
   24SAPC   C12 3110   1.405   0.923  11.190  0.6990  0.5260 -0.5583
   24SAPC  H12A 3111   1.342   0.865  11.256 -1.4510  1.9574 -1.2174
   24SAPC  H12B 3112   1.460   0.853  11.130 -0.5472 -0.1654 -0.9308
   24SAPC   C13 3113   1.406   1.074  11.377  0.0690 -0.5902 -0.5231
   24SAPC  H13A 3114   1.457   1.139  11.446  0.6670 -1.3063 -0.2661
   24SAPC  H13B 3115   1.334   1.131  11.321  1.7028  3.1349  0.8703
   24SAPC  H13C 3116   1.344   1.009  11.438 -1.3619 -1.6818 -2.9684
   24SAPC   C14 3117   1.572   0.910  11.371  0.5480  0.1018 -0.1031
   24SAPC  H14A 3118   1.509   0.856  11.441 -0.8011  0.1851 -1.2069
   24SAPC  H14B 3119   1.630   0.838  11.314 -0.2523  0.2094 -1.0810
   24SAPC  H14C 3120   1.652   0.959  11.425  3.2514 -3.9816  0.0912
   24SAPC   C15 3121   1.580   1.084  11.206 -0.3373 -0.0537  0.3776
   24SAPC  H15A 3122   1.520   1.156  11.151  0.3090 -0.5739 -1.0795
   24SAPC  H15B 3123   1.650   1.149  11.257 -0.6989 -0.3886  1.3019
   24SAPC  H15C 3124   1.636   1.022  11.137  0.3521  0.5733  0.3549
   24SAPC   C11 3125   1.302   1.002  11.096 -0.3817  0.0514 -0.1138
   24SAPC  H11A 3126   1.253   1.065  11.173  0.0001 -0.8843  0.9176
   24SAPC  H11B 3127   1.231   0.930  11.052 -1.2866  1.5120 -1.1530
   24SAPC     P 3128   1.442   1.016  10.866 -0.4903  0.4469 -0.1445
   24SAPC   O13 3129   1.501   1.133  10.799  0.1373  0.2508 -0.5553
   24SAPC   O14 3130   1.539   0.912  10.912  0.8269 -0.1081 -0.0762
   24SAPC   O12 3131   1.377   1.070  11.001 -0.7928 -0.3855 -0.0996
   24SAPC   O11 3132   1.327   0.953  10.784 -0.0216 -0.4243 -0.5068
   24SAPC    C1 3133   1.208   1.020  10.746 -0.5781  0.1923 -0.5570
   24SAPC    HA 3134   1.128   0.949  10.777  0.5098 -0.1923  1.5068
   24SAPC    HB 3135   1.181   1.111  10.803  0.1939  1.9672 -2.8804
   24SAPC    C2 3136   1.200   1.048  10.592 -0.0142 -0.4759  0.1979
   24SAPC    HS 3137   1.098   1.092  10.579  0.5008  0.8582  0.4878
   24SAPC   O21 3138   1.221   0.928  10.513  0.1652 -0.4283  0.1531
   24SAPC   C21 3139   1.110   0.850  10.520 -0.8205  0.1512  0.7264
   24SAPC   O22 3140   1.003   0.873  10.572  0.3326 -0.1976 -0.3575
   24SAPC   C22 3141   1.148   0.719  10.458  0.1321 -0.0628  0.5498
   24SAPC   H2R 3142   1.248   0.696  10.501  0.1165 -2.4651 -0.5373
   24SAPC   H2S 3143   1.073   0.645  10.491 -0.5969  0.3481 -0.1339
   24SAPC    C3 3144   1.311   1.149  10.541  0.1376 -0.1793 -0.0188
   24SAPC    HX 3145   1.412   1.118  10.574  1.0192  1.1870 -1.3494
   24SAPC    HY 3146   1.306   1.250  10.589 -1.1022 -0.1223 -0.2227
   24SAPC   O31 3147   1.286   1.181  10.404 -0.3833 -0.2399  0.4234
   24SAPC   C31 3148   1.380   1.127  10.328  0.0297 -0.0064  0.0909
   24SAPC   O32 3149   1.478   1.070  10.359 -0.7009 -0.0721 -0.7127
   24SAPC   C32 3150   1.339   1.155  10.186  0.3407  0.3398  0.8825
   24SAPC   H2X 3151   1.403   1.237  10.148  1.2535 -0.4027  0.7592
   24SAPC   H2Y 3152   1.232   1.186  10.188  0.4926  0.8665  0.9689
   24SAPC   C23 3153   1.162   0.727  10.308  0.0123  0.3123  0.9811
   24SAPC   H3R 3154   1.243   0.800  10.285  0.3802 -0.7092 -1.2745
   24SAPC   H3S 3155   1.062   0.755  10.268  1.6849  1.6368 -2.7846
   24SAPC   C24 3156   1.197   0.593  10.229  0.7633 -0.1230  0.0173
   24SAPC   H4R 3157   1.297   0.572  10.272  1.1350  0.6351 -0.4579
   24SAPC   H4S 3158   1.215   0.602  10.119  1.7167 -3.7551 -0.2608
   24SAPC   C25 3159   1.108   0.480  10.252 -0.1181  0.6424 -0.2487
   24SAPC   H5R 3160   1.108   0.454  10.359  1.4636  0.1569 -0.3541
   24SAPC   C26 3161   1.033   0.416  10.157 -0.2866 -0.9079  0.8358
   24SAPC   H6R 3162   0.960   0.339  10.187  0.4208 -1.9123  0.0569
   24SAPC   C27 3163   1.024   0.463  10.010  0.0062  0.3072 -0.4994
   24SAPC   H7R 3164   0.992   0.372   9.956 -0.9213 -0.1765  0.8087
   24SAPC   H7S 3165   1.120   0.504   9.972  0.1714 -0.1409 -0.5797
   24SAPC   C28 3166   0.918   0.567   9.987  0.8057  0.0067  0.2777
   24SAPC   H8R 3167   0.848   0.603  10.064 -0.4629 -0.4814 -0.6216
   24SAPC   C29 3168   0.885   0.615   9.863  0.2997  0.2902  0.5980
   24SAPC   H9R 3169   0.803   0.687   9.853  1.4413  1.8755  2.2082
   24SAPC  C210 3170   0.948   0.581   9.726 -0.5347 -0.9510 -0.5377
   24SAPC  H10R 3171   0.881   0.621   9.646 -1.4658  1.2018  1.2144
   24SAPC  H10S 3172   0.954   0.470   9.721  1.0459 -0.8746 -0.9500
   24SAPC  C211 3173   1.085   0.641   9.718 -0.6598  0.7833  0.2070
   24SAPC  H11R 3174   1.138   0.642   9.814 -1.0838 -1.1013  0.5126
   24SAPC  C212 3175   1.139   0.690   9.601  0.5212 -0.0829  0.1971
   24SAPC  H12R 3176   1.240   0.734   9.601 -0.1102  1.4389 -0.6848
   24SAPC  C213 3177   1.084   0.694   9.458 -0.0364 -0.3159 -0.3407
   24SAPC  H13R 3178   1.039   0.594   9.437  0.0157  0.0038 -2.1134
   24SAPC  H13S 3179   1.172   0.691   9.391  0.6946 -0.1275  0.5902
   24SAPC  C214 3180   0.992   0.809   9.427  0.1895  0.2554  0.8389
   24SAPC  H14R 3181   1.009   0.894   9.495  1.6500 -0.1310  0.9759
   24SAPC  C215 3182   0.896   0.828   9.325 -0.5816  0.5204 -0.1400
   24SAPC  H15R 3183   0.828   0.914   9.319 -0.6550  0.5466  0.8876
   24SAPC  C216 3184   0.870   0.733   9.219  0.0822  0.2783 -0.3601
   24SAPC  H16R 3185   0.766   0.752   9.185  0.2603  0.4033 -0.8388
   24SAPC  H16S 3186   0.881   0.628   9.254 -1.2791 -0.2114 -1.3288
   24SAPC  C217 3187   0.972   0.757   9.097 -0.0953 -0.6707  0.2050
   24SAPC  H17R 3188   1.078   0.734   9.116  0.8364  1.1258 -2.2764
   24SAPC  H17S 3189   0.967   0.867   9.077 -1.2976 -0.9918 -1.5129
   24SAPC  C218 3190   0.918   0.700   8.968  0.0341 -0.3044  0.1731
   24SAPC  H18R 3191   0.987   0.738   8.890 -0.7835 -0.7611 -0.7978
   24SAPC  H18S 3192   0.812   0.728   8.949 -1.8479 -4.3648  3.2465
   24SAPC  C219 3193   0.934   0.548   8.978  0.3518  0.0346 -0.6541
   24SAPC  H19R 3194   0.866   0.494   9.046  0.2439 -1.6033 -1.9929
   24SAPC  H19S 3195   1.035   0.533   9.022  0.8568 -0.1999 -1.8306
   24SAPC  C220 3196   0.914   0.464   8.848 -0.1619 -0.2511 -0.0541
   24SAPC  H20R 3197   0.807   0.464   8.818 -0.1617  0.4551 -0.0745
   24SAPC  H20S 3198   0.943   0.357   8.858  2.2269  0.4179  1.1387
   24SAPC  H20T 3199   0.986   0.497   8.770 -0.8572 -0.7112 -0.9035
   24SAPC   C33 3200   1.347   1.028  10.096  0.2642  0.0344  0.8804
   24SAPC   H3X 3201   1.287   0.940  10.127 -0.9054  1.0352  1.5618
   24SAPC   H3Y 3202   1.455   0.999  10.096 -0.0216 -1.1120  1.8770
   24SAPC   C34 3203   1.301   1.052   9.950 -0.2817 -0.7361 -0.2673
   24SAPC   H4X 3204   1.335   1.150   9.911 -1.3607 -0.2746 -0.0765
   24SAPC   H4Y 3205   1.190   1.048   9.959 -0.1350 -1.0352  1.8894
   24SAPC   C35 3206   1.338   0.945   9.856 -0.4042  0.3724  0.0504
   24SAPC   H5X 3207   1.277   0.942   9.763  1.3146  0.2383 -1.1285
   24SAPC   H5Y 3208   1.308   0.852   9.910  1.5249 -0.6998 -0.5979
   24SAPC   C36 3209   1.480   0.944   9.804 -0.6894 -0.2787 -0.0229
   24SAPC   H6X 3210   1.551   0.927   9.888  1.9642  3.3536 -1.2804
   24SAPC   H6Y 3211   1.512   1.045   9.772 -0.4815 -0.2286  0.3310
   24SAPC   C37 3212   1.507   0.857   9.682 -0.5473 -0.1458  0.3428
   24SAPC   H7X 3213   1.466   0.755   9.698 -1.9093  0.1255 -1.1371
   24SAPC   H7Y 3214   1.617   0.850   9.670 -0.2474  0.7217  2.2528
   24SAPC   C38 3215   1.440   0.920   9.559  0.3020 -0.5102  0.5228
   24SAPC   H8X 3216   1.488   1.019   9.543  0.1235 -0.6071 -0.8057
   24SAPC   H8Y 3217   1.336   0.948   9.587  0.9599  0.2240  2.3377
   24SAPC   C39 3218   1.454   0.839   9.428  0.5128  0.5860  0.2987
   24SAPC   H9X 3219   1.370   0.767   9.413  1.1625 -0.3365  1.0005
   24SAPC   H9Y 3220   1.547   0.778   9.423 -1.1214 -2.1111  0.2716
   24SAPC  C310 3221   1.449   0.935   9.309 -0.6685  0.4817 -0.3139
   24SAPC  H10X 3222   1.486   0.886   9.217  1.5090 -3.0608  2.1901
   24SAPC  H10Y 3223   1.521   1.015   9.336  0.4353 -0.2840 -0.9249
   24SAPC  C311 3224   1.317   0.999   9.269 -0.6396  0.1161  0.2399
   24SAPC  H11X 3225   1.280   1.042   9.364 -1.8125 -0.8778  0.2649
   24SAPC  H11Y 3226   1.243   0.918   9.247 -0.3083 -0.8384  2.3813
   24SAPC  C312 3227   1.325   1.098   9.143 -0.1140  0.9387  0.5313
   24SAPC  H12X 3228   1.364   1.054   9.049 -0.3796  0.1815  0.7760
   24SAPC  H12Y 3229   1.391   1.184   9.168  0.4483  0.5538  0.3873
   24SAPC  C313 3230   1.192   1.159   9.095  0.4568  0.0365 -0.5292
   24SAPC  H13X 3231   1.141   1.178   9.192  0.5935  2.5019 -0.8813
   24SAPC  H13Y 3232   1.140   1.072   9.049 -0.2155 -0.3650  0.9227
   24SAPC  C314 3233   1.209   1.285   9.010 -0.3050 -0.3885 -0.6116
   24SAPC  H14X 3234   1.309   1.288   8.964 -0.7069 -0.6585 -1.5243
   24SAPC  H14Y 3235   1.201   1.379   9.069  0.8020  0.9062 -2.4249
   24SAPC  C315 3236   1.103   1.315   8.903 -0.1852  0.1482  0.1592
   24SAPC  H15X 3237   1.127   1.252   8.815  3.9501  1.6021  0.0263
   24SAPC  H15Y 3238   1.110   1.419   8.864  1.1101  0.0428  0.0663
   24SAPC  C316 3239   0.962   1.297   8.961 -0.2232 -0.8380 -0.3339
   24SAPC  H16X 3240   0.957   1.348   9.060 -0.7460 -1.3353 -0.0989
   24SAPC  H16Y 3241   0.949   1.188   8.982  1.0631 -0.7866  0.8636
   24SAPC  C317 3242   0.847   1.346   8.871 -1.1370  0.0075  0.1021
   24SAPC  H17X 3243   0.818   1.280   8.786 -0.4300  2.5480 -2.2524
   24SAPC  H17Y 3244   0.891   1.438   8.827  0.1921 -0.4343  0.4666
   24SAPC  C318 3245   0.716   1.366   8.949 -0.6151 -0.3001 -0.6326
   24SAPC  H18X 3246   0.641   1.391   8.871 -1.6567 -1.0586  0.0833
   24SAPC  H18Y 3247   0.720   1.443   9.029 -0.9765  0.2208 -1.1114
   24SAPC  H18Z 3248   0.683   1.266   8.986  0.1443 -1.5611 -3.1260
   25SAPC     N 3249   3.482   3.627   6.080  0.4828  0.1564  0.3917
   25SAPC   C12 3250   3.364   3.568   6.160 -0.4589 -0.2997  0.3036
   25SAPC  H12A 3251   3.404   3.499   6.232  1.6612  0.0554 -0.4407
   25SAPC  H12B 3252   3.296   3.518   6.092  0.2870  1.3403 -1.7857
   25SAPC   C13 3253   3.589   3.687   6.170 -0.0409  0.4341 -0.1841
   25SAPC  H13A 3254   3.639   3.602   6.213  0.5626 -0.1401 -1.9301
   25SAPC  H13B 3255   3.667   3.729   6.108  1.5745 -0.6021  1.0410
   25SAPC  H13C 3256   3.554   3.754   6.247  1.2989  0.0883  0.7621
   25SAPC   C14 3257   3.547   3.512   6.000  1.0873 -0.1711  0.0157
   25SAPC  H14A 3258   3.490   3.484   5.913 -1.5158  1.1411  1.1522
   25SAPC  H14B 3259   3.642   3.545   5.963  1.5695 -1.2686  0.2430
   25SAPC  H14C 3260   3.565   3.430   6.068 -0.1190  1.0536  1.9083
   25SAPC   C15 3261   3.436   3.729   5.981  0.2203 -0.3743  0.0697
   25SAPC  H15A 3262   3.364   3.791   6.032 -0.4024 -0.1480 -1.0508
   25SAPC  H15B 3263   3.514   3.789   5.937  0.9265  0.4705  2.3156
   25SAPC  H15C 3264   3.386   3.668   5.907  0.5789 -1.2561  0.5384
   25SAPC   C11 3265   3.281   3.665   6.236 -1.2750  0.5943 -1.3807
   25SAPC  H11A 3266   3.349   3.735   6.288 -0.0607  1.1267 -3.5871
   25SAPC  H11B 3267   3.224   3.595   6.301 -1.4564  0.5908 -1.5421
   25SAPC     P 3268   3.057   3.689   6.119  0.2543  0.4401  0.5237
   25SAPC   O13 3269   3.030   3.738   5.986  0.3699 -0.8103  0.1217
   25SAPC   O14 3270   3.052   3.545   6.137  0.4313  0.3050 -0.0420
   25SAPC   O12 3271   3.196   3.748   6.155  0.4647  0.4402 -0.0465
   25SAPC   O11 3272   2.968   3.762   6.222  0.0914 -0.0070 -0.2293
   25SAPC    C1 3273   3.004   3.892   6.278 -0.5523  0.4852 -0.6871
   25SAPC    HA 3274   3.086   3.948   6.227 -0.4138  1.8103  0.9029
   25SAPC    HB 3275   2.923   3.968   6.281  0.4858  1.6041  1.0723
   25SAPC    C2 3276   3.048   3.865   6.432  0.4422 -1.0487  0.5387
   25SAPC    HS 3277   3.134   3.795   6.436  1.0117 -0.4720 -1.1739
   25SAPC   O21 3278   2.935   3.815   6.515  0.4621 -0.0751  0.6493
   25SAPC   C21 3279   2.934   3.694   6.551  0.4276  0.5750 -0.0225
   25SAPC   O22 3280   3.008   3.604   6.528 -0.2056  0.3561  0.2644
   25SAPC   C22 3281   2.821   3.679   6.660  0.6144  0.1748 -0.1932
   25SAPC   H2R 3282   2.785   3.777   6.697 -2.6352 -0.5568 -1.1355
   25SAPC   H2S 3283   2.730   3.637   6.613  0.0545  1.3342 -0.1728
   25SAPC    C3 3284   3.102   3.999   6.495  0.1060 -0.3407 -0.7876
   25SAPC    HX 3285   3.025   4.079   6.493 -1.5726 -1.9067 -0.9488
   25SAPC    HY 3286   3.179   4.034   6.422 -0.3420 -0.2788 -1.2354
   25SAPC   O31 3287   3.148   3.982   6.635  0.8044  0.3286  0.4204
   25SAPC   C31 3288   3.246   4.066   6.684 -0.2746  0.0708  0.2468
   25SAPC   O32 3289   3.284   4.165   6.622  0.2502  0.3282  0.2136
   25SAPC   C32 3290   3.292   4.033   6.829  0.5289  0.2967 -0.5967
   25SAPC   H2X 3291   3.307   3.923   6.832 -1.2108 -0.0286 -1.8132
   25SAPC   H2Y 3292   3.213   4.055   6.904  1.7496 -1.4131  1.2621
   25SAPC   C23 3293   2.859   3.595   6.792 -0.6116  0.7581  0.3415
   25SAPC   H3R 3294   2.958   3.547   6.774 -1.3409 -0.6205 -0.1490
   25SAPC   H3S 3295   2.782   3.515   6.799  2.2629 -2.3727 -1.0047
   25SAPC   C24 3296   2.876   3.678   6.921 -0.3366 -0.0192  0.3352
   25SAPC   H4R 3297   2.779   3.728   6.943 -1.4615 -0.7694 -2.4657
   25SAPC   H4S 3298   2.949   3.759   6.900  0.4592 -0.9876 -0.7524
   25SAPC   C25 3299   2.923   3.592   7.034  0.2416 -0.5096 -0.0720
   25SAPC   H5R 3300   2.962   3.491   7.013  0.7373 -0.1593 -0.8620
   25SAPC   C26 3301   2.917   3.632   7.163  0.3766  0.3824 -0.2619
   25SAPC   H6R 3302   2.956   3.566   7.242  0.9263 -1.4369 -1.9721
   25SAPC   C27 3303   2.871   3.772   7.214  0.5356 -0.2916  0.8749
   25SAPC   H7R 3304   2.762   3.777   7.190  0.8826 -0.8525 -1.0072
   25SAPC   H7S 3305   2.917   3.852   7.153 -0.3817  0.0834  0.6542
   25SAPC   C28 3306   2.905   3.809   7.357 -0.2968  0.3928  0.5036
   25SAPC   H8R 3307   3.000   3.863   7.363 -0.0267 -0.0879  0.6153
   25SAPC   C29 3308   2.854   3.766   7.473 -0.0830  0.6750 -0.9816
   25SAPC   H9R 3309   2.881   3.809   7.570 -5.0847  1.4232  0.3568
   25SAPC  C210 3310   2.745   3.665   7.476 -0.7006  0.4752 -0.1328
   25SAPC  H10R 3311   2.766   3.602   7.565 -1.5321  1.2336  0.6201
   25SAPC  H10S 3312   2.754   3.602   7.385 -1.7918  1.5914 -1.0430
   25SAPC  C211 3313   2.602   3.703   7.472  0.3997 -0.0518  0.5373
   25SAPC  H11R 3314   2.575   3.717   7.366  1.6011 -0.7696  0.1010
   25SAPC  C212 3315   2.513   3.706   7.569  0.5569  0.4663 -0.2852
   25SAPC  H12R 3316   2.408   3.721   7.542 -0.1450 -1.9763  0.8044
   25SAPC  C213 3317   2.539   3.674   7.714  0.2013  0.5303 -0.0409
   25SAPC  H13R 3318   2.478   3.747   7.771 -0.9821 -1.2301  1.0644
   25SAPC  H13S 3319   2.643   3.687   7.750  0.1833  0.0312  0.2047
   25SAPC  C214 3320   2.488   3.535   7.741 -0.2357  0.8243 -0.3522
   25SAPC  H14R 3321   2.426   3.483   7.666  0.4680 -0.4538 -0.0739
   25SAPC  C215 3322   2.491   3.476   7.860 -0.3554 -0.6150  0.0801
   25SAPC  H15R 3323   2.461   3.371   7.863 -0.1294 -0.6838  2.6040
   25SAPC  C216 3324   2.541   3.536   7.987 -0.1096  0.1830 -0.7075
   25SAPC  H16R 3325   2.494   3.635   8.004 -2.2802 -1.0297  0.9576
   25SAPC  H16S 3326   2.652   3.543   7.985 -0.1838  2.1809 -0.1206
   25SAPC  C217 3327   2.505   3.456   8.115  0.4033  0.0150  0.0037
   25SAPC  H17R 3328   2.569   3.491   8.199 -1.0167  0.2959  1.0049
   25SAPC  H17S 3329   2.537   3.352   8.097  0.4211  0.3860 -2.4275
   25SAPC  C218 3330   2.358   3.467   8.160 -0.5295 -0.5367  0.1538
   25SAPC  H18R 3331   2.326   3.383   8.227 -0.6394  0.3300  1.2210
   25SAPC  H18S 3332   2.304   3.457   8.064  2.3011 -1.6066 -1.4387
   25SAPC  C219 3333   2.315   3.604   8.224 -0.1619  0.5491 -0.2690
   25SAPC  H19R 3334   2.304   3.678   8.142  0.1961  0.1036 -0.7195
   25SAPC  H19S 3335   2.389   3.632   8.302 -1.8091  0.0978  1.5480
   25SAPC  C220 3336   2.177   3.589   8.287  1.3702 -0.7715 -0.2171
   25SAPC  H20R 3337   2.182   3.516   8.371  1.9740 -0.9630 -0.4123
   25SAPC  H20S 3338   2.097   3.571   8.212  0.4946 -0.2304  0.5578
   25SAPC  H20T 3339   2.146   3.689   8.325  0.2681 -0.4237 -1.9165
   25SAPC   C33 3340   3.434   4.094   6.854  0.4698  0.3066 -0.5286
   25SAPC   H3X 3341   3.420   4.200   6.884 -2.7777 -0.0153 -0.5704
   25SAPC   H3Y 3342   3.498   4.097   6.763 -1.2343  0.0525 -1.7907
   25SAPC   C34 3343   3.512   4.019   6.969 -0.0627 -0.5876  0.7415
   25SAPC   H4X 3344   3.616   4.051   6.947 -0.0714 -1.9687 -1.6320
   25SAPC   H4Y 3345   3.508   3.912   6.941 -0.2064  0.2130 -2.7257
   25SAPC   C35 3346   3.467   4.046   7.110  0.1750 -0.2386  0.4993
   25SAPC   H5X 3347   3.364   4.005   7.118  0.3329 -0.5260  1.0900
   25SAPC   H5Y 3348   3.455   4.155   7.124  1.1248  0.4507 -2.9625
   25SAPC   C36 3349   3.556   3.983   7.217  0.3529 -0.2135  0.3073
   25SAPC   H6X 3350   3.660   4.019   7.202  0.8793 -1.5321  0.6784
   25SAPC   H6Y 3351   3.547   3.874   7.198  2.3979 -0.5847  1.2520
   25SAPC   C37 3352   3.502   4.019   7.356 -0.9681  0.3799  0.4549
   25SAPC   H7X 3353   3.565   3.961   7.427  1.5099  0.5686 -1.4410
   25SAPC   H7Y 3354   3.402   3.972   7.360 -0.2104 -1.3791 -0.3644
   25SAPC   C38 3355   3.517   4.162   7.400 -1.0103  0.3403 -0.7510
   25SAPC   H8X 3356   3.444   4.237   7.363 -2.2700 -0.9630 -1.0087
   25SAPC   H8Y 3357   3.615   4.192   7.358 -0.0860  0.3888  1.3141
   25SAPC   C39 3358   3.541   4.175   7.550 -0.8577 -0.2343 -0.4460
   25SAPC   H9X 3359   3.561   4.281   7.576  1.7622 -1.0244  1.0885
   25SAPC   H9Y 3360   3.628   4.113   7.581 -2.0818 -1.7724  0.0724
   25SAPC  C310 3361   3.422   4.127   7.633  0.4249  0.1756 -0.9255
   25SAPC  H10X 3362   3.442   4.018   7.638 -1.7007 -0.1983  0.3725
   25SAPC  H10Y 3363   3.325   4.141   7.582 -1.3069  0.0701  2.0775
   25SAPC  C311 3364   3.425   4.186   7.778  0.0322  0.2211  0.5071
   25SAPC  H11X 3365   3.400   4.294   7.785  1.2682  0.5380  0.2887
   25SAPC  H11Y 3366   3.527   4.184   7.821  0.0721  1.3520  0.4802
   25SAPC  C312 3367   3.337   4.107   7.873  0.6581  0.1836  0.5008
   25SAPC  H12X 3368   3.363   3.999   7.876  1.7164  0.4036 -0.2388
   25SAPC  H12Y 3369   3.241   4.125   7.822  2.3901  2.1279 -2.3547
   25SAPC  C313 3370   3.325   4.154   8.017  0.9236  1.1297  0.3717
   25SAPC  H13X 3371   3.320   4.265   8.008 -2.2075  1.0057 -0.7033
   25SAPC  H13Y 3372   3.414   4.114   8.070  0.5938  0.5120  0.4726
   25SAPC  C314 3373   3.207   4.095   8.106 -0.4724 -0.5418 -0.0753
   25SAPC  H14X 3374   3.107   4.123   8.067 -0.2219  0.4052 -0.0488
   25SAPC  H14Y 3375   3.217   4.142   8.206  0.4101  0.5931 -0.6799
   25SAPC  C315 3376   3.214   3.943   8.124 -0.0533  0.4996 -0.1503
   25SAPC  H15X 3377   3.320   3.912   8.137 -0.2995 -0.6459 -0.7193
   25SAPC  H15Y 3378   3.193   3.896   8.025 -1.2007 -1.9982  1.1982
   25SAPC  C316 3379   3.135   3.893   8.242  0.3384 -0.6869 -0.5057
   25SAPC  H16X 3380   3.029   3.899   8.211 -0.0430 -1.3609  0.5874
   25SAPC  H16Y 3381   3.156   3.953   8.333 -0.3253 -1.4423  0.1623
   25SAPC  C317 3382   3.173   3.747   8.273 -0.0959 -0.3459  0.6883
   25SAPC  H17X 3383   3.183   3.688   8.180  0.9982  1.1880 -0.2105
   25SAPC  H17Y 3384   3.075   3.711   8.313 -0.3663 -0.6287 -0.2076
   25SAPC  C318 3385   3.282   3.720   8.381 -0.1336  0.3155  0.1382
   25SAPC  H18X 3386   3.386   3.741   8.345  0.0525  2.4342  1.7131
   25SAPC  H18Y 3387   3.286   3.612   8.405  0.6839 -0.0575 -1.5203
   25SAPC  H18Z 3388   3.259   3.783   8.469  0.1260  1.8537 -0.8490
   26SAPC     N 3389   3.407   4.540   5.824 -0.4158 -0.5850  0.4934
   26SAPC   C12 3390   3.442   4.596   5.954  0.0114  0.6145 -0.6970
   26SAPC  H12A 3391   3.512   4.679   5.946  3.1131 -1.7134  0.3482
   26SAPC  H12B 3392   3.485   4.514   6.009 -0.0923  0.7648 -0.3886
   26SAPC   C13 3393   3.532   4.499   5.754  0.2046  1.0119 -0.8447
   26SAPC  H13A 3394   3.580   4.418   5.808 -2.2049 -0.5165 -0.8377
   26SAPC  H13B 3395   3.522   4.469   5.651 -0.5155 -1.6321 -0.0870
   26SAPC  H13C 3396   3.604   4.578   5.762  0.4664  0.6360  0.9405
   26SAPC   C14 3397   3.321   4.414   5.836  0.4691 -0.2541  0.0519
   26SAPC  H14A 3398   3.218   4.437   5.860  0.4653  0.4525 -0.6280
   26SAPC  H14B 3399   3.318   4.375   5.735  0.2329 -0.8892  0.2990
   26SAPC  H14C 3400   3.380   4.345   5.895  1.1567 -0.6725 -1.0920
   26SAPC   C15 3401   3.328   4.636   5.738  0.0996 -0.3508 -0.3747
   26SAPC  H15A 3402   3.242   4.671   5.792  0.4852  0.4013 -0.2280
   26SAPC  H15B 3403   3.388   4.726   5.730  0.9624 -0.1734  4.5183
   26SAPC  H15C 3404   3.303   4.600   5.640  1.6546  0.6391 -1.1798
   26SAPC   C11 3405   3.332   4.659   6.045 -0.0292 -0.0089  0.0462
   26SAPC  H11A 3406   3.363   4.675   6.150 -1.1553 -0.6986  0.4935
   26SAPC  H11B 3407   3.252   4.582   6.047 -2.0459  1.8439 -2.4434
   26SAPC     P 3408   3.353   4.913   6.014 -0.0136 -0.4001  0.2162
   26SAPC   O13 3409   3.484   4.905   5.953 -0.0232  0.1742  0.8671
   26SAPC   O14 3410   3.267   5.030   5.973  0.2329  0.4323 -0.4445
   26SAPC   O12 3411   3.273   4.779   5.985  0.2054 -0.0126 -0.4517
   26SAPC   O11 3412   3.351   4.910   6.167  0.1493  0.2472  0.1437
   26SAPC    C1 3413   3.231   4.902   6.250 -0.0926  0.2288  0.4854
   26SAPC    HA 3414   3.161   4.985   6.227 -1.2322 -0.9174 -0.4298
   26SAPC    HB 3415   3.184   4.805   6.221  0.0965  0.1457  0.4531
   26SAPC    C2 3416   3.256   4.881   6.396  0.1287  0.3390  0.4523
   26SAPC    HS 3417   3.160   4.859   6.446 -2.1360 -0.8397 -3.9376
   26SAPC   O21 3418   3.325   5.000   6.435  0.3995 -0.6394  0.1370
   26SAPC   C21 3419   3.237   5.098   6.472 -0.2926  0.5287  0.4780
   26SAPC   O22 3420   3.115   5.083   6.472 -0.3388  0.3981  0.3320
   26SAPC   C22 3421   3.311   5.214   6.527 -0.4331 -0.3198 -0.7593
   26SAPC   H2R 3422   3.400   5.176   6.583 -0.8946  2.0865  1.8960
   26SAPC   H2S 3423   3.345   5.271   6.438  0.1841 -0.4463 -0.6080
   26SAPC    C3 3424   3.348   4.753   6.432  0.0034  0.6481 -0.2235
   26SAPC    HX 3425   3.431   4.762   6.360 -0.2669  2.6911 -0.3211
   26SAPC    HY 3426   3.282   4.665   6.415 -0.8446  1.4462 -1.1360
   26SAPC   O31 3427   3.389   4.731   6.567  0.1303 -0.3181 -0.4292
   26SAPC   C31 3428   3.492   4.812   6.604 -0.2688  0.0744 -0.2293
   26SAPC   O32 3429   3.553   4.885   6.529 -0.4636 -0.1241 -0.5824
   26SAPC   C32 3430   3.517   4.809   6.755 -0.3862  0.1262  0.1949
   26SAPC   H2X 3431   3.615   4.853   6.784  0.0761  0.4671 -1.7742
   26SAPC   H2Y 3432   3.519   4.701   6.780  1.7595 -0.0028 -0.3126
   26SAPC   C23 3433   3.217   5.305   6.615 -0.3700 -0.3432  0.0480
   26SAPC   H3R 3434   3.131   5.341   6.555  0.6480  3.2274  0.5287
   26SAPC   H3S 3435   3.279   5.390   6.649 -0.4260 -0.2078 -0.1872
   26SAPC   C24 3436   3.157   5.243   6.741  0.5352 -0.1142 -0.3596
   26SAPC   H4R 3437   3.241   5.229   6.813  0.4387  0.4439 -0.1337
   26SAPC   H4S 3438   3.128   5.141   6.708 -0.0737  0.4395 -1.6107
   26SAPC   C25 3439   3.032   5.303   6.805 -0.1800  0.3726 -0.0183
   26SAPC   H5R 3440   2.937   5.265   6.764 -0.3049  0.4879  0.1652
   26SAPC   C26 3441   3.029   5.399   6.905 -0.5236  0.8591  0.5374
   26SAPC   H6R 3442   2.926   5.430   6.928 -1.5002 -1.4196 -0.4958
   26SAPC   C27 3443   3.151   5.464   6.977  0.7773 -0.1453  0.3511
   26SAPC   H7R 3444   3.128   5.573   6.986  0.8277  0.0586 -1.4789
   26SAPC   H7S 3445   3.243   5.459   6.915  0.8515 -0.4477  0.4868
   26SAPC   C28 3446   3.160   5.404   7.111 -0.2925 -0.1406 -0.4827
   26SAPC   H8R 3447   3.157   5.294   7.112  1.7422 -0.2335 -0.0667
   26SAPC   C29 3448   3.194   5.471   7.226 -0.7385 -0.2802 -0.4546
   26SAPC   H9R 3449   3.182   5.427   7.326 -1.8406  0.6048 -0.1796
   26SAPC  C210 3450   3.207   5.618   7.239 -0.2338 -0.3482 -0.1604
   26SAPC  H10R 3451   3.165   5.630   7.341 -1.5395 -2.9869 -0.2916
   26SAPC  H10S 3452   3.137   5.677   7.176 -0.7711  0.1968  0.9187
   26SAPC  C211 3453   3.345   5.685   7.236  0.4589  0.5027  0.6822
   26SAPC  H11R 3454   3.395   5.697   7.139  0.7940 -0.2370  0.7500
   26SAPC  C212 3455   3.417   5.730   7.339 -0.7329  0.4539  0.1026
   26SAPC  H12R 3456   3.508   5.787   7.313 -1.0338  0.4713 -0.9745
   26SAPC  C213 3457   3.370   5.733   7.475  0.1123 -0.3305  0.1646
   26SAPC  H13R 3458   3.260   5.726   7.487  0.1016 -2.3142 -0.6327
   26SAPC  H13S 3459   3.398   5.828   7.526 -1.2655 -0.2784  0.8737
   26SAPC  C214 3460   3.442   5.626   7.551  0.4738  0.1683  0.1555
   26SAPC  H14R 3461   3.551   5.618   7.550  0.4516 -0.1251 -0.2331
   26SAPC  C215 3462   3.379   5.532   7.620  0.1043 -0.4609 -0.5971
   26SAPC  H15R 3463   3.441   5.474   7.690 -1.0724 -2.5849 -1.2027
   26SAPC  C216 3464   3.227   5.521   7.638 -0.1770  0.6699 -0.1770
   26SAPC  H16R 3465   3.184   5.466   7.551 -0.5491  0.7109 -0.0217
   26SAPC  H16S 3466   3.179   5.621   7.646  0.4360  0.9333  0.3303
   26SAPC  C217 3467   3.174   5.445   7.763 -0.3618 -0.4737 -0.7592
   26SAPC  H17R 3468   3.218   5.344   7.767 -0.0482 -0.3148 -0.0293
   26SAPC  H17S 3469   3.064   5.441   7.749 -0.7052  0.5644  1.2573
   26SAPC  C218 3470   3.201   5.521   7.889 -0.0139 -0.3831 -0.9717
   26SAPC  H18R 3471   3.141   5.614   7.894 -0.9109 -0.9798 -0.4630
   26SAPC  H18S 3472   3.309   5.537   7.910 -0.7934  0.3245  3.3089
   26SAPC  C219 3473   3.158   5.439   8.013 -0.3411 -0.1605  0.1626
   26SAPC  H19R 3474   3.071   5.371   8.002  0.5736 -1.2367 -0.5391
   26SAPC  H19S 3475   3.125   5.517   8.085  2.7564  1.6443 -0.2089
   26SAPC  C220 3476   3.270   5.357   8.083 -0.1560  0.0085 -1.1561
   26SAPC  H20R 3477   3.233   5.316   8.179 -0.5604 -1.3109 -1.8475
   26SAPC  H20S 3478   3.361   5.421   8.089  0.2249 -0.4865 -1.5181
   26SAPC  H20T 3479   3.290   5.269   8.017 -1.7882 -0.6748 -0.7748
   26SAPC   C33 3480   3.414   4.888   6.845 -0.1123 -0.1337 -0.2141
   26SAPC   H3X 3481   3.416   4.995   6.814  0.4995  0.3886  1.5695
   26SAPC   H3Y 3482   3.435   4.891   6.954 -0.7634  2.4021 -0.0853
   26SAPC   C34 3483   3.271   4.840   6.823 -0.0900  0.5918 -0.0378
   26SAPC   H4X 3484   3.265   4.729   6.819 -1.9497  0.6836 -1.7244
   26SAPC   H4Y 3485   3.236   4.873   6.723  1.4149 -0.8937 -1.0983
   26SAPC   C35 3486   3.178   4.893   6.932 -0.4177 -0.0108  0.3942
   26SAPC   H5X 3487   3.171   5.002   6.914 -3.6962 -0.3881 -1.4304
   26SAPC   H5Y 3488   3.205   4.873   7.038 -0.6652 -0.5494  0.3609
   26SAPC   C36 3489   3.033   4.852   6.912  0.0947  0.0476  0.2919
   26SAPC   H6X 3490   3.027   4.757   6.969  0.9246  0.0865  0.4516
   26SAPC   H6Y 3491   3.012   4.839   6.804 -2.2539  1.5929  0.4905
   26SAPC   C37 3492   2.934   4.957   6.965  0.0039  0.3453  0.7503
   26SAPC   H7X 3493   2.831   4.928   6.935 -0.0385 -0.3810  1.5587
   26SAPC   H7Y 3494   2.952   5.056   6.918 -2.2414  0.0508 -0.9645
   26SAPC   C38 3495   2.944   4.960   7.114 -0.2029 -0.1070 -0.3118
   26SAPC   H8X 3496   3.040   5.003   7.149 -0.9454  1.7251 -0.4657
   26SAPC   H8Y 3497   2.943   4.856   7.153  0.9015 -0.0520 -0.1118
   26SAPC   C39 3498   2.829   5.036   7.188 -0.2298  0.2198  0.0824
   26SAPC   H9X 3499   2.733   4.992   7.155  0.4136 -1.1662  0.0149
   26SAPC   H9Y 3500   2.832   5.144   7.162 -2.8184  0.5051  0.7030
   26SAPC  C310 3501   2.837   5.001   7.334 -1.1817 -0.2888  0.0764
   26SAPC  H10X 3502   2.943   5.024   7.359 -1.0303 -0.1587 -0.6525
   26SAPC  H10Y 3503   2.813   4.896   7.359 -1.3774 -0.1527  0.4583
   26SAPC  C311 3504   2.742   5.081   7.425 -0.2781  0.2747 -0.6223
   26SAPC  H11X 3505   2.734   5.039   7.527  0.1092 -0.6103 -0.9518
   26SAPC  H11Y 3506   2.642   5.096   7.380 -0.7127 -1.4404 -0.2831
   26SAPC  C312 3507   2.805   5.225   7.448  0.4076  0.3195 -0.0875
   26SAPC  H12X 3508   2.726   5.275   7.508 -1.0189  0.7127 -2.1711
   26SAPC  H12Y 3509   2.814   5.277   7.350 -0.4859 -0.7499 -0.7650
   26SAPC  C313 3510   2.942   5.235   7.526  0.4659  0.6310 -0.4720
   26SAPC  H13X 3511   2.957   5.339   7.562  0.8052  0.5596 -0.4073
   26SAPC  H13Y 3512   3.031   5.208   7.465  0.2202  0.5744 -0.8110
   26SAPC  C314 3513   2.953   5.139   7.643 -0.2280 -0.3303  0.2981
   26SAPC  H14X 3514   3.053   5.163   7.685  0.0945  1.4932 -1.3562
   26SAPC  H14Y 3515   2.952   5.033   7.611  0.8710  0.2113 -1.6845
   26SAPC  C315 3516   2.840   5.150   7.752 -0.2584  0.8439  0.0825
   26SAPC  H15X 3517   2.744   5.134   7.699  0.8532 -1.3153 -1.4322
   26SAPC  H15Y 3518   2.853   5.253   7.794  1.2162  0.0290  1.7966
   26SAPC  C316 3519   2.847   5.052   7.870 -0.1449 -0.2489  0.5976
   26SAPC  H16X 3520   2.946   5.073   7.917  0.3235  1.4831 -1.0231
   26SAPC  H16Y 3521   2.851   4.948   7.831 -4.6842 -0.4498  0.1442
   26SAPC  C317 3522   2.740   5.049   7.980  0.2103 -0.6213 -0.4448
   26SAPC  H17X 3523   2.640   5.033   7.935  0.3938 -1.6234 -0.5073
   26SAPC  H17Y 3524   2.738   5.151   8.023 -1.0526 -0.9550  0.3203
   26SAPC  C318 3525   2.777   4.949   8.092  1.0219  0.1203  0.2929
   26SAPC  H18X 3526   2.869   4.982   8.146  0.2274  2.6372  0.2065
   26SAPC  H18Y 3527   2.790   4.845   8.054 -1.1279 -0.9393  2.1977
   26SAPC  H18Z 3528   2.696   4.941   8.168  0.9364 -1.2708  0.0887
   27SAPC     N 3529   1.758   6.023   6.257 -0.0823 -0.3152 -0.0628
   27SAPC   C12 3530   1.867   6.009   6.371  0.0166  0.6338  0.7422
   27SAPC  H12A 3531   1.958   5.967   6.331 -0.7805 -2.7051  2.0364
   27SAPC  H12B 3532   1.830   5.941   6.446 -1.0194  2.8195  2.3146
   27SAPC   C13 3533   1.806   6.127   6.160 -0.2576  0.4719  0.2638
   27SAPC  H13A 3534   1.897   6.094   6.113 -0.5795 -0.6297  0.3963
   27SAPC  H13B 3535   1.742   6.131   6.073 -0.7173 -2.9275  0.3125
   27SAPC  H13C 3536   1.822   6.220   6.213 -1.1487 -0.9205  3.1475
   27SAPC   C14 3537   1.739   5.892   6.187  0.2184  0.0617 -0.3631
   27SAPC  H14A 3538   1.832   5.856   6.144  0.8388 -0.3312  1.2451
   27SAPC  H14B 3539   1.705   5.814   6.253  0.8987  0.3692  0.3633
   27SAPC  H14C 3540   1.669   5.891   6.105 -0.0793 -3.3552 -0.2211
   27SAPC   C15 3541   1.628   6.062   6.321 -0.0198 -0.0808  0.0696
   27SAPC  H15A 3542   1.553   6.062   6.243 -0.4641 -1.1157  0.4787
   27SAPC  H15B 3543   1.592   5.991   6.394  0.8537 -2.5137 -1.6989
   27SAPC  H15C 3544   1.636   6.162   6.359  1.0726 -0.1997  0.1737
   27SAPC   C11 3545   1.914   6.133   6.450 -1.1634  0.9045  0.5573
   27SAPC  H11A 3546   1.986   6.189   6.386 -0.9417 -0.5720 -0.5484
   27SAPC  H11B 3547   1.968   6.091   6.538  1.2398  1.5819 -0.5008
   27SAPC     P 3548   1.838   6.311   6.620 -0.0551  0.4039 -0.3786
   27SAPC   O13 3549   1.960   6.392   6.592 -0.9859  0.1717  0.0147
   27SAPC   O14 3550   1.715   6.387   6.647  0.7681 -0.1155  0.1921
   27SAPC   O12 3551   1.805   6.213   6.496 -0.0428 -0.2444  0.1371
   27SAPC   O11 3552   1.865   6.221   6.754 -0.1702 -0.0534  0.4707
   27SAPC    C1 3553   1.767   6.125   6.803  0.5018  0.1386  0.6147
   27SAPC    HA 3554   1.699   6.084   6.726 -0.2643  1.0151  0.8142
   27SAPC    HB 3555   1.810   6.048   6.871 -1.2087 -0.9534  0.5195
   27SAPC    C2 3556   1.668   6.207   6.897  0.2804  0.2961  0.8290
   27SAPC    HS 3557   1.643   6.303   6.847  4.1827  0.0103 -2.1787
   27SAPC   O21 3558   1.731   6.227   7.024  0.3232  1.0078  1.0437
   27SAPC   C21 3559   1.786   6.351   7.041  0.1147 -0.5004 -0.1727
   27SAPC   O22 3560   1.751   6.450   6.988  0.3482 -0.4796  0.4310
   27SAPC   C22 3561   1.903   6.344   7.127 -0.4096 -0.2717  0.9898
   27SAPC   H2R 3562   1.911   6.241   7.169  0.2447 -0.4267  0.5005
   27SAPC   H2S 3563   1.987   6.336   7.055 -2.1167 -2.9418 -0.9139
   27SAPC    C3 3564   1.534   6.125   6.925  0.2627 -0.0034  0.5414
   27SAPC    HX 3565   1.557   6.018   6.941 -0.1038  0.1450  2.2038
   27SAPC    HY 3566   1.487   6.120   6.824 -0.5590 -1.9248  0.9920
   27SAPC   O31 3567   1.457   6.169   7.035 -0.0196  0.3927  0.0324
   27SAPC   C31 3568   1.384   6.273   7.011 -0.2299 -0.7411  0.3477
   27SAPC   O32 3569   1.375   6.334   6.906 -0.0663  0.0056 -0.2091
   27SAPC   C32 3570   1.303   6.290   7.139 -0.1452 -0.7142 -0.3789
   27SAPC   H2X 3571   1.291   6.192   7.190 -1.6067 -0.3923 -0.0716
   27SAPC   H2Y 3572   1.205   6.326   7.102  0.1229  0.7621  0.2987
   27SAPC   C23 3573   1.910   6.456   7.236 -0.3749 -0.4706 -0.2001
   27SAPC   H3R 3574   1.812   6.498   7.268  0.5873  1.0881  0.8710
   27SAPC   H3S 3575   1.974   6.533   7.187  1.2329 -1.0857  0.8362
   27SAPC   C24 3576   1.985   6.406   7.356 -0.2043  1.0535 -0.0276
   27SAPC   H4R 3577   2.029   6.502   7.392  0.6716  1.2662 -1.5877
   27SAPC   H4S 3578   2.077   6.347   7.334 -1.3751 -0.7937 -0.1805
   27SAPC   C25 3579   1.901   6.334   7.462  0.0573 -0.9580 -0.2277
   27SAPC   H5R 3580   1.832   6.259   7.422 -1.1809  0.3174 -0.5386
   27SAPC   C26 3581   1.907   6.342   7.598 -0.1833 -0.1486 -0.0429
   27SAPC   H6R 3582   1.838   6.278   7.654  0.2768 -0.0175  0.6955
   27SAPC   C27 3583   2.006   6.427   7.683  0.6285 -0.1423 -0.2449
   27SAPC   H7R 3584   1.941   6.505   7.727  0.5787 -0.2018 -0.2130
   27SAPC   H7S 3585   2.080   6.483   7.621 -0.3961  0.8573 -0.5824
   27SAPC   C28 3586   2.071   6.330   7.774 -0.3340  0.1838  0.1622
   27SAPC   H8R 3587   2.106   6.244   7.716 -0.5076  1.3920 -1.8388
   27SAPC   C29 3588   2.083   6.346   7.908 -0.4974  0.1461  0.1515
   27SAPC   H9R 3589   2.133   6.261   7.957  0.1507  0.2396 -0.3321
   27SAPC  C210 3590   2.047   6.452   8.003 -0.0101 -0.2738 -0.6644
   27SAPC  H10R 3591   1.950   6.494   7.969 -0.9867 -0.0459  2.1457
   27SAPC  H10S 3592   2.125   6.531   8.007  0.4899 -0.8048  0.2820
   27SAPC  C211 3593   2.031   6.378   8.135 -0.4228 -0.6535 -0.7611
   27SAPC  H11R 3594   1.929   6.364   8.174  1.0033 -0.4077  3.6493
   27SAPC  C212 3595   2.121   6.335   8.226 -0.1037 -0.0908  0.6834
   27SAPC  H12R 3596   2.100   6.273   8.314  1.9073  0.5296  1.6612
   27SAPC  C213 3597   2.268   6.345   8.226 -0.4140  0.6933 -0.2276
   27SAPC  H13R 3598   2.289   6.404   8.317 -1.1523 -1.3173  1.3108
   27SAPC  H13S 3599   2.304   6.406   8.140  1.0353 -2.2821 -1.8586
   27SAPC  C214 3600   2.353   6.218   8.237 -0.1538 -0.0961  0.1131
   27SAPC  H14R 3601   2.355   6.154   8.147  1.9303 -3.0260  2.0559
   27SAPC  C215 3602   2.397   6.163   8.350 -0.4920 -0.1724  0.4034
   27SAPC  H15R 3603   2.446   6.066   8.362  0.2456 -0.0972 -1.6825
   27SAPC  C216 3604   2.367   6.223   8.484  0.4246 -0.1750 -0.7357
   27SAPC  H16R 3605   2.259   6.223   8.511 -0.3279 -1.0402 -3.4044
   27SAPC  H16S 3606   2.400   6.329   8.488  1.4085 -0.4888 -0.2124
   27SAPC  C217 3607   2.452   6.156   8.595 -0.1377 -0.2717  0.7842
   27SAPC  H17R 3608   2.441   6.207   8.693  1.8576  0.4733  0.6484
   27SAPC  H17S 3609   2.558   6.163   8.563  0.1097  2.1769  1.9892
   27SAPC  C218 3610   2.402   6.016   8.630 -0.8748 -0.0697  0.8057
   27SAPC  H18R 3611   2.363   5.952   8.549  1.8046 -1.0748  0.2144
   27SAPC  H18S 3612   2.315   6.022   8.698 -1.5548 -3.0912  0.3372
   27SAPC  C219 3613   2.509   5.932   8.693 -0.2761  0.5717 -0.3921
   27SAPC  H19R 3614   2.585   5.900   8.619  1.1213  0.5015  1.0145
   27SAPC  H19S 3615   2.460   5.841   8.733  2.6397 -0.7665  0.4235
   27SAPC  C220 3616   2.582   6.006   8.807 -0.3749  0.0661 -0.5506
   27SAPC  H20R 3617   2.635   5.930   8.868  0.5571  1.4440  0.4422
   27SAPC  H20S 3618   2.506   6.059   8.868  0.8989  2.6552 -1.0825
   27SAPC  H20T 3619   2.665   6.072   8.773  1.7433 -1.8525  0.6557
   27SAPC   C33 3620   1.358   6.404   7.227 -0.0727 -0.6398  0.1313
   27SAPC   H3X 3621   1.277   6.423   7.300  0.1576  0.1491  0.1851
   27SAPC   H3Y 3622   1.372   6.495   7.165  1.5578 -0.5775  0.5464
   27SAPC   C34 3623   1.490   6.371   7.296  0.8998 -0.1300 -0.3272
   27SAPC   H4X 3624   1.538   6.467   7.324  1.6114 -0.2925 -0.9633
   27SAPC   H4Y 3625   1.563   6.315   7.233  2.6546  1.5860  0.0648
   27SAPC   C35 3626   1.480   6.289   7.427  0.2918 -0.4782  1.0969
   27SAPC   H5X 3627   1.385   6.312   7.479  0.6312 -0.0226  1.5219
   27SAPC   H5Y 3628   1.577   6.317   7.473  1.2606  0.9136 -1.5414
   27SAPC   C36 3629   1.483   6.138   7.388  0.1336  0.3957 -0.2949
   27SAPC   H6X 3630   1.539   6.109   7.297  1.4365 -2.0149  1.1802
   27SAPC   H6Y 3631   1.380   6.100   7.379 -0.7759  2.1915  1.5898
   27SAPC   C37 3632   1.553   6.063   7.508  1.0847 -0.3458 -0.2125
   27SAPC   H7X 3633   1.650   6.112   7.531  0.7897 -0.5493  1.5829
   27SAPC   H7Y 3634   1.567   5.955   7.484 -0.7004 -1.5881  3.5854
   27SAPC   C38 3635   1.476   6.054   7.635 -0.0721 -0.0648 -0.1611
   27SAPC   H8X 3636   1.386   5.991   7.615  0.0326 -0.3245  0.1834
   27SAPC   H8Y 3637   1.435   6.151   7.671 -1.9673 -0.0007 -2.2118
   27SAPC   C39 3638   1.560   5.986   7.750 -0.1873  0.1091  0.2421
   27SAPC   H9X 3639   1.646   6.054   7.765  0.9002 -0.9117 -1.0895
   27SAPC   H9Y 3640   1.601   5.888   7.715 -2.8952 -1.1654  0.3330
   27SAPC  C310 3641   1.475   5.958   7.872 -0.7123 -0.0434 -0.0732
   27SAPC  H10X 3642   1.378   5.912   7.844 -1.5701  1.2520  0.6628
   27SAPC  H10Y 3643   1.434   6.052   7.914 -0.9801 -0.1999  0.0205
   27SAPC  C311 3644   1.558   5.879   7.980  0.1782  0.1952  0.8847
   27SAPC  H11X 3645   1.650   5.938   7.995  1.5035 -1.6596  0.3852
   27SAPC  H11Y 3646   1.580   5.778   7.940  0.7269  0.4660  0.4954
   27SAPC  C312 3647   1.482   5.860   8.108  0.0516  0.2815 -0.0217
   27SAPC  H12X 3648   1.400   5.790   8.081 -0.6131  0.8257  0.5460
   27SAPC  H12Y 3649   1.444   5.962   8.132  0.7496  0.5780 -0.1713
   27SAPC  C313 3650   1.562   5.790   8.217  0.4101 -0.1380 -0.2564
   27SAPC  H13X 3651   1.505   5.811   8.310 -0.9453  0.1360 -1.1337
   27SAPC  H13Y 3652   1.657   5.848   8.218 -1.0187  2.3753  1.4805
   27SAPC  C314 3653   1.575   5.639   8.182  0.0345  0.2827 -0.3149
   27SAPC  H14X 3654   1.655   5.619   8.107 -1.1695 -1.9032 -1.1169
   27SAPC  H14Y 3655   1.471   5.613   8.151 -0.2912 -0.0320  0.9531
   27SAPC  C315 3656   1.599   5.554   8.312 -0.0473 -0.2425 -1.3872
   27SAPC  H15X 3657   1.573   5.447   8.298 -1.8892  0.0613 -0.4825
   27SAPC  H15Y 3658   1.525   5.582   8.390  0.6739 -0.0565 -0.7592
   27SAPC  C316 3659   1.737   5.583   8.372 -0.7845  0.0076  0.0750
   27SAPC  H16X 3660   1.731   5.679   8.429 -1.7205  0.2755 -0.4566
   27SAPC  H16Y 3661   1.796   5.590   8.279 -1.0618 -1.5722 -0.2370
   27SAPC  C317 3662   1.789   5.470   8.460 -0.4511  0.0109 -0.4170
   27SAPC  H17X 3663   1.899   5.462   8.467 -0.3581  1.4450  0.2005
   27SAPC  H17Y 3664   1.762   5.367   8.428  1.5747 -0.1127 -1.8506
   27SAPC  C318 3665   1.747   5.499   8.609 -0.3711 -0.2526  0.2520
   27SAPC  H18X 3666   1.651   5.556   8.604  0.3742  0.9420 -3.4913
   27SAPC  H18Y 3667   1.821   5.565   8.657  1.1808 -2.2736  0.7851
   27SAPC  H18Z 3668   1.726   5.405   8.665 -4.4254  0.3193 -0.0043
   28SAPC     N 3669   5.551   0.995   6.213  0.3783 -0.2749  0.0029
   28SAPC   C12 3670   5.559   1.126   6.294  1.0138 -0.1157 -0.3448
   28SAPC  H12A 3671   5.479   1.131   6.366  1.0900  0.3415 -0.2881
   28SAPC  H12B 3672   5.538   1.213   6.233  0.6654  0.4467  0.5520
   28SAPC   C13 3673   5.407   0.981   6.177  0.5435  0.1091  0.3530
   28SAPC  H13A 3674   5.376   1.055   6.104 -0.7173  1.6567  2.3468
   28SAPC  H13B 3675   5.392   0.893   6.116 -0.7290  1.1984 -0.9921
   28SAPC  H13C 3676   5.332   0.988   6.254 -1.1834  0.3657 -1.2577
   28SAPC   C14 3677   5.629   1.002   6.084 -0.2599 -0.1672  0.8133
   28SAPC  H14A 3678   5.589   1.080   6.021 -1.7482 -0.6481  1.1173
   28SAPC  H14B 3679   5.729   1.041   6.096 -0.3401  1.8825 -3.5264
   28SAPC  H14C 3680   5.630   0.913   6.022  0.4959 -2.2287  3.5871
   28SAPC   C15 3681   5.597   0.875   6.290 -0.1360 -0.2879  0.7468
   28SAPC  H15A 3682   5.702   0.887   6.316 -0.2733  0.7504  0.8777
   28SAPC  H15B 3683   5.543   0.861   6.383 -0.2009  2.4906  1.2325
   28SAPC  H15C 3684   5.576   0.791   6.226  2.0145  0.7168 -1.4630
   28SAPC   C11 3685   5.692   1.155   6.361 -0.0825  0.1487  0.0218
   28SAPC  H11A 3686   5.720   1.069   6.426 -1.5027  1.0208  1.9041
   28SAPC  H11B 3687   5.679   1.239   6.434  3.4555 -1.1493  2.4570
   28SAPC     P 3688   5.947   1.197   6.315 -0.0564 -0.4728 -0.0406
   28SAPC   O13 3689   6.036   1.144   6.213  0.4488  0.0973 -0.0677
   28SAPC   O14 3690   5.960   1.345   6.335  0.0389  0.3302  0.1020
   28SAPC   O12 3691   5.798   1.181   6.266  0.2526  0.0502  0.7994
   28SAPC   O11 3692   5.958   1.116   6.453 -0.2690 -0.5694  0.0062
   28SAPC    C1 3693   6.056   1.149   6.549 -0.0018 -0.3502  0.2081
   28SAPC    HA 3694   6.128   1.065   6.561  0.1007 -0.1712  0.9004
   28SAPC    HB 3695   6.117   1.240   6.535 -2.0782  1.7535  3.4097
   28SAPC    C2 3696   5.999   1.147   6.698  0.2913 -0.8186  0.4609
   28SAPC    HS 3697   6.082   1.174   6.767 -0.6675 -0.9088  1.6860
   28SAPC   O21 3698   5.943   1.015   6.717  0.6152 -0.2019 -0.3306
   28SAPC   C21 3699   6.035   0.936   6.767 -0.0169 -0.2404 -0.0685
   28SAPC   O22 3700   6.156   0.970   6.783  0.4092  0.5558  0.2194
   28SAPC   C22 3701   5.970   0.805   6.798  0.3409  0.6950  0.5839
   28SAPC   H2R 3702   5.872   0.806   6.746  1.0028 -0.7917 -0.7670
   28SAPC   H2S 3703   6.031   0.727   6.748 -0.3783  1.2165 -1.1945
   28SAPC    C3 3704   5.897   1.271   6.720 -0.1101  0.6401  0.3337
   28SAPC    HX 3705   5.839   1.296   6.628  0.7609  0.6447 -0.2232
   28SAPC    HY 3706   5.950   1.364   6.751 -1.0539  1.6912 -1.0881
   28SAPC   O31 3707   5.797   1.235   6.815 -0.1038  0.2966 -0.5079
   28SAPC   C31 3708   5.834   1.241   6.943  0.2899  0.2380  0.0390
   28SAPC   O32 3709   5.944   1.280   6.980  0.2780 -0.3414 -0.3347
   28SAPC   C32 3710   5.710   1.217   7.023 -0.5999 -0.3865  0.0513
   28SAPC   H2X 3711   5.619   1.257   6.973 -0.1709  1.5590  0.7397
   28SAPC   H2Y 3712   5.715   1.277   7.116  0.5283 -1.5477  0.7713
   28SAPC   C23 3713   5.953   0.780   6.947  0.0330  0.9946  0.1452
   28SAPC   H3R 3714   5.911   0.678   6.953  2.6291 -0.2119 -0.8822
   28SAPC   H3S 3715   5.883   0.858   6.986 -1.8907  0.2449 -1.5832
   28SAPC   C24 3716   6.080   0.784   7.040  0.3340  0.0810  0.3783
   28SAPC   H4R 3717   6.051   0.722   7.127 -0.8821 -0.0158 -0.0724
   28SAPC   H4S 3718   6.163   0.726   6.995  2.5059  0.6164  3.4524
   28SAPC   C25 3719   6.124   0.916   7.106  0.2633 -0.4607 -0.4509
   28SAPC   H5R 3720   6.197   0.969   7.043 -0.4701  1.1442 -0.0015
   28SAPC   C26 3721   6.090   0.964   7.227  0.6907 -0.5141 -0.1147
   28SAPC   H6R 3722   6.138   1.061   7.250  1.5214 -0.6862 -1.0447
   28SAPC   C27 3723   6.009   0.887   7.332  0.2823  0.6746 -0.3233
   28SAPC   H7R 3724   5.973   0.793   7.286 -1.6940  1.6747 -0.9220
   28SAPC   H7S 3725   5.916   0.942   7.358  0.6473  0.5805  1.3273
   28SAPC   C28 3726   6.097   0.872   7.454  0.5138  0.6136 -0.4361
   28SAPC   H8R 3727   6.176   0.798   7.434  0.6959  1.5412 -3.6413
   28SAPC   C29 3728   6.076   0.919   7.576 -0.2601 -0.4301 -0.2429
   28SAPC   H9R 3729   6.154   0.909   7.653  0.1657  1.4623 -0.4048
   28SAPC  C210 3730   5.972   1.013   7.610  0.2326  0.1206  0.2996
   28SAPC  H10R 3731   5.954   1.003   7.720 -1.8387 -1.7193 -0.1300
   28SAPC  H10S 3732   5.876   0.987   7.560 -0.2608  1.7440  0.3590
   28SAPC  C211 3733   6.008   1.161   7.583 -0.1458  0.6661  0.1319
   28SAPC  H11R 3734   6.095   1.196   7.640  0.5658 -0.0742 -0.4727
   28SAPC  C212 3735   5.949   1.241   7.495  0.1074  0.2743 -0.5893
   28SAPC  H12R 3736   5.994   1.342   7.490 -0.5354  0.5862 -0.2068
   28SAPC  C213 3737   5.830   1.227   7.402 -0.4084 -0.2645  0.0572
   28SAPC  H13R 3738   5.796   1.122   7.399 -0.5469 -0.2511  0.8002
   28SAPC  H13S 3739   5.866   1.258   7.302  0.9103  1.4592  1.0033
   28SAPC  C214 3740   5.709   1.321   7.434 -0.1285 -0.4394  0.2933
   28SAPC  H14R 3741   5.637   1.285   7.509 -0.9698  1.7557  0.6284
   28SAPC  C215 3742   5.695   1.444   7.390  0.0250 -0.4120  0.2230
   28SAPC  H15R 3743   5.622   1.513   7.435  2.1720  1.3412  1.1872
   28SAPC  C216 3744   5.788   1.509   7.286  0.0515 -0.1934  0.4817
   28SAPC  H16R 3745   5.851   1.444   7.222  0.3720  1.0913 -0.5420
   28SAPC  H16S 3746   5.861   1.575   7.337 -0.4721  0.1718  0.7691
   28SAPC  C217 3747   5.699   1.587   7.174 -0.1672  0.5651  0.3185
   28SAPC  H17R 3748   5.631   1.669   7.204 -0.9755 -0.4939  1.4533
   28SAPC  H17S 3749   5.635   1.512   7.122 -0.0505  1.0077 -0.4809
   28SAPC  C218 3750   5.786   1.642   7.052  0.1160 -0.5381 -0.0933
   28SAPC  H18R 3751   5.884   1.590   7.046 -0.3146 -1.3705 -0.0215
   28SAPC  H18S 3752   5.805   1.750   7.070 -1.9751 -0.1940  0.1987
   28SAPC  C219 3753   5.723   1.622   6.914  0.9594 -0.8714  0.3707
   28SAPC  H19R 3754   5.626   1.673   6.899  1.4006  0.4251  1.7248
   28SAPC  H19S 3755   5.704   1.513   6.916  0.6886 -0.8233  0.3470
   28SAPC  C220 3756   5.809   1.657   6.797  0.0172 -0.0023 -0.5921
   28SAPC  H20R 3757   5.746   1.627   6.711 -0.3654 -1.2291  0.0880
   28SAPC  H20S 3758   5.909   1.610   6.795  0.3198  0.6410 -1.1241
   28SAPC  H20T 3759   5.815   1.768   6.792  1.3125 -0.1043 -1.7260
   28SAPC   C33 3760   5.686   1.077   7.082  0.7474  0.3391  0.2787
   28SAPC   H3X 3761   5.735   1.071   7.182 -0.2159 -1.1733  0.6921
   28SAPC   H3Y 3762   5.719   0.998   7.012 -1.2737  0.3916 -0.7862
   28SAPC   C34 3763   5.538   1.050   7.118  0.4781  0.1392  0.3649
   28SAPC   H4X 3764   5.528   0.947   7.159 -0.8672  0.0613 -0.1050
   28SAPC   H4Y 3765   5.482   1.049   7.022  1.4557  1.1353 -0.2328
   28SAPC   C35 3766   5.465   1.160   7.194 -0.3423  0.5866 -0.0276
   28SAPC   H5X 3767   5.466   1.255   7.136  0.8558  0.8933  0.4738
   28SAPC   H5Y 3768   5.522   1.174   7.288 -1.8698  0.4976  0.9375
   28SAPC   C36 3769   5.321   1.126   7.226  0.2888  1.3027 -0.7585
   28SAPC   H6X 3770   5.253   1.102   7.141  0.0892 -0.9708 -0.0296
   28SAPC   H6Y 3771   5.269   1.211   7.275 -0.3772  1.7374 -2.1419
   28SAPC   C37 3772   5.304   1.000   7.315  0.6136  0.1687 -0.1453
   28SAPC   H7X 3773   5.337   0.912   7.255  4.4767 -0.0667  1.9972
   28SAPC   H7Y 3774   5.197   0.991   7.344  1.4327 -0.7561  2.9127
   28SAPC   C38 3775   5.383   1.005   7.451 -0.0424  0.0190 -0.9597
   28SAPC   H8X 3776   5.492   0.989   7.439 -0.3106 -2.2003 -0.8295
   28SAPC   H8Y 3777   5.352   0.916   7.511  1.0524 -0.2121 -0.7223
   28SAPC   C39 3778   5.352   1.117   7.550  0.3054 -0.0522 -0.3147
   28SAPC   H9X 3779   5.246   1.137   7.578  0.1593 -0.3286 -0.6713
   28SAPC   H9Y 3780   5.380   1.216   7.509  0.7307 -0.2959 -0.6191
   28SAPC  C310 3781   5.426   1.090   7.679  0.0059 -0.0849  1.5425
   28SAPC  H10X 3782   5.418   1.180   7.744 -3.2029  0.3862  0.6638
   28SAPC  H10Y 3783   5.529   1.058   7.653 -0.2864 -3.5255  3.9173
   28SAPC  C311 3784   5.360   0.985   7.765  0.1173  0.8325 -0.4260
   28SAPC  H11X 3785   5.354   0.886   7.714  1.3955  0.2613  0.4825
   28SAPC  H11Y 3786   5.255   1.018   7.774 -0.1040  0.3316 -1.0485
   28SAPC  C312 3787   5.425   0.967   7.906  0.4177  0.0133  0.1499
   28SAPC  H12X 3788   5.480   1.062   7.926 -2.0938  1.3701  1.0690
   28SAPC  H12Y 3789   5.500   0.885   7.906  0.7098  0.2784  0.2618
   28SAPC  C313 3790   5.326   0.922   8.012  0.0704  0.2662  0.5396
   28SAPC  H13X 3791   5.274   0.825   7.996 -1.2100  1.0306 -0.1230
   28SAPC  H13Y 3792   5.247   1.001   8.018 -0.5798 -0.1894 -1.2780
   28SAPC  C314 3793   5.391   0.904   8.142 -0.0703 -0.0981 -0.5003
   28SAPC  H14X 3794   5.412   1.000   8.192  2.6141 -1.1218  0.5206
   28SAPC  H14Y 3795   5.479   0.836   8.137  0.1324  0.1267  0.0064
   28SAPC  C315 3796   5.303   0.842   8.256 -0.4171 -0.2733 -0.1925
   28SAPC  H15X 3797   5.279   0.741   8.217  0.9677 -1.3688  1.6104
   28SAPC  H15Y 3798   5.213   0.906   8.266 -0.5152 -0.4775  0.2534
   28SAPC  C316 3799   5.366   0.837   8.398 -0.2091  0.4939  0.4151
   28SAPC  H16X 3800   5.458   0.775   8.402 -1.5716 -1.6488  0.0812
   28SAPC  H16Y 3801   5.279   0.792   8.451  0.3929  0.5671  1.4766
   28SAPC  C317 3802   5.400   0.971   8.466  0.3995  0.0423  0.3254
   28SAPC  H17X 3803   5.482   1.022   8.413 -1.0270  1.0284 -1.0206
   28SAPC  H17Y 3804   5.429   0.952   8.572 -1.1357  0.8406  0.9303
   28SAPC  C318 3805   5.285   1.069   8.477  0.1241  0.4032  0.0411
   28SAPC  H18X 3806   5.185   1.032   8.508 -0.8104  2.3945 -0.4895
   28SAPC  H18Y 3807   5.281   1.118   8.378 -1.1737  0.4197  0.0917
   28SAPC  H18Z 3808   5.316   1.149   8.547  0.2394  0.2427  0.1762
   29SAPC     N 3809   1.944   0.184   5.898 -0.1761  0.0593 -0.1728
   29SAPC   C12 3810   1.951   0.204   6.047 -0.1647  0.0548  0.4440
   29SAPC  H12A 3811   1.853   0.210   6.090 -1.2370 -1.3861 -1.6334
   29SAPC  H12B 3812   1.992   0.302   6.066 -1.9349  1.3251 -1.9007
   29SAPC   C13 3813   1.858   0.070   5.863  0.6620  0.2459 -0.1119
   29SAPC  H13A 3814   1.822   0.069   5.761  0.1042 -1.1911  0.0823
   29SAPC  H13B 3815   1.915  -0.020   5.878 -0.7240 -0.5166  0.8409
   29SAPC  H13C 3816   1.769   0.059   5.923  1.0517 -1.6399  0.1776
   29SAPC   C14 3817   1.891   0.308   5.832 -0.7744 -0.3319  0.0835
   29SAPC  H14A 3818   1.793   0.330   5.869 -0.6393 -0.3159  0.4273
   29SAPC  H14B 3819   1.965   0.386   5.841  0.6876 -1.2817 -2.3588
   29SAPC  H14C 3820   1.884   0.294   5.725 -0.7656  0.2776  0.0009
   29SAPC   C15 3821   2.086   0.160   5.854 -0.5817 -0.8186  0.2975
   29SAPC  H15A 3822   2.134   0.092   5.923 -2.1542  0.2217  2.5518
   29SAPC  H15B 3823   2.085   0.127   5.751 -0.0943  1.2431 -0.4165
   29SAPC  H15C 3824   2.147   0.248   5.870 -1.3090  0.5290 -3.3277
   29SAPC   C11 3825   2.029   0.113   6.139 -0.2334  0.1278  0.5343
   29SAPC  H11A 3826   2.015   0.008   6.104 -1.3081  0.4835 -0.1397
   29SAPC  H11B 3827   1.993   0.123   6.243  1.4533  0.5811  1.0942
   29SAPC     P 3828   2.276   0.068   6.197 -0.1503  0.1676  0.1367
   29SAPC   O13 3829   2.241  -0.076   6.210 -0.2007 -0.2709 -0.4445
   29SAPC   O14 3830   2.406   0.104   6.132 -0.1145 -0.0546  0.0027
   29SAPC   O12 3831   2.164   0.143   6.117 -0.5356  0.3675 -0.1398
   29SAPC   O11 3832   2.271   0.117   6.354  0.7518  0.3336 -0.8443
   29SAPC    C1 3833   2.304   0.253   6.374 -0.0172 -0.2610  0.2930
   29SAPC    HA 3834   2.407   0.280   6.341 -1.6638  3.3728 -2.7441
   29SAPC    HB 3835   2.239   0.314   6.307 -1.3077 -2.3779 -0.4917
   29SAPC    C2 3836   2.282   0.294   6.523  0.1268  0.3518 -0.0318
   29SAPC    HS 3837   2.172   0.281   6.530 -0.3366  2.4890 -2.0835
   29SAPC   O21 3838   2.305   0.432   6.553  0.1823 -0.5335 -0.2069
   29SAPC   C21 3839   2.240   0.521   6.494  0.2927 -1.2445  0.0635
   29SAPC   O22 3840   2.136   0.513   6.428 -0.7377 -0.5009  0.4546
   29SAPC   C22 3841   2.293   0.662   6.544 -0.0457  0.2099  0.0909
   29SAPC   H2R 3842   2.404   0.650   6.549 -0.2945 -3.3770 -0.2213
   29SAPC   H2S 3843   2.268   0.744   6.473 -0.7098 -0.4109 -0.3993
   29SAPC    C3 3844   2.365   0.196   6.612  0.3185  0.1513  0.4466
   29SAPC    HX 3845   2.472   0.209   6.589  0.1951 -1.7661 -1.4527
   29SAPC    HY 3846   2.334   0.095   6.578 -0.3874  0.4545  0.1654
   29SAPC   O31 3847   2.337   0.211   6.753 -0.3458  0.7994  0.3492
   29SAPC   C31 3848   2.221   0.156   6.795  0.3560 -0.5058 -0.0334
   29SAPC   O32 3849   2.139   0.099   6.728 -0.3820  0.1786 -0.1933
   29SAPC   C32 3850   2.212   0.194   6.936 -0.4950 -0.0927  0.1260
   29SAPC   H2X 3851   2.176   0.299   6.932  1.6076  0.7144  1.0360
   29SAPC   H2Y 3852   2.310   0.186   6.986 -1.0990  0.5111  1.4696
   29SAPC   C23 3853   2.245   0.706   6.679 -0.2451 -0.2344 -0.0134
   29SAPC   H3R 3854   2.134   0.717   6.680 -0.2953 -0.7239  0.6147
   29SAPC   H3S 3855   2.286   0.806   6.707 -0.4106 -0.2235  0.1942
   29SAPC   C24 3856   2.279   0.605   6.792 -0.3408  0.4245 -0.4515
   29SAPC   H4R 3857   2.389   0.589   6.789 -0.5470 -1.2240 -0.1646
   29SAPC   H4S 3858   2.228   0.506   6.791  0.0673  0.1308  2.0231
   29SAPC   C25 3859   2.230   0.664   6.921 -0.0810 -0.2267  0.6771
   29SAPC   H5R 3860   2.150   0.738   6.907 -0.9259 -1.3242 -0.4482
   29SAPC   C26 3861   2.279   0.648   7.045 -0.1011 -0.0226 -0.6408
   29SAPC   H6R 3862   2.228   0.708   7.122 -0.0413  0.3745 -0.9067
   29SAPC   C27 3863   2.385   0.555   7.076  0.2527 -0.5116 -0.5329
   29SAPC   H7R 3864   2.463   0.610   7.132  0.4664 -1.8798  0.5692
   29SAPC   H7S 3865   2.426   0.515   6.980 -3.2219  0.0298 -2.4369
   29SAPC   C28 3866   2.337   0.439   7.158  0.3747 -0.3606 -0.2143
   29SAPC   H8R 3867   2.256   0.386   7.106  1.0647 -0.9910 -0.6658
   29SAPC   C29 3868   2.377   0.407   7.284 -0.5444  0.1096 -0.2031
   29SAPC   H9R 3869   2.338   0.317   7.333 -0.1231  0.3944  0.6765
   29SAPC  C210 3870   2.481   0.471   7.374  0.1907 -0.1559 -0.1310
   29SAPC  H10R 3871   2.544   0.549   7.326 -0.7355 -0.2902 -1.6407
   29SAPC  H10S 3872   2.553   0.394   7.408  1.9208  0.7620 -1.5576
   29SAPC  C211 3873   2.394   0.537   7.486 -0.2307  0.0986  0.8254
   29SAPC  H11R 3874   2.303   0.582   7.445  0.0632  0.3860  0.4887
   29SAPC  C212 3875   2.421   0.524   7.615  0.7644  0.2959 -0.2419
   29SAPC  H12R 3876   2.355   0.576   7.686 -1.4986 -0.6150 -1.5889
   29SAPC  C213 3877   2.551   0.476   7.677  0.3859 -1.1999 -0.1290
   29SAPC  H13R 3878   2.622   0.458   7.593 -0.5517  0.2964 -1.3097
   29SAPC  H13S 3879   2.544   0.373   7.718  0.6006 -1.2647 -0.2525
   29SAPC  C214 3880   2.623   0.564   7.778  0.8056 -0.3084 -0.0778
   29SAPC  H14R 3881   2.678   0.651   7.739 -0.8122  0.7084 -0.1809
   29SAPC  C215 3882   2.622   0.561   7.911  0.7301 -0.2667  0.4753
   29SAPC  H15R 3883   2.674   0.635   7.974 -0.0974  1.1192 -0.4314
   29SAPC  C216 3884   2.541   0.462   7.987 -0.1280  0.1824 -0.3261
   29SAPC  H16R 3885   2.561   0.360   7.950 -0.3217  0.9426 -2.6950
   29SAPC  H16S 3886   2.430   0.470   7.981 -0.1630  0.1025  0.1141
   29SAPC  C217 3887   2.580   0.483   8.144  0.2730 -0.2722 -0.1285
   29SAPC  H17R 3888   2.535   0.579   8.179 -0.8001  0.1329 -2.3989
   29SAPC  H17S 3889   2.688   0.471   8.164 -0.2264 -2.1733  1.9673
   29SAPC  C218 3890   2.521   0.384   8.242  0.4120  0.7093 -0.2002
   29SAPC  H18R 3891   2.567   0.286   8.218 -1.6152 -0.3206 -0.0891
   29SAPC  H18S 3892   2.412   0.366   8.229  0.2456  1.5699 -0.0584
   29SAPC  C219 3893   2.555   0.418   8.387 -0.0036  0.8515 -0.4230
   29SAPC  H19R 3894   2.485   0.359   8.450 -2.2791  0.4021 -3.1205
   29SAPC  H19S 3895   2.545   0.527   8.409 -0.3725  0.7380 -0.0087
   29SAPC  C220 3896   2.703   0.385   8.440  0.2559 -0.8394 -0.4806
   29SAPC  H20R 3897   2.776   0.448   8.383 -0.5365  1.3739  0.8385
   29SAPC  H20S 3898   2.737   0.279   8.438 -0.7806 -1.1917 -0.0983
   29SAPC  H20T 3899   2.711   0.424   8.544  2.6957 -2.6784  0.1197
   29SAPC   C33 3900   2.127   0.092   7.017  0.0936  0.1384 -0.2551
   29SAPC   H3X 3901   2.176  -0.005   6.993  1.5711  0.8661 -0.2648
   29SAPC   H3Y 3902   2.029   0.085   6.966  0.4755  0.9945 -1.1444
   29SAPC   C34 3903   2.116   0.110   7.170 -0.4080  0.1278 -0.3108
   29SAPC   H4X 3904   2.024   0.066   7.213 -1.4453  0.5141 -2.0081
   29SAPC   H4Y 3905   2.103   0.220   7.181 -0.5440  0.1675 -0.8118
   29SAPC   C35 3906   2.233   0.053   7.250  0.0873  1.0535  0.6305
   29SAPC   H5X 3907   2.331   0.105   7.243  0.5963 -0.0473 -1.0833
   29SAPC   H5Y 3908   2.251  -0.051   7.215 -0.0817  0.9248  0.9202
   29SAPC   C36 3909   2.190   0.050   7.395  0.2611 -0.3271  0.0677
   29SAPC   H6X 3910   2.097  -0.010   7.401  0.1349 -0.1690 -0.2896
   29SAPC   H6Y 3911   2.161   0.153   7.424  0.8537  0.2974 -1.4695
   29SAPC   C37 3912   2.295   0.010   7.501 -0.3971 -0.2792  0.2033
   29SAPC   H7X 3913   2.401   0.007   7.470 -0.0100  0.3103  1.4093
   29SAPC   H7Y 3914   2.266  -0.091   7.536 -0.8314 -0.9137 -1.8793
   29SAPC   C38 3915   2.289   0.105   7.618  0.2560 -0.5134 -0.6953
   29SAPC   H8X 3916   2.188   0.152   7.620  1.0770  1.5618 -2.6811
   29SAPC   H8Y 3917   2.350   0.198   7.607 -2.5639  1.6912  0.8857
   29SAPC   C39 3918   2.316   0.029   7.746  0.4062  0.8797  0.0487
   29SAPC   H9X 3919   2.404  -0.038   7.734 -0.3210  0.0637 -0.8193
   29SAPC   H9Y 3920   2.231  -0.040   7.759 -1.0423  2.0779 -2.4087
   29SAPC  C310 3921   2.340   0.125   7.859  0.2683 -0.7660  0.2122
   29SAPC  H10X 3922   2.255   0.197   7.862  1.5145  0.7242  1.1080
   29SAPC  H10Y 3923   2.430   0.182   7.829 -0.0043 -0.4093  0.0730
   29SAPC  C311 3924   2.372   0.059   7.995 -0.2241  0.0082  0.2357
   29SAPC  H11X 3925   2.378   0.142   8.068 -1.3525 -0.4998  0.9385
   29SAPC  H11Y 3926   2.471   0.010   8.011 -0.9873 -1.1019  1.8278
   29SAPC  C312 3927   2.272  -0.038   8.057 -0.0604  0.0430  0.2924
   29SAPC  H12X 3928   2.273  -0.122   7.984  0.6100 -0.4633  0.8736
   29SAPC  H12Y 3929   2.174   0.013   8.057  0.1663  0.5078 -0.7969
   29SAPC  C313 3930   2.318  -0.096   8.198  0.7789  0.7226  0.4461
   29SAPC  H13X 3931   2.409  -0.158   8.182 -0.8230 -1.5904 -0.1058
   29SAPC  H13Y 3932   2.238  -0.167   8.229  1.2601 -1.0436 -2.0671
   29SAPC  C314 3933   2.324   0.019   8.298  0.1873 -0.0664 -0.6726
   29SAPC  H14X 3934   2.227   0.073   8.296  1.7919  3.0399 -0.5415
   29SAPC  H14Y 3935   2.400   0.093   8.264 -1.1187  1.9664  0.6521
   29SAPC  C315 3936   2.363  -0.023   8.442  0.0955 -0.0032  0.4480
   29SAPC  H15X 3937   2.294  -0.109   8.454  0.7751 -0.3869  1.7801
   29SAPC  H15Y 3938   2.329   0.044   8.524  0.8960  0.3088  0.5280
   29SAPC  C316 3939   2.515  -0.063   8.460 -0.7049 -0.2182 -0.1843
   29SAPC  H16X 3940   2.543  -0.130   8.376 -3.0517  0.1763 -1.3865
   29SAPC  H16Y 3941   2.500  -0.133   8.545 -0.0414  0.2677  0.3389
   29SAPC  C317 3942   2.606   0.058   8.494 -0.6924  0.0091  0.0296
   29SAPC  H17X 3943   2.556   0.128   8.564  1.1623  2.4615 -0.9536
   29SAPC  H17Y 3944   2.630   0.117   8.403  0.7829 -0.8893 -0.1923
   29SAPC  C318 3945   2.738   0.030   8.565  0.2707 -0.1498  0.1957
   29SAPC  H18X 3946   2.767   0.122   8.620 -0.1321  0.4649 -0.6069
   29SAPC  H18Y 3947   2.810  -0.003   8.487  0.1530  0.3438 -0.1264
   29SAPC  H18Z 3948   2.734  -0.051   8.641  1.4537 -0.1398  0.2975
   30SAPC     N 3949   4.163   6.630   6.276 -0.2396 -0.5266  0.1686
   30SAPC   C12 3950   4.047   6.680   6.193  0.9068 -0.2163  0.3388
   30SAPC  H12A 3951   4.073   6.728   6.100 -0.2274 -1.9238 -0.9062
   30SAPC  H12B 3952   4.017   6.775   6.236  2.4976  0.5063 -0.0877
   30SAPC   C13 3953   4.108   6.585   6.405  0.0733  0.2313  0.4467
   30SAPC  H13A 3954   4.085   6.674   6.462  0.1806  2.4029 -2.6534
   30SAPC  H13B 3955   4.015   6.531   6.388  0.8570 -0.9356 -0.2962
   30SAPC  H13C 3956   4.174   6.531   6.471  3.5551 -0.1562 -3.0095
   30SAPC   C14 3957   4.227   6.518   6.202  0.1692 -0.1926  0.1362
   30SAPC  H14A 3958   4.295   6.463   6.266 -1.2644 -1.3784  0.6883
   30SAPC  H14B 3959   4.157   6.448   6.159  0.8844 -1.0030  0.2706
   30SAPC  H14C 3960   4.269   6.553   6.109 -0.7282 -0.2172 -0.2856
   30SAPC   C15 3961   4.256   6.745   6.303  0.8809  0.2204  0.4738
   30SAPC  H15A 3962   4.204   6.824   6.356  0.2327  0.7468 -0.8878
   30SAPC  H15B 3963   4.342   6.711   6.359  0.9351  1.2821  1.0723
   30SAPC  H15C 3964   4.304   6.789   6.217  1.8866  1.0594  1.4316
   30SAPC   C11 3965   3.921   6.593   6.165  0.4738  0.0386 -0.6089
   30SAPC  H11A 3966   3.841   6.656   6.123 -1.3203  0.2023  2.7300
   30SAPC  H11B 3967   3.880   6.552   6.259  1.1725 -0.8528 -0.6763
   30SAPC     P 3968   3.873   6.348   6.078  0.1114 -0.1658  0.1365
   30SAPC   O13 3969   3.730   6.379   6.063  0.3395  0.2464 -0.3112
   30SAPC   O14 3970   3.930   6.257   5.974 -0.1261 -0.0549 -0.2176
   30SAPC   O12 3971   3.961   6.482   6.078 -0.2468 -0.1403 -0.0380
   30SAPC   O11 3972   3.892   6.287   6.223 -0.0023 -0.4263 -0.0601
   30SAPC    C1 3973   4.030   6.261   6.270 -0.2771  0.0293  0.5299
   30SAPC    HA 3974   4.098   6.255   6.183 -1.4099 -0.2801 -0.3570
   30SAPC    HB 3975   4.069   6.340   6.338  1.7398 -0.6660  0.2579
   30SAPC    C2 3976   4.037   6.128   6.352  0.5818 -0.0916  1.6793
   30SAPC    HS 3977   3.967   6.058   6.303 -0.2392  1.6522  0.2465
   30SAPC   O21 3978   3.992   6.161   6.482 -0.3829  0.3305 -0.5345
   30SAPC   C21 3979   3.933   6.061   6.550  0.1768 -0.4291 -0.0760
   30SAPC   O22 3980   3.927   5.946   6.507 -0.8236  0.8714  0.1088
   30SAPC   C22 3981   3.871   6.108   6.679 -0.0377  0.0817  0.9945
   30SAPC   H2R 3982   3.801   6.188   6.647 -1.0290 -1.5575 -1.1747
   30SAPC   H2S 3983   3.811   6.026   6.726 -0.8726 -0.2961 -0.6660
   30SAPC    C3 3984   4.179   6.076   6.357 -0.0376  0.2335  0.3222
   30SAPC    HX 3985   4.249   6.163   6.362  0.0167  0.2610 -0.6199
   30SAPC    HY 3986   4.188   6.028   6.257  0.3780 -0.1753  0.5577
   30SAPC   O31 3987   4.203   5.973   6.453 -0.5412  0.2227 -0.1791
   30SAPC   C31 3988   4.266   6.022   6.569 -0.1259  0.7643  0.5121
   30SAPC   O32 3989   4.290   6.137   6.594 -0.6642  0.1168 -0.7722
   30SAPC   C32 3990   4.307   5.899   6.658  0.4559  1.4730  0.8218
   30SAPC   H2X 3991   4.393   5.872   6.594 -0.8834 -0.3606 -0.2984
   30SAPC   H2Y 3992   4.229   5.820   6.653  2.3041 -0.4627  1.1474
   30SAPC   C23 3993   3.970   6.180   6.774 -0.3626  0.1888  0.5757
   30SAPC   H3R 3994   3.911   6.270   6.803 -2.1118 -0.3629 -1.1200
   30SAPC   H3S 3995   4.055   6.215   6.711  0.0042  0.7435  1.3513
   30SAPC   C24 3996   4.009   6.087   6.884 -1.0361 -0.1584 -0.0910
   30SAPC   H4R 3997   4.048   5.989   6.848  2.5873  0.6459  1.2659
   30SAPC   H4S 3998   3.921   6.054   6.943 -0.8599  0.5214  0.5719
   30SAPC   C25 3999   4.106   6.162   6.980 -0.1629 -0.5114 -0.7738
   30SAPC   H5R 4000   4.215   6.164   6.967  0.3653  2.2110  2.7064
   30SAPC   C26 4001   4.061   6.234   7.090 -0.3975  0.2173  0.4984
   30SAPC   H6R 4002   4.125   6.302   7.147 -0.8752  1.8284 -0.8141
   30SAPC   C27 4003   3.920   6.241   7.143  0.2364 -0.0572 -0.5536
   30SAPC   H7R 4004   3.837   6.236   7.069 -0.1984 -0.9495 -0.0143
   30SAPC   H7S 4005   3.902   6.348   7.167 -1.3143  0.1026 -2.2243
   30SAPC   C28 4006   3.874   6.151   7.261 -0.3335 -0.8508  0.3688
   30SAPC   H8R 4007   3.806   6.071   7.230 -0.7722  0.3139 -1.9094
   30SAPC   C29 4008   3.905   6.177   7.394 -0.0107 -0.0560 -0.0917
   30SAPC   H9R 4009   3.872   6.113   7.477  1.1435  0.6013  0.9079
   30SAPC  C210 4010   3.995   6.286   7.446 -0.3286 -0.0281  0.4109
   30SAPC  H10R 4011   4.015   6.368   7.374 -0.9629 -1.3798 -1.3848
   30SAPC  H10S 4012   4.093   6.235   7.459 -0.1090  0.5916  1.2716
   30SAPC  C211 4013   3.949   6.337   7.575 -0.3998  0.0901 -0.3016
   30SAPC  H11R 4014   3.865   6.408   7.569  1.9653  3.1195 -0.3226
   30SAPC  C212 4015   3.983   6.291   7.695 -0.0186 -0.2259  0.0034
   30SAPC  H12R 4016   3.944   6.341   7.785  1.7032  0.5692  0.3690
   30SAPC  C213 4017   4.087   6.189   7.729  0.0033 -0.5340 -0.3148
   30SAPC  H13R 4018   4.136   6.247   7.810 -2.4489  0.2255  0.7159
   30SAPC  H13S 4019   4.148   6.151   7.644 -1.5911 -1.6716 -0.9979
   30SAPC  C214 4020   4.006   6.073   7.797 -0.5167 -0.2813 -0.0718
   30SAPC  H14R 4021   3.936   6.022   7.728 -1.6513 -0.8041  1.4092
   30SAPC  C215 4022   4.017   6.036   7.927 -0.0145 -0.0745  0.6137
   30SAPC  H15R 4023   3.949   5.955   7.959  1.1120 -2.1892 -1.9448
   30SAPC  C216 4024   4.115   6.100   8.024  0.5486  0.2223 -0.4100
   30SAPC  H16R 4025   4.059   6.166   8.095 -2.3385 -2.0516 -0.3826
   30SAPC  H16S 4026   4.198   6.163   7.985  0.8303  1.2879  1.7369
   30SAPC  C217 4027   4.179   5.984   8.114 -0.4076 -0.0463  0.0643
   30SAPC  H17R 4028   4.254   6.032   8.180  0.1555  0.8877 -1.2299
   30SAPC  H17S 4029   4.234   5.928   8.036  1.3494 -1.1642  2.0063
   30SAPC  C218 4030   4.071   5.907   8.197 -0.2356  0.2876  0.7054
   30SAPC  H18R 4031   3.979   5.889   8.138  1.0904 -0.3502 -1.3014
   30SAPC  H18S 4032   4.042   5.969   8.284 -0.4332 -1.3247  1.8538
   30SAPC  C219 4033   4.128   5.775   8.245  0.8218 -0.2093 -0.1295
   30SAPC  H19R 4034   4.186   5.721   8.167 -1.3696 -3.4461  0.2506
   30SAPC  H19S 4035   4.036   5.712   8.252  0.6570 -0.1099 -1.2422
   30SAPC  C220 4036   4.215   5.784   8.371 -0.3662 -1.0381  0.0385
   30SAPC  H20R 4037   4.151   5.838   8.445  1.0713 -0.5960  1.0083
   30SAPC  H20S 4038   4.308   5.841   8.351 -0.3409 -1.6007 -1.5492
   30SAPC  H20T 4039   4.235   5.686   8.419 -0.5978 -1.1680 -0.1318
   30SAPC   C33 4040   4.329   5.919   6.809  0.2733  0.4812  0.7134
   30SAPC   H3X 4041   4.245   5.962   6.868  1.0160  1.5382  1.0239
   30SAPC   H3Y 4042   4.415   5.986   6.830 -0.5401  1.8950 -0.2738
   30SAPC   C34 4043   4.363   5.784   6.882  0.6006 -0.2098 -0.8043
   30SAPC   H4X 4044   4.435   5.721   6.826  0.7046 -0.9245  0.0982
   30SAPC   H4Y 4045   4.267   5.730   6.895 -0.0491  1.2348  0.6923
   30SAPC   C35 4046   4.414   5.803   7.024 -0.4311 -0.8723 -0.1169
   30SAPC   H5X 4047   4.365   5.893   7.066  0.2529 -0.4072 -0.2993
   30SAPC   H5Y 4048   4.514   5.848   7.006 -1.0109  0.5123 -0.0416
   30SAPC   C36 4049   4.422   5.681   7.113  0.2659 -0.4518  0.1862
   30SAPC   H6X 4050   4.499   5.615   7.069  1.4473  0.9866 -0.0019
   30SAPC   H6Y 4051   4.321   5.635   7.107 -2.3631  4.7574 -2.0933
   30SAPC   C37 4052   4.456   5.709   7.263  0.6352 -0.3906 -0.0984
   30SAPC   H7X 4053   4.378   5.776   7.305 -0.3359 -2.0274  0.8537
   30SAPC   H7Y 4054   4.552   5.764   7.275  1.1729 -1.6017  1.6557
   30SAPC   C38 4055   4.451   5.589   7.363 -0.2105 -0.9366  0.1739
   30SAPC   H8X 4056   4.495   5.508   7.300 -2.4416 -0.3341 -2.3163
   30SAPC   H8Y 4057   4.345   5.557   7.369 -1.0609  1.5117 -0.6756
   30SAPC   C39 4058   4.518   5.621   7.496 -0.2161  1.3202 -0.0311
   30SAPC   H9X 4059   4.461   5.696   7.554  0.7372  1.3111  0.9623
   30SAPC   H9Y 4060   4.623   5.654   7.480  0.6969 -1.0481  0.6525
   30SAPC  C310 4061   4.520   5.498   7.588 -0.0667  1.0004 -0.3304
   30SAPC  H10X 4062   4.584   5.418   7.545 -0.7439  0.0856  0.3194
   30SAPC  H10Y 4063   4.423   5.443   7.584 -0.1764  0.9704  1.9506
   30SAPC  C311 4064   4.577   5.525   7.731 -0.3883 -0.1009  0.1623
   30SAPC  H11X 4065   4.507   5.593   7.785  0.7446  0.2784  1.2034
   30SAPC  H11Y 4066   4.672   5.581   7.721  0.0281 -0.4045  2.0282
   30SAPC  C312 4067   4.609   5.392   7.807 -1.0688 -0.4685  0.1380
   30SAPC  H12X 4068   4.689   5.337   7.754  1.8724  2.8756  0.7198
   30SAPC  H12Y 4069   4.516   5.332   7.800 -0.9885 -0.5627 -0.1561
   30SAPC  C313 4070   4.655   5.405   7.951  0.0222 -0.3860 -0.1233
   30SAPC  H13X 4071   4.569   5.437   8.015 -0.2829 -2.3200  0.4885
   30SAPC  H13Y 4072   4.738   5.479   7.952  0.0977 -0.4682  0.7649
   30SAPC  C314 4073   4.713   5.273   8.010  0.6144 -0.7745  0.3604
   30SAPC  H14X 4074   4.724   5.276   8.121  1.9154  1.1152  0.2236
   30SAPC  H14Y 4075   4.811   5.262   7.960  0.3279 -3.1593  0.1963
   30SAPC  C315 4076   4.636   5.142   7.986 -0.5366  0.1569  0.0226
   30SAPC  H15X 4077   4.662   5.111   7.883  3.0273  1.2566  0.4570
   30SAPC  H15Y 4078   4.530   5.175   7.978  0.0709  1.6887 -3.7689
   30SAPC  C316 4079   4.660   5.024   8.085 -0.1186 -0.3285 -0.2927
   30SAPC  H16X 4080   4.586   4.943   8.066 -1.6912  1.1429 -0.6907
   30SAPC  H16Y 4081   4.632   5.058   8.187 -2.0540  0.9735 -1.1864
   30SAPC  C317 4082   4.796   4.957   8.077  0.5038 -0.1938  0.1462
   30SAPC  H17X 4083   4.805   4.879   8.156 -2.3248 -2.4703 -1.5728
   30SAPC  H17Y 4084   4.879   5.030   8.087  0.9081 -0.5900 -0.2421
   30SAPC  C318 4085   4.815   4.890   7.940 -0.1117  0.1714  0.1708
   30SAPC  H18X 4086   4.917   4.848   7.927  0.3271  1.1872  0.2372
   30SAPC  H18Y 4087   4.792   4.958   7.856 -1.6753 -1.1311 -0.5238
   30SAPC  H18Z 4088   4.745   4.804   7.930  0.4325 -0.2031 -0.4593
   31SAPC     N 4089   4.789   1.416   6.162 -1.0163  0.3968  0.0493
   31SAPC   C12 4090   4.866   1.289   6.119  0.5908 -0.0447  0.1428
   31SAPC  H12A 4091   4.971   1.304   6.134  0.5378  0.5607 -0.0991
   31SAPC  H12B 4092   4.858   1.266   6.014 -0.4679 -0.7069  0.3406
   31SAPC   C13 4093   4.641   1.393   6.152 -0.7242  0.0244 -0.6902
   31SAPC  H13A 4094   4.606   1.348   6.060 -2.1299 -2.1525  0.8139
   31SAPC  H13B 4095   4.614   1.325   6.231 -0.0603 -0.8603 -1.2141
   31SAPC  H13C 4096   4.595   1.488   6.173  0.5514  0.6881 -0.8187
   31SAPC   C14 4097   4.836   1.460   6.296 -0.2592 -0.5127 -0.5389
   31SAPC  H14A 4098   4.829   1.567   6.305 -1.2567 -0.7163  2.2423
   31SAPC  H14B 4099   4.796   1.425   6.390 -0.5093  1.0565 -0.0311
   31SAPC  H14C 4100   4.944   1.448   6.303 -0.2094  0.3569  0.4674
   31SAPC   C15 4101   4.813   1.536   6.068 -0.1414 -0.4328 -0.5490
   31SAPC  H15A 4102   4.718   1.584   6.049 -0.4528  0.0400  1.9387
   31SAPC  H15B 4103   4.899   1.594   6.100  0.6779 -2.1509  0.4847
   31SAPC  H15C 4104   4.837   1.498   5.969  1.2855 -0.9202 -0.0490
   31SAPC   C11 4105   4.832   1.156   6.192 -0.0754 -0.6885  1.2318
   31SAPC  H11A 4106   4.721   1.155   6.202 -0.2374 -1.5380 -0.2999
   31SAPC  H11B 4107   4.865   1.169   6.297 -2.8303 -1.8332  2.3525
   31SAPC     P 4108   5.026   0.986   6.170  0.1993  0.5273  0.4637
   31SAPC   O13 4109   5.070   0.874   6.086  0.0136  0.3928 -0.3041
   31SAPC   O14 4110   5.116   1.099   6.194 -0.6652 -0.3833 -0.1174
   31SAPC   O12 4111   4.887   1.044   6.118 -0.7065 -0.2094  0.1682
   31SAPC   O11 4112   4.996   0.926   6.313  1.0113 -0.2913 -0.4119
   31SAPC    C1 4113   4.878   0.857   6.344 -0.8878  0.0203 -0.3413
   31SAPC    HA 4114   4.805   0.922   6.397  1.0092  0.0602  2.3900
   31SAPC    HB 4115   4.834   0.808   6.255 -0.2030  0.2243 -0.8041
   31SAPC    C2 4116   4.911   0.743   6.444  0.0189 -0.3683 -0.3209
   31SAPC    HS 4117   4.815   0.701   6.480  0.8762 -2.8024 -0.7387
   31SAPC   O21 4118   4.987   0.796   6.552  0.0904 -0.4633 -0.2435
   31SAPC   C21 4119   4.908   0.851   6.642 -0.2170 -0.6870  0.8639
   31SAPC   O22 4120   4.790   0.873   6.631 -0.1916 -0.4389  0.2075
   31SAPC   C22 4121   4.989   0.903   6.753  0.1054  0.3866  0.8718
   31SAPC   H2R 4122   5.075   0.952   6.702  0.5151 -1.9447 -0.8446
   31SAPC   H2S 4123   4.940   0.991   6.799 -2.1353 -0.3624  0.0735
   31SAPC    C3 4124   4.978   0.614   6.378  0.6072 -0.0775  0.1571
   31SAPC    HX 4125   5.064   0.645   6.316 -0.6397  1.5506 -0.8372
   31SAPC    HY 4126   4.908   0.573   6.303  1.0477 -0.9642  0.2211
   31SAPC   O31 4127   5.029   0.514   6.475  0.5946 -0.0883  0.3354
   31SAPC   C31 4128   5.041   0.391   6.434  0.4023 -0.0586  0.1599
   31SAPC   O32 4129   5.015   0.354   6.321 -0.3240  1.1166 -0.7274
   31SAPC   C32 4130   5.107   0.300   6.539 -0.0730  0.0269  0.5790
   31SAPC   H2X 4131   5.217   0.302   6.523 -0.3822  0.3398 -1.8465
   31SAPC   H2Y 4132   5.079   0.197   6.510  2.6325 -0.1639 -1.7772
   31SAPC   C23 4133   5.032   0.794   6.853 -0.4546 -0.0717  0.3054
   31SAPC   H3R 4134   5.104   0.733   6.796  1.5582  1.9260  0.5600
   31SAPC   H3S 4135   4.946   0.730   6.882 -1.4767  0.6027 -1.1195
   31SAPC   C24 4136   5.086   0.846   6.980  0.0922  0.2568  1.2119
   31SAPC   H4R 4137   5.152   0.932   6.955 -0.5085 -0.1157 -2.1261
   31SAPC   H4S 4138   5.154   0.779   7.037 -1.8740 -0.5248  2.7581
   31SAPC   C25 4139   4.974   0.906   7.069  0.2937  0.0300  0.6016
   31SAPC   H5R 4140   4.948   1.012   7.050 -0.2548 -0.1194  0.4744
   31SAPC   C26 4141   4.906   0.854   7.164  0.0191 -0.2297 -0.5092
   31SAPC   H6R 4142   4.828   0.907   7.221  1.1550 -0.9633  1.8313
   31SAPC   C27 4143   4.917   0.711   7.211  0.0443  0.3768 -0.0134
   31SAPC   H7R 4144   5.017   0.694   7.255  0.1879  2.2682  0.4640
   31SAPC   H7S 4145   4.915   0.649   7.118  0.6892 -0.4873  0.5368
   31SAPC   C28 4146   4.819   0.676   7.312  0.4196  0.1995 -0.1622
   31SAPC   H8R 4147   4.718   0.639   7.287 -0.3217  0.0221  2.7676
   31SAPC   C29 4148   4.840   0.705   7.438  0.8188  0.3069 -0.5597
   31SAPC   H9R 4149   4.776   0.661   7.516  1.2352 -0.0591 -0.4161
   31SAPC  C210 4150   4.954   0.783   7.503 -0.5849  0.0680  0.3054
   31SAPC  H10R 4151   4.905   0.869   7.551 -3.9408 -1.8058  0.5033
   31SAPC  H10S 4152   5.024   0.820   7.424 -2.7696  0.8043 -1.3679
   31SAPC  C211 4153   5.038   0.712   7.608  0.3861  0.0215  0.2663
   31SAPC  H11R 4154   5.102   0.630   7.573 -0.9859 -0.3128 -1.6257
   31SAPC  C212 4155   5.056   0.754   7.728 -0.0214 -0.8167 -0.7509
   31SAPC  H12R 4156   5.105   0.687   7.800 -1.7324 -0.9414  0.3497
   31SAPC  C213 4157   5.015   0.878   7.794  0.3498 -0.0105 -0.5391
   31SAPC  H13R 4158   5.010   0.967   7.727  0.6911 -0.1974 -0.8085
   31SAPC  H13S 4159   5.080   0.899   7.882  0.3688  0.8372 -0.7488
   31SAPC  C214 4160   4.880   0.862   7.854  0.2408  0.2218 -0.1876
   31SAPC  H14R 4161   4.797   0.896   7.790 -0.6615 -1.0217  0.2872
   31SAPC  C215 4162   4.860   0.793   7.965  0.0748 -0.3331 -0.9150
   31SAPC  H15R 4163   4.756   0.786   8.000 -0.4229  1.4092 -1.9378
   31SAPC  C216 4164   4.966   0.728   8.055  0.3762  0.2466  0.3898
   31SAPC  H16R 4165   5.055   0.794   8.071 -0.4771  0.8787  2.9782
   31SAPC  H16S 4166   4.998   0.629   8.016 -0.2783 -0.2751  1.1555
   31SAPC  C217 4167   4.910   0.702   8.193 -0.1711 -0.3957 -0.1385
   31SAPC  H17R 4168   4.819   0.641   8.175 -1.6570  2.1579 -2.0584
   31SAPC  H17S 4169   4.883   0.800   8.238  0.4181  0.2169 -1.0919
   31SAPC  C218 4170   5.008   0.632   8.287  0.3039 -0.5273 -0.0400
   31SAPC  H18R 4171   5.084   0.711   8.307 -0.2517  0.3952 -1.4057
   31SAPC  H18S 4172   5.049   0.543   8.235  0.1683 -0.5837 -0.0495
   31SAPC  C219 4173   4.947   0.580   8.416 -0.2196  0.7483 -0.6574
   31SAPC  H19R 4174   4.893   0.485   8.400 -0.5415  0.7551  0.3298
   31SAPC  H19S 4175   4.883   0.663   8.455  1.3290  1.0631  1.3933
   31SAPC  C220 4176   5.059   0.570   8.525  0.3503 -0.8609  0.2999
   31SAPC  H20R 4177   5.123   0.481   8.507 -0.0085 -0.7862 -1.5878
   31SAPC  H20S 4178   5.013   0.563   8.625 -1.8289  0.7081 -0.5173
   31SAPC  H20T 4179   5.122   0.662   8.528 -0.4278 -0.3150  0.1552
   31SAPC   C33 4180   5.065   0.329   6.678 -0.2675 -0.2575 -0.2295
   31SAPC   H3X 4181   4.956   0.313   6.694 -0.2809  1.2159  1.4629
   31SAPC   H3Y 4182   5.099   0.432   6.703  0.9824 -1.0515  1.4937
   31SAPC   C34 4183   5.123   0.227   6.784  0.7766 -0.0736 -0.2210
   31SAPC   H4X 4184   5.234   0.234   6.782  0.7516  1.5317 -3.8143
   31SAPC   H4Y 4185   5.082   0.125   6.771 -0.6089  0.4917 -0.3769
   31SAPC   C35 4186   5.069   0.269   6.925 -0.5474 -0.1659 -0.1230
   31SAPC   H5X 4187   5.084   0.183   6.993  0.5671  1.0829  1.2722
   31SAPC   H5Y 4188   4.959   0.285   6.922 -0.5789 -0.4314 -0.5695
   31SAPC   C36 4189   5.142   0.377   6.998  0.5733  0.7643  0.4328
   31SAPC   H6X 4190   5.097   0.475   6.971 -0.1437  0.3190 -0.0161
   31SAPC   H6Y 4191   5.252   0.372   6.978  0.1403 -1.0915 -1.7945
   31SAPC   C37 4192   5.133   0.365   7.150  0.0127  0.1887 -0.5684
   31SAPC   H7X 4193   5.159   0.264   7.188 -2.4449 -1.5438 -3.0899
   31SAPC   H7Y 4194   5.030   0.392   7.184 -0.2771 -3.0674  1.5922
   31SAPC   C38 4195   5.220   0.468   7.230 -0.6161  0.0384  0.1209
   31SAPC   H8X 4196   5.200   0.570   7.189 -1.5771 -0.6790 -1.2932
   31SAPC   H8Y 4197   5.322   0.438   7.197 -0.8722 -0.5407 -0.1666
   31SAPC   C39 4198   5.208   0.483   7.385  1.0272  0.9759  0.1605
   31SAPC   H9X 4199   5.098   0.494   7.397  1.1462  4.6421 -0.8119
   31SAPC   H9Y 4200   5.258   0.579   7.412 -0.7839  2.7088 -2.2183
   31SAPC  C310 4201   5.254   0.356   7.446 -0.8091  0.0580 -0.3741
   31SAPC  H10X 4202   5.361   0.341   7.418 -0.5885  1.5665 -0.4312
   31SAPC  H10Y 4203   5.193   0.268   7.415 -0.1137  0.0920 -1.9085
   31SAPC  C311 4204   5.252   0.368   7.601  0.2120 -0.3752  0.7746
   31SAPC  H11X 4205   5.272   0.469   7.641 -0.4828  0.8046 -1.7190
   31SAPC  H11Y 4206   5.333   0.304   7.643  1.1532  0.6455  0.5327
   31SAPC  C312 4207   5.110   0.347   7.666  0.2137  0.1536  0.2408
   31SAPC  H12X 4208   5.072   0.257   7.612  1.2943 -1.1744  1.5918
   31SAPC  H12Y 4209   5.040   0.428   7.638 -0.1089  0.2166  1.1932
   31SAPC  C313 4210   5.126   0.323   7.815  0.3379  0.5417  0.8871
   31SAPC  H13X 4211   5.185   0.400   7.868 -0.6402  3.2934 -1.7350
   31SAPC  H13Y 4212   5.182   0.228   7.827  2.3422  1.3965 -1.0470
   31SAPC  C314 4213   4.992   0.311   7.878 -0.7970  0.0142 -0.7447
   31SAPC  H14X 4214   4.930   0.225   7.843  0.3918 -1.8986  1.5665
   31SAPC  H14Y 4215   4.935   0.402   7.848 -0.4943 -0.1389 -1.8318
   31SAPC  C315 4216   4.986   0.308   8.036 -0.4068  0.3523 -0.5360
   31SAPC  H15X 4217   4.879   0.290   8.059 -0.1389  0.3544  0.7957
   31SAPC  H15Y 4218   5.033   0.401   8.074  1.3886 -0.5239 -0.5149
   31SAPC  C316 4219   5.050   0.190   8.108  1.1395 -0.3958  0.4730
   31SAPC  H16X 4220   5.161   0.198   8.098  0.9172  1.5041 -0.9700
   31SAPC  H16Y 4221   5.013   0.109   8.041 -0.0027 -0.3855  1.0774
   31SAPC  C317 4222   5.006   0.195   8.251  0.1438  0.1347 -0.5048
   31SAPC  H17X 4223   4.895   0.195   8.259  0.2205 -1.2753  1.0385
   31SAPC  H17Y 4224   5.041   0.292   8.294  0.1153 -0.1774  0.2295
   31SAPC  C318 4225   5.048   0.086   8.349 -0.2620  0.5110  0.2465
   31SAPC  H18X 4226   4.997   0.098   8.447 -0.1505 -1.4782  0.5897
   31SAPC  H18Y 4227   5.158   0.085   8.361 -0.3414  0.0406  0.9614
   31SAPC  H18Z 4228   5.023  -0.012   8.303  0.3062  1.4088 -2.1162
   32SAPC     N 4229   3.875   0.878   5.791 -0.3728 -0.2252 -0.0092
   32SAPC   C12 4230   3.981   0.841   5.893 -1.1029  0.5700  0.1770
   32SAPC  H12A 4231   3.955   0.883   5.989 -0.1503  0.1466  0.6352
   32SAPC  H12B 4232   4.075   0.884   5.864 -1.0621  0.0297 -0.5320
   32SAPC   C13 4233   3.895   0.812   5.662  0.6612  0.5426  0.3224
   32SAPC  H13A 4234   3.988   0.842   5.617 -0.1964  0.3610 -1.7012
   32SAPC  H13B 4235   3.892   0.704   5.668  0.3622  0.4881 -0.5402
   32SAPC  H13C 4236   3.818   0.836   5.589 -1.3034  0.0756  2.1374
   32SAPC   C14 4237   3.738   0.840   5.843 -0.4766 -0.0352 -0.5682
   32SAPC  H14A 4238   3.665   0.875   5.770  1.2432  2.6811 -1.1197
   32SAPC  H14B 4239   3.734   0.734   5.861 -0.5010 -0.0087 -0.4146
   32SAPC  H14C 4240   3.727   0.881   5.942  1.8315  1.6481 -0.9210
   32SAPC   C15 4241   3.883   1.026   5.779 -0.3915 -0.1828  0.4633
   32SAPC  H15A 4242   3.864   1.062   5.880  4.7051 -2.6332  2.6669
   32SAPC  H15B 4243   3.981   1.063   5.752 -0.8415  0.2504 -0.6297
   32SAPC  H15C 4244   3.819   1.067   5.703  0.6797  1.6751  0.4856
   32SAPC   C11 4245   3.998   0.690   5.934 -0.3097 -0.1148  0.0685
   32SAPC  H11A 4246   4.085   0.685   6.003 -1.1051 -2.9521  0.9946
   32SAPC  H11B 4247   4.034   0.626   5.851 -1.0365 -2.3381  1.3990
   32SAPC     P 4248   3.836   0.686   6.135 -0.1480 -0.3552  0.2997
   32SAPC   O13 4249   3.817   0.832   6.138 -0.3112 -0.3076  0.0419
   32SAPC   O14 4250   3.718   0.607   6.174 -0.0703  0.0906 -0.2215
   32SAPC   O12 4251   3.870   0.649   5.991  0.5120 -0.4929  0.3221
   32SAPC   O11 4252   3.965   0.645   6.216 -0.0955 -0.3158  0.2045
   32SAPC    C1 4253   4.041   0.736   6.284 -0.1304 -0.6894  0.2079
   32SAPC    HA 4254   4.117   0.774   6.212 -0.1517  0.8825  0.9615
   32SAPC    HB 4255   3.981   0.821   6.322  1.2378  1.4073 -2.0529
   32SAPC    C2 4256   4.123   0.669   6.398 -0.1468  0.9026  0.0981
   32SAPC    HS 4257   4.199   0.600   6.355 -0.4316  1.9109 -2.1713
   32SAPC   O21 4258   4.032   0.608   6.497 -0.3291  0.0455  0.3706
   32SAPC   C21 4259   4.073   0.486   6.542  0.1404  0.8076  0.2675
   32SAPC   O22 4260   4.178   0.433   6.512  0.6498 -0.1355 -0.1814
   32SAPC   C22 4261   3.971   0.426   6.639 -0.2335  0.1154 -0.5058
   32SAPC   H2R 4262   3.864   0.430   6.607 -0.4199  0.7444  0.1723
   32SAPC   H2S 4263   3.994   0.317   6.635  1.3488  0.4427 -0.8107
   32SAPC    C3 4264   4.208   0.769   6.480  0.0161  0.4764  0.1627
   32SAPC    HX 4265   4.128   0.828   6.530 -1.8530 -2.4353  0.8529
   32SAPC    HY 4266   4.269   0.833   6.413  0.5423  1.1868  1.2939
   32SAPC   O31 4267   4.280   0.719   6.594  0.6164  0.4079  0.0525
   32SAPC   C31 4268   4.406   0.666   6.563  0.3561 -0.5730 -0.1957
   32SAPC   O32 4269   4.467   0.690   6.462  0.0954  0.3440  0.3351
   32SAPC   C32 4270   4.456   0.578   6.678 -0.1179 -0.2409  0.5878
   32SAPC   H2X 4271   4.389   0.489   6.672 -1.2351  0.3831  2.8368
   32SAPC   H2Y 4272   4.436   0.624   6.777  0.4756 -1.8461  1.4935
   32SAPC   C23 4273   3.989   0.473   6.785 -0.4239  0.1417  0.8176
   32SAPC   H3R 4274   3.920   0.423   6.857  0.0112 -1.8996 -0.1113
   32SAPC   H3S 4275   3.951   0.577   6.788  2.0334  1.1530 -0.3398
   32SAPC   C24 4276   4.130   0.468   6.842 -0.7269  0.0509  0.1686
   32SAPC   H4R 4277   4.135   0.502   6.948 -0.2615 -1.6254  0.7287
   32SAPC   H4S 4278   4.200   0.537   6.792  0.0978 -0.8810  0.0124
   32SAPC   C25 4279   4.190   0.336   6.850  0.4227 -0.3243  0.7471
   32SAPC   H5R 4280   4.232   0.295   6.757  3.1236  0.7108  1.4152
   32SAPC   C26 4281   4.207   0.258   6.959  0.2374 -0.0575  1.0467
   32SAPC   H6R 4282   4.255   0.160   6.947  1.4776  0.8277 -2.8120
   32SAPC   C27 4283   4.177   0.297   7.105  0.4609  0.1133  0.1866
   32SAPC   H7R 4284   4.159   0.212   7.174 -3.6257 -0.4461 -1.2840
   32SAPC   H7S 4285   4.082   0.354   7.112  1.4332  1.7745  0.4469
   32SAPC   C28 4286   4.283   0.381   7.165 -0.5034  0.1584  0.1123
   32SAPC   H8R 4287   4.338   0.437   7.088 -1.2961 -0.2101 -0.7535
   32SAPC   C29 4288   4.307   0.398   7.299  0.0191 -0.5213 -0.1799
   32SAPC   H9R 4289   4.376   0.477   7.335  0.8382 -0.1391 -2.4302
   32SAPC  C210 4290   4.239   0.345   7.423  0.3680  0.4705 -0.1032
   32SAPC  H10R 4291   4.180   0.255   7.396  0.5579  0.2261  0.2825
   32SAPC  H10S 4292   4.160   0.412   7.464 -0.6293 -1.4270  1.2773
   32SAPC  C211 4293   4.319   0.312   7.548  0.1096 -0.6066 -0.1219
   32SAPC  H11R 4294   4.328   0.207   7.579 -0.8185 -0.6479  0.0158
   32SAPC  C212 4295   4.371   0.409   7.637  1.0691  0.1636 -0.0821
   32SAPC  H12R 4296   4.418   0.375   7.730 -0.0095  1.1477  0.8511
   32SAPC  C213 4297   4.370   0.560   7.629  0.3277 -0.1873 -0.2680
   32SAPC  H13R 4298   4.283   0.591   7.691 -1.3018 -0.8666 -2.1407
   32SAPC  H13S 4299   4.349   0.597   7.527 -1.4511  0.9091  0.4479
   32SAPC  C214 4300   4.503   0.616   7.682  0.4075  0.4162  0.0660
   32SAPC  H14R 4301   4.583   0.548   7.648  0.7061  0.3431  0.8856
   32SAPC  C215 4302   4.538   0.728   7.748  0.7201  0.2637  0.0091
   32SAPC  H15R 4303   4.646   0.739   7.767  1.0490 -0.2637 -1.4386
   32SAPC  C216 4304   4.439   0.835   7.799 -0.2277 -0.2943 -0.0503
   32SAPC  H16R 4305   4.334   0.798   7.797 -0.6197  0.6516  1.4501
   32SAPC  H16S 4306   4.450   0.918   7.725  2.1885  1.3161  1.9311
   32SAPC  C217 4307   4.456   0.899   7.943  0.6301  0.3295 -0.3113
   32SAPC  H17R 4308   4.402   0.994   7.965 -0.8321 -0.4729 -0.3284
   32SAPC  H17S 4309   4.562   0.916   7.971  0.1899 -0.0570  1.8277
   32SAPC  C218 4310   4.406   0.794   8.048  0.0118 -0.7873  0.2560
   32SAPC  H18R 4311   4.463   0.698   8.045 -0.6779 -1.1782 -1.3354
   32SAPC  H18S 4312   4.299   0.773   8.026 -0.2842  0.2751  0.6190
   32SAPC  C219 4313   4.418   0.856   8.188  0.9702  0.0230  0.8974
   32SAPC  H19R 4314   4.366   0.954   8.176 -0.9086 -1.1301 -1.0282
   32SAPC  H19S 4315   4.519   0.884   8.227  1.0833 -0.8477  1.2525
   32SAPC  C220 4316   4.345   0.768   8.290  0.2280 -0.0165 -1.0355
   32SAPC  H20R 4317   4.238   0.750   8.265  0.5385 -2.2649 -0.9422
   32SAPC  H20S 4318   4.348   0.827   8.384 -0.3411 -0.6088 -0.6324
   32SAPC  H20T 4319   4.396   0.670   8.306  1.5232  0.9964  1.4658
   32SAPC   C33 4320   4.598   0.540   6.667 -0.1238  0.2504  0.3101
   32SAPC   H3X 4321   4.663   0.631   6.664 -0.7086  0.7213 -3.2313
   32SAPC   H3Y 4322   4.617   0.470   6.582  1.7689  1.5570 -0.4227
   32SAPC   C34 4323   4.640   0.470   6.795 -0.2551  0.3001 -0.2995
   32SAPC   H4X 4324   4.619   0.529   6.888  0.8517 -2.1389  1.6193
   32SAPC   H4Y 4325   4.751   0.461   6.806 -0.1318  1.8295 -0.0387
   32SAPC   C35 4326   4.575   0.330   6.830 -0.0561  0.2578  0.1624
   32SAPC   H5X 4327   4.585   0.260   6.744  0.5166 -1.2502  1.4121
   32SAPC   H5Y 4328   4.466   0.339   6.846 -0.5421 -2.0452 -1.3756
   32SAPC   C36 4329   4.639   0.270   6.955  0.1588 -0.6617 -0.4645
   32SAPC   H6X 4330   4.743   0.233   6.939  0.7773  0.7506  0.0973
   32SAPC   H6Y 4331   4.581   0.178   6.975  2.3054 -1.8204  0.8805
   32SAPC   C37 4332   4.635   0.365   7.077 -0.0623  0.2588  0.6891
   32SAPC   H7X 4333   4.541   0.425   7.075  0.8022  1.6871  0.9908
   32SAPC   H7Y 4334   4.709   0.446   7.057  0.6165 -0.1444  1.4847
   32SAPC   C38 4335   4.643   0.310   7.218 -0.6183  0.2906  0.0587
   32SAPC   H8X 4336   4.572   0.225   7.217 -0.9809  0.5437  1.5821
   32SAPC   H8Y 4337   4.609   0.396   7.279  1.5438 -0.2512  2.1893
   32SAPC   C39 4338   4.776   0.253   7.264 -0.7605 -0.1246  0.4547
   32SAPC   H9X 4339   4.852   0.331   7.286 -0.5584  0.1182 -0.9896
   32SAPC   H9Y 4340   4.819   0.196   7.179 -1.3324  0.6745 -0.3981
   32SAPC  C310 4341   4.761   0.162   7.388  0.5984 -0.4469  0.6602
   32SAPC  H10X 4342   4.851   0.102   7.414 -0.3016 -1.3542  1.8382
   32SAPC  H10Y 4343   4.687   0.088   7.352  0.8076 -0.4622  0.2625
   32SAPC  C311 4344   4.721   0.236   7.517  0.2716  0.4442  0.1686
   32SAPC  H11X 4345   4.628   0.295   7.503  0.3555  0.6654  0.5448
   32SAPC  H11Y 4346   4.809   0.299   7.543  0.3572 -0.0968  1.2334
   32SAPC  C312 4347   4.710   0.133   7.637 -0.1472  0.6339  0.3431
   32SAPC  H12X 4348   4.812   0.093   7.652  0.3024 -0.2333 -3.9069
   32SAPC  H12Y 4349   4.648   0.050   7.596  2.8604 -0.3382 -2.6706
   32SAPC  C313 4350   4.650   0.190   7.762 -0.3618  0.7306 -0.4381
   32SAPC  H13X 4351   4.558   0.246   7.737 -1.1239 -0.1048  0.4139
   32SAPC  H13Y 4352   4.719   0.262   7.811  0.1873  0.1119 -0.2899
   32SAPC  C314 4353   4.615   0.075   7.861  0.5859 -0.0570  0.0652
   32SAPC  H14X 4354   4.688  -0.007   7.842  0.8241 -0.2196  1.6025
   32SAPC  H14Y 4355   4.510   0.042   7.843  1.0090  0.1502 -3.6055
   32SAPC  C315 4356   4.621   0.105   8.017  0.3215  0.8012  0.1348
   32SAPC  H15X 4357   4.720   0.148   8.044  0.7702  0.3062 -0.6435
   32SAPC  H15Y 4358   4.599   0.014   8.076 -0.0451  0.8849  0.1305
   32SAPC  C316 4359   4.514   0.209   8.062  0.1152  0.1948 -0.8483
   32SAPC  H16X 4360   4.417   0.167   8.028  0.1441  0.1049 -0.8205
   32SAPC  H16Y 4361   4.537   0.306   8.012 -2.6422  1.6149  0.4287
   32SAPC  C317 4362   4.505   0.234   8.219  0.5898  0.1920 -0.2928
   32SAPC  H17X 4363   4.413   0.295   8.230  0.3604  0.1411 -1.6715
   32SAPC  H17Y 4364   4.588   0.294   8.262  0.4097  0.6762 -0.6147
   32SAPC  C318 4365   4.490   0.099   8.292  0.1704  0.0938 -0.1974
   32SAPC  H18X 4366   4.404   0.038   8.259 -0.4299  2.0185 -2.5143
   32SAPC  H18Y 4367   4.468   0.120   8.399  2.6231  1.0144  0.2012
   32SAPC  H18Z 4368   4.583   0.040   8.283  0.2251  0.5013 -3.4636
   33POPC     N 4369   3.339   3.030  11.151 -0.1004  0.2455 -0.3509
   33POPC   C12 4370   3.285   2.965  11.023  0.1137 -1.1090 -0.2083
   33POPC  H12A 4371   3.178   2.976  11.034  0.2281  0.0645 -0.2148
   33POPC  H12B 4372   3.299   2.858  11.024  0.3186 -1.2205 -3.8512
   33POPC   C13 4373   3.335   3.179  11.129  0.1727  1.1483  0.2529
   33POPC  H13A 4374   3.239   3.215  11.096  0.6995  3.6768  1.3211
   33POPC  H13B 4375   3.358   3.228  11.222  0.9983 -1.1722  1.3758
   33POPC  H13C 4376   3.407   3.196  11.049  1.8842  1.8399  1.8674
   33POPC   C14 4377   3.264   2.983  11.275  0.5597 -0.5341  0.3504
   33POPC  H14A 4378   3.263   2.875  11.286 -0.7296 -0.5350  0.4064
   33POPC  H14B 4379   3.307   3.023  11.366 -0.3238  0.7932  0.2108
   33POPC  H14C 4380   3.160   3.011  11.263 -0.1159 -2.0147  2.0876
   33POPC   C15 4381   3.479   2.989  11.162  0.1241  0.4097  0.5968
   33POPC  H15A 4382   3.521   3.015  11.065  0.1955 -0.7088  0.3210
   33POPC  H15B 4383   3.488   2.882  11.164  0.1736  0.3274 -1.4181
   33POPC  H15C 4384   3.530   3.046  11.238 -0.1006  1.2706  0.1248
   33POPC   C11 4385   3.339   3.021  10.888  0.0878 -0.4600 -0.3937
   33POPC  H11A 4386   3.301   3.125  10.881  1.2757 -0.0271 -0.6973
   33POPC  H11B 4387   3.290   2.957  10.811  2.2644 -1.0770 -1.3604
   33POPC     P 4388   3.571   3.115  10.790 -0.1371 -0.2812  0.3648
   33POPC   O13 4389   3.706   3.058  10.766  0.2507 -0.5907  0.2530
   33POPC   O14 4390   3.567   3.243  10.863 -0.4076 -1.1063 -0.5445
   33POPC   O12 4391   3.481   3.005  10.869  0.0808 -0.5540 -0.1532
   33POPC   O11 4392   3.497   3.143  10.658 -0.7906 -0.0735  0.8688
   33POPC    C1 4393   3.474   3.046  10.559  0.4992 -0.9263 -0.6010
   33POPC    HA 4394   3.543   2.959  10.549  1.2117 -0.2751 -1.5903
   33POPC    HB 4395   3.375   3.007  10.592  1.1156 -0.0294  2.6209
   33POPC    C2 4396   3.462   3.098  10.417 -0.5417 -0.8421  0.4616
   33POPC    HS 4397   3.389   3.028  10.373 -2.2627 -0.6023  2.7382
   33POPC   O21 4398   3.593   3.084  10.346 -0.3346  0.6844  0.2262
   33POPC   C21 4399   3.579   3.077  10.215 -0.1679  0.1901  0.2100
   33POPC   O22 4400   3.478   3.049  10.156  0.3130 -0.2376 -0.5226
   33POPC   C22 4401   3.701   3.139  10.142 -0.3158  0.2080 -0.5147
   33POPC   H2R 4402   3.798   3.118  10.192  0.6482  3.6586 -0.6682
   33POPC   H2S 4403   3.692   3.249  10.131  1.8391  0.5463  0.5845
   33POPC    C3 4404   3.412   3.257  10.411  0.2650 -0.0610 -1.0510
   33POPC    HX 4405   3.485   3.329  10.452  1.0118 -1.2132 -0.2770
   33POPC    HY 4406   3.321   3.267  10.475 -0.5871 -0.8163 -2.1075
   33POPC   O31 4407   3.377   3.291  10.274 -0.3771 -0.7488 -0.6503
   33POPC   C31 4408   3.249   3.265  10.237 -0.3563 -0.1377 -0.0523
   33POPC   O32 4409   3.163   3.213  10.308  0.2115  0.0317 -1.1373
   33POPC   C32 4410   3.232   3.324  10.094  0.6357 -0.0084  0.1276
   33POPC   H2X 4411   3.224   3.435  10.100 -2.0267  0.1099 -3.0983
   33POPC   H2Y 4412   3.136   3.283  10.055 -0.8316  4.2550 -1.3524
   33POPC   C23 4413   3.710   3.072  10.002  0.3986 -0.6620 -0.2987
   33POPC   H3R 4414   3.623   3.096   9.938 -0.2066 -0.2376  0.6609
   33POPC   H3S 4415   3.704   2.961  10.010 -0.4122 -0.5712  0.5559
   33POPC   C24 4416   3.831   3.106   9.919  0.0339 -0.0192 -0.7192
   33POPC   H4R 4417   3.930   3.089   9.966  0.1752 -2.4088 -1.7028
   33POPC   H4S 4418   3.832   3.215   9.896  0.1587 -0.1247 -1.2426
   33POPC   C25 4419   3.834   3.020   9.791  0.5718 -0.7643 -0.4601
   33POPC   H5R 4420   3.741   3.030   9.731  0.3513 -1.8529 -0.3321
   33POPC   H5S 4421   3.842   2.914   9.824  1.0936 -0.8935 -0.9964
   33POPC   C26 4422   3.952   3.046   9.696  0.1235 -0.3040 -0.1325
   33POPC   H6R 4423   3.976   2.954   9.639 -0.3967  0.2094 -1.2216
   33POPC   H6S 4424   4.048   3.075   9.744  0.1591  0.3000 -0.5527
   33POPC   C27 4425   3.909   3.161   9.598 -0.0120 -0.8573 -0.5617
   33POPC   H7R 4426   3.901   3.259   9.649  0.7748 -0.0161 -1.9854
   33POPC   H7S 4427   3.820   3.135   9.536 -0.5041  1.6912 -1.0161
   33POPC   C28 4428   4.017   3.169   9.491  0.9173 -0.2417  0.2628
   33POPC   H8R 4429   4.025   3.070   9.441 -0.3565  0.3249 -1.1315
   33POPC   H8S 4430   4.114   3.204   9.532  1.6646  2.5717 -3.3720
   33POPC   C29 4431   3.971   3.260   9.384 -0.9576 -0.8081  0.6789
   33POPC   H91 4432   3.869   3.302   9.383 -1.4958 -1.9394  2.7646
   33POPC  C210 4433   4.056   3.301   9.284 -0.2273  0.1707  0.0512
   33POPC  H101 4434   4.017   3.382   9.220 -2.6251 -0.4605  0.5953
   33POPC  C211 4435   4.197   3.270   9.267 -0.4820  0.6243 -0.6517
   33POPC  H11R 4436   4.230   3.258   9.162  2.3354 -0.6020  0.2694
   33POPC  H11S 4437   4.225   3.174   9.316  1.2497  2.6127  2.6515
   33POPC  C212 4438   4.294   3.382   9.327  0.2000  0.2729  0.6699
   33POPC  H12R 4439   4.393   3.334   9.344 -1.3033 -2.1536  3.5748
   33POPC  H12S 4440   4.260   3.421   9.425  1.4839 -0.0733  1.2781
   33POPC  C213 4441   4.318   3.503   9.236 -0.1080  0.0366 -0.1410
   33POPC  H13R 4442   4.237   3.575   9.262 -1.0874 -1.5614  1.5440
   33POPC  H13S 4443   4.297   3.462   9.135 -0.9845 -0.2451  0.1417
   33POPC  C214 4444   4.460   3.558   9.232 -0.2280 -0.2677  0.0517
   33POPC  H14R 4445   4.530   3.472   9.226  0.1746  0.0091  0.6289
   33POPC  H14S 4446   4.495   3.606   9.326  1.0206  1.5687 -1.2877
   33POPC  C215 4447   4.489   3.663   9.123  0.0618  0.1289 -0.3526
   33POPC  H15R 4448   4.515   3.755   9.180  0.1496 -0.0668 -0.0696
   33POPC  H15S 4449   4.402   3.684   9.057  0.3907 -0.6746 -1.0696
   33POPC  C216 4450   4.600   3.621   9.020 -0.9530  0.3624 -0.2547
   33POPC  H16R 4451   4.566   3.523   8.981 -2.7554  0.2779  1.4128
   33POPC  H16S 4452   4.696   3.587   9.065 -0.3014  0.1530 -1.7363
   33POPC  C217 4453   4.643   3.708   8.906 -0.0439  0.4809  0.6296
   33POPC  H17R 4454   4.741   3.671   8.868 -0.2169  0.4933  0.1628
   33POPC  H17S 4455   4.663   3.809   8.947  0.2695  0.5888  0.2196
   33POPC  C218 4456   4.546   3.709   8.793 -0.2956 -0.1591 -0.0745
   33POPC  H18R 4457   4.601   3.754   8.708 -3.1498  0.4414 -1.7287
   33POPC  H18S 4458   4.449   3.760   8.813 -0.2776 -0.5240  1.0042
   33POPC  H18T 4459   4.529   3.606   8.755  0.2492 -0.2503 -0.0730
   33POPC   C33 4460   3.333   3.275   9.995  0.4600 -0.9765  0.0467
   33POPC   H3X 4461   3.337   3.164   9.987  0.0881 -1.1238  1.6584
   33POPC   H3Y 4462   3.432   3.305  10.035  0.3388  0.4792 -0.6622
   33POPC   C34 4463   3.315   3.340   9.852 -0.2424  0.4680 -0.7928
   33POPC   H4X 4464   3.409   3.318   9.799  1.4390  1.9654  1.3642
   33POPC   H4Y 4465   3.300   3.446   9.882 -1.7450 -0.5234  2.5489
   33POPC   C35 4466   3.205   3.267   9.771  0.2320  0.1173 -1.1410
   33POPC   H5X 4467   3.105   3.308   9.798  1.0630  1.8505 -0.5472
   33POPC   H5Y 4468   3.214   3.162   9.804  2.0720 -0.1830 -2.4269
   33POPC   C36 4469   3.222   3.258   9.616 -0.0187  0.2672 -0.1579
   33POPC   H6X 4470   3.315   3.206   9.586  0.9993  1.7283  0.3103
   33POPC   H6Y 4471   3.222   3.361   9.574 -1.3117  0.5579  0.5017
   33POPC   C37 4472   3.113   3.177   9.547  0.1367  0.1997  0.3169
   33POPC   H7X 4473   3.009   3.206   9.573 -0.0962  1.8338 -2.0643
   33POPC   H7Y 4474   3.129   3.068   9.557  1.4586  0.4562  1.1068
   33POPC   C38 4475   3.113   3.194   9.390 -1.0120 -0.4176  0.5440
   33POPC   H8X 4476   3.218   3.174   9.358 -1.5164 -1.8176 -0.3387
   33POPC   H8Y 4477   3.089   3.301   9.374 -0.1699 -0.2612  0.2844
   33POPC   C39 4478   3.016   3.101   9.325 -0.2973 -0.0299 -0.2246
   33POPC   H9X 4479   2.920   3.092   9.380 -0.0594  1.0854  0.3863
   33POPC   H9Y 4480   3.063   3.000   9.322 -0.7744 -0.2590 -0.1857
   33POPC  C310 4481   2.969   3.142   9.181 -0.7303 -0.4948 -0.1196
   33POPC  H10X 4482   3.060   3.160   9.120 -0.6401  1.2578  0.4890
   33POPC  H10Y 4483   2.929   3.243   9.203  2.6046  0.7063  1.0825
   33POPC  C311 4484   2.878   3.047   9.118  0.5906 -0.2901 -0.1552
   33POPC  H11X 4485   2.794   3.017   9.184  0.1221  0.8948 -0.2019
   33POPC  H11Y 4486   2.940   2.958   9.091  1.6555  0.8577 -1.6654
   33POPC  C312 4487   2.814   3.094   8.986 -0.0715 -0.7006 -0.0270
   33POPC  H12X 4488   2.739   3.171   9.014 -1.4275 -1.9084 -0.1941
   33POPC  H12Y 4489   2.755   3.014   8.936  1.8666 -1.2215 -1.6217
   33POPC  C313 4490   2.916   3.156   8.875  0.6202  0.6208 -0.5634
   33POPC  H13X 4491   2.953   3.249   8.923 -3.1963  1.4464  1.1944
   33POPC  H13Y 4492   2.859   3.180   8.783 -1.2455 -0.0496  0.3509
   33POPC  C314 4493   3.027   3.053   8.844  0.2710 -0.0738  0.4357
   33POPC  H14X 4494   2.989   2.952   8.819 -0.5085  0.5330 -0.9165
   33POPC  H14Y 4495   3.087   3.038   8.937 -0.5851 -0.3457  0.9596
   33POPC  C315 4496   3.112   3.099   8.722 -0.0124 -0.2725  0.3904
   33POPC  H15X 4497   3.171   3.190   8.744  1.4688 -0.9617 -0.5796
   33POPC  H15Y 4498   3.031   3.117   8.648  0.9876  0.6104 -0.5362
   33POPC  C316 4499   3.201   2.995   8.660  0.9469  0.1133  0.7641
   33POPC  H16X 4500   3.284   2.968   8.729 -0.6722  2.2367  3.7814
   33POPC  H16Y 4501   3.229   3.031   8.558 -0.5687  0.6472  0.5169
   33POPC  H16Z 4502   3.140   2.906   8.638 -1.7887  1.9816  0.2908
   34POPC     N 4503   2.143   1.930  11.039  0.2508  0.5117  0.0097
   34POPC   C12 4504   2.231   1.859  10.945 -0.5952 -0.0700  0.2148
   34POPC  H12A 4505   2.296   1.790  10.996  1.0916 -0.1250 -1.8401
   34POPC  H12B 4506   2.297   1.931  10.898 -0.3652  0.4228  1.2766
   34POPC   C13 4507   2.023   1.842  11.081 -0.2855 -0.8730  0.4066
   34POPC  H13A 4508   2.061   1.742  11.096  0.0534 -0.9950 -1.1464
   34POPC  H13B 4509   1.980   1.884  11.171  1.7288  2.0522  0.1692
   34POPC  H13C 4510   1.956   1.846  10.997  1.3930 -0.7195 -0.9735
   34POPC   C14 4511   2.230   1.983  11.155  0.0661 -0.8152  0.1765
   34POPC  H14A 4512   2.291   1.903  11.195  0.1679  0.7295  3.3697
   34POPC  H14B 4513   2.296   2.059  11.117  1.8996 -3.3166 -2.0735
   34POPC  H14C 4514   2.154   2.012  11.226 -0.1751 -2.3880  0.5987
   34POPC   C15 4515   2.088   2.053  10.970  0.2607  0.9117  0.2052
   34POPC  H15A 4516   2.053   2.124  11.043  1.8476  0.3247  1.6117
   34POPC  H15B 4517   2.014   2.038  10.893 -1.4160  1.8833  1.5589
   34POPC  H15C 4518   2.170   2.099  10.916  0.5228  0.1259 -0.0804
   34POPC   C11 4519   2.158   1.790  10.827  0.0092  0.5859 -0.4864
   34POPC  H11A 4520   2.063   1.742  10.862 -0.1305  1.6127  0.6169
   34POPC  H11B 4521   2.218   1.701  10.800  0.0643  0.0031  1.4216
   34POPC     P 4522   2.256   1.935  10.642 -0.0161  0.0458  0.0176
   34POPC   O13 4523   2.357   1.826  10.621  0.5521 -0.0839 -0.1180
   34POPC   O14 4524   2.295   2.056  10.719 -0.5947  0.1204  0.1306
   34POPC   O12 4525   2.138   1.871  10.716  0.0468  0.0353 -0.0161
   34POPC   O11 4526   2.192   1.990  10.507 -0.0730  0.6915 -0.3694
   34POPC    C1 4527   2.092   1.908  10.447 -0.1127  0.4503  0.0813
   34POPC    HA 4528   1.992   1.941  10.481  0.4030  1.3822  0.7529
   34POPC    HB 4529   2.106   1.800  10.470 -0.3864  0.1977 -0.9150
   34POPC    C2 4530   2.111   1.925  10.298  0.6391  0.3451  0.1379
   34POPC    HS 4531   2.027   1.877  10.243  1.6915  0.1532 -1.3592
   34POPC   O21 4532   2.237   1.867  10.259 -0.0079 -0.1722  0.2619
   34POPC   C21 4533   2.226   1.737  10.236 -0.2662  0.1137 -0.2450
   34POPC   O22 4534   2.126   1.666  10.239  0.0779  0.0475  0.2582
   34POPC   C22 4535   2.355   1.691  10.171 -0.6328 -0.0794  0.2743
   34POPC   H2R 4536   2.394   1.600  10.222  1.9510  0.7865  0.0350
   34POPC   H2S 4537   2.433   1.770  10.173 -1.0126  0.2778  2.1571
   34POPC    C3 4538   2.089   2.078  10.249  1.0014  0.3406 -0.3742
   34POPC    HX 4539   2.138   2.156  10.312  0.7632  0.1846  0.0039
   34POPC    HY 4540   1.978   2.088  10.246  0.8393 -1.4993 -2.2493
   34POPC   O31 4541   2.154   2.091  10.123  0.6465 -0.0175  0.4029
   34POPC   C31 4542   2.123   2.203  10.061  0.2670 -0.3510  0.3994
   34POPC   O32 4543   2.051   2.291  10.108 -0.1266  0.3233 -0.2554
   34POPC   C32 4544   2.207   2.201   9.936  0.1669  0.1653 -0.1423
   34POPC   H2X 4545   2.180   2.115   9.871 -2.3082  1.0577 -0.4032
   34POPC   H2Y 4546   2.312   2.185   9.969  0.7086 -0.2254 -1.9561
   34POPC   C23 4547   2.327   1.650  10.018 -0.4981  0.2206  0.4757
   34POPC   H3R 4548   2.236   1.587  10.009 -0.4886  0.4772 -1.8783
   34POPC   H3S 4549   2.418   1.597   9.984 -1.8575 -0.4462 -2.3926
   34POPC   C24 4550   2.308   1.779   9.934  0.2189 -0.2926  0.0452
   34POPC   H4R 4551   2.391   1.847   9.964  2.2054 -2.2238 -0.7904
   34POPC   H4S 4552   2.211   1.827   9.955  0.1597 -0.3809 -0.0257
   34POPC   C25 4553   2.333   1.739   9.788 -0.4265 -0.3821 -0.3886
   34POPC   H5R 4554   2.249   1.677   9.751 -3.9824  2.6772  1.8842
   34POPC   H5S 4555   2.427   1.680   9.792 -1.1925 -1.5656  0.8352
   34POPC   C26 4556   2.351   1.857   9.692 -1.1815 -0.2214  0.1527
   34POPC   H6R 4557   2.443   1.912   9.720 -2.7768  2.4356  0.6250
   34POPC   H6S 4558   2.263   1.925   9.696  0.6614  2.3446 -0.2240
   34POPC   C27 4559   2.389   1.801   9.550  0.3543 -0.7907 -0.5214
   34POPC   H7R 4560   2.312   1.737   9.502 -0.5671 -0.4373  0.4384
   34POPC   H7S 4561   2.482   1.747   9.579  0.5806  1.1339  2.9949
   34POPC   C28 4562   2.439   1.917   9.459  0.2319 -0.2188 -0.3157
   34POPC   H8R 4563   2.528   1.968   9.502 -0.7629  0.2437  1.2729
   34POPC   H8S 4564   2.361   1.995   9.451  0.9998  0.4916 -1.1830
   34POPC   C29 4565   2.460   1.859   9.320 -0.6556 -0.0264  0.0211
   34POPC   H91 4566   2.567   1.842   9.301 -0.1368  3.6305 -1.1581
   34POPC  C210 4567   2.369   1.838   9.221 -0.4333 -0.2096  0.3136
   34POPC  H101 4568   2.397   1.816   9.117 -4.1416 -0.3295 -0.8143
   34POPC  C211 4569   2.217   1.870   9.240 -0.3563 -0.0652  0.8268
   34POPC  H11R 4570   2.212   1.980   9.225 -3.2381 -0.1783  0.4395
   34POPC  H11S 4571   2.169   1.828   9.331 -1.9085  2.0081  1.0372
   34POPC  C212 4572   2.142   1.812   9.119  0.2213  0.2294 -0.1985
   34POPC  H12R 4573   2.195   1.863   9.037 -1.3277  2.2265 -0.0233
   34POPC  H12S 4574   2.034   1.836   9.116  0.1879  0.0467 -0.5079
   34POPC  C213 4575   2.152   1.656   9.094 -0.6918  0.0789 -0.0658
   34POPC  H13R 4576   2.123   1.597   9.184 -0.5254  0.6096  0.3433
   34POPC  H13S 4577   2.259   1.634   9.070 -0.7849 -1.4718  0.8206
   34POPC  C214 4578   2.063   1.599   8.982  0.0139 -0.5244 -0.0744
   34POPC  H14R 4579   2.092   1.639   8.882 -0.7704  0.7725  0.1946
   34POPC  H14S 4580   1.964   1.649   8.990  2.0759  3.7504  2.9826
   34POPC  C215 4581   2.060   1.443   8.949  0.3664 -0.0347  0.3311
   34POPC  H15R 4582   2.033   1.387   9.041 -0.5673  0.3122  0.2803
   34POPC  H15S 4583   2.163   1.413   8.922 -0.7038 -2.0381 -1.9026
   34POPC  C216 4584   1.970   1.411   8.835  0.8216 -0.0473  0.2581
   34POPC  H16R 4585   1.870   1.453   8.858  0.8529 -0.4181  1.0983
   34POPC  H16S 4586   1.954   1.301   8.848 -1.8726  0.3686  1.0572
   34POPC  C217 4587   2.018   1.449   8.692 -0.2721 -0.3117 -0.4023
   34POPC  H17R 4588   2.129   1.452   8.702 -0.2556 -0.7843 -0.4140
   34POPC  H17S 4589   1.985   1.554   8.682  0.1871 -0.2080 -0.8550
   34POPC  C218 4590   1.973   1.356   8.575  0.1923  0.0321  0.4471
   34POPC  H18R 4591   2.005   1.407   8.482  1.0851  0.3852  0.9384
   34POPC  H18S 4592   1.862   1.352   8.578  0.2098 -0.8610 -0.0740
   34POPC  H18T 4593   2.009   1.253   8.596  3.3734  0.8604 -0.3726
   34POPC   C33 4594   2.199   2.325   9.858  0.0628  1.3352  0.1110
   34POPC   H3X 4595   2.254   2.405   9.914 -2.5602  1.8153  2.2114
   34POPC   H3Y 4596   2.093   2.352   9.842 -0.2377 -1.1388 -2.9529
   34POPC   C34 4597   2.263   2.305   9.721 -1.0522 -0.2288 -0.0836
   34POPC   H4X 4598   2.239   2.204   9.682 -0.2289 -0.0500 -1.0676
   34POPC   H4Y 4599   2.374   2.303   9.727 -1.0683 -1.4616  0.0504
   34POPC   C35 4600   2.230   2.417   9.626 -0.4693  0.0683 -0.5177
   34POPC   H5X 4601   2.254   2.515   9.673  0.3173 -0.5421  0.4012
   34POPC   H5Y 4602   2.120   2.416   9.611 -0.6432 -1.8322  0.5649
   34POPC   C36 4603   2.297   2.405   9.491  0.4924 -0.3777 -0.1062
   34POPC   H6X 4604   2.275   2.299   9.466 -0.5295  0.3732 -2.7562
   34POPC   H6Y 4605   2.402   2.439   9.497  0.7161 -1.0498 -0.1239
   34POPC   C37 4606   2.211   2.496   9.388 -0.3048 -0.0215  0.7175
   34POPC   H7X 4607   2.275   2.517   9.300  0.6867 -0.8742  1.2148
   34POPC   H7Y 4608   2.188   2.595   9.432 -0.6995 -1.3616  3.7760
   34POPC   C38 4609   2.080   2.439   9.343  0.1314 -0.2704 -0.0989
   34POPC   H8X 4610   2.019   2.424   9.434 -1.2719 -0.6670 -1.0855
   34POPC   H8Y 4611   2.098   2.335   9.311 -1.2645 -0.0005 -1.8936
   34POPC   C39 4612   1.992   2.517   9.249 -0.4688 -0.4903 -0.9022
   34POPC   H9X 4613   1.989   2.624   9.276 -0.7479 -0.2068 -1.9794
   34POPC   H9Y 4614   1.888   2.478   9.256 -0.4693 -0.3005  0.3579
   34POPC  C310 4615   2.037   2.518   9.103  0.5868 -0.7342  0.6998
   34POPC  H10X 4616   2.002   2.418   9.069  0.8998 -0.1103 -1.6210
   34POPC  H10Y 4617   2.148   2.526   9.098  0.5232 -0.5106 -1.0599
   34POPC  C311 4618   1.974   2.626   9.023 -0.5708  1.3024 -0.5510
   34POPC  H11X 4619   2.018   2.725   9.050 -0.5938  1.0752  0.3726
   34POPC  H11Y 4620   1.866   2.617   9.047 -0.2618 -0.7382  0.2763
   34POPC  C312 4621   1.984   2.582   8.870 -0.2495 -0.8260  0.4682
   34POPC  H12X 4622   1.901   2.641   8.824  1.1325  1.6309  0.9605
   34POPC  H12Y 4623   1.974   2.471   8.874  1.0443 -0.9430  0.9377
   34POPC  C313 4624   2.116   2.631   8.810 -0.9464  0.0945 -0.4514
   34POPC  H13X 4625   2.209   2.597   8.860  0.2617  3.3022 -0.2899
   34POPC  H13Y 4626   2.120   2.742   8.811  0.0884  0.0884 -1.6577
   34POPC  C314 4627   2.128   2.586   8.661  0.0868  0.1574 -0.6555
   34POPC  H14X 4628   2.030   2.592   8.609 -0.4925  0.3451  0.4247
   34POPC  H14Y 4629   2.166   2.482   8.653  0.2595  0.2861 -1.6167
   34POPC  C315 4630   2.235   2.667   8.582  0.8316 -0.3131  0.1232
   34POPC  H15X 4631   2.255   2.762   8.636  1.3863 -0.7763  0.7512
   34POPC  H15Y 4632   2.189   2.693   8.484 -0.7082  2.7215  1.5176
   34POPC  C316 4633   2.351   2.579   8.554  0.0605  0.6937 -0.4283
   34POPC  H16X 4634   2.413   2.567   8.645  0.8065  2.3468 -0.6809
   34POPC  H16Y 4635   2.430   2.622   8.489 -0.5224  2.8673  0.2100
   34POPC  H16Z 4636   2.321   2.482   8.510  2.4833  0.7717 -2.4572
   35POPC     N 4637   4.120   6.220  11.487  0.0260  0.4754  0.4882
   35POPC   C12 4638   4.156   6.355  11.429 -0.5079  0.4663 -0.4682
   35POPC  H12A 4639   4.260   6.359  11.401 -0.5015 -1.7438 -0.9484
   35POPC  H12B 4640   4.153   6.426  11.510  0.7992 -1.1269  1.0711
   35POPC   C13 4641   4.156   6.110  11.395  0.0398 -0.5491 -0.5106
   35POPC  H13A 4642   4.131   6.130  11.292 -0.5442 -2.0493 -0.6809
   35POPC  H13B 4643   4.264   6.108  11.398  0.0191 -0.7501  0.3178
   35POPC  H13C 4644   4.107   6.020  11.431 -2.7383  0.1387 -2.2203
   35POPC   C14 4645   4.196   6.200  11.605  0.7454 -0.4226 -0.1495
   35POPC  H14A 4646   4.174   6.108  11.658 -3.0787  0.1700 -0.4654
   35POPC  H14B 4647   4.303   6.203  11.591  0.7405 -0.0702 -0.1077
   35POPC  H14C 4648   4.159   6.271  11.677 -1.0731  0.3936 -1.8157
   35POPC   C15 4649   3.980   6.205  11.528 -0.2379 -0.6066 -0.0305
   35POPC  H15A 4650   3.944   6.279  11.599 -0.1616  0.5012 -1.1220
   35POPC  H15B 4651   3.960   6.109  11.574 -0.2294 -0.4724  0.2610
   35POPC  H15C 4652   3.908   6.213  11.448  0.7320  1.5097 -0.7568
   35POPC   C11 4653   4.072   6.393  11.302  0.1542 -0.6927  0.1006
   35POPC  H11A 4654   4.097   6.501  11.291 -0.4275 -0.5290  0.3795
   35POPC  H11B 4655   3.966   6.374  11.328  0.4656 -0.4551  1.6325
   35POPC     P 4656   4.019   6.343  11.061 -0.4426  0.2510  0.3563
   35POPC   O13 4657   4.120   6.367  10.957 -0.3240  0.5046 -0.3677
   35POPC   O14 4658   3.914   6.446  11.085 -0.2309  0.4060 -0.3398
   35POPC   O12 4659   4.097   6.301  11.191  0.4011 -0.0841 -0.3789
   35POPC   O11 4660   3.940   6.210  11.024 -0.3183 -0.1085  0.5700
   35POPC    C1 4661   4.012   6.089  10.980  0.4479 -0.5785  0.4967
   35POPC    HA 4662   3.942   6.003  10.990 -1.5028  0.4319 -2.9572
   35POPC    HB 4663   4.105   6.062  11.034  0.8737 -1.0583 -0.4564
   35POPC    C2 4664   4.041   6.092  10.829 -0.5265  0.2774 -0.0210
   35POPC    HS 4665   4.118   6.172  10.825 -1.1475  0.9102  0.3983
   35POPC   O21 4666   3.912   6.105  10.760  0.0489  0.0528 -0.5559
   35POPC   C21 4667   3.912   6.152  10.637 -0.6978  0.8406  0.0544
   35POPC   O22 4668   4.007   6.221  10.593  0.1723  0.1772  0.1268
   35POPC   C22 4669   3.797   6.096  10.551  0.0541 -0.3659 -0.0795
   35POPC   H2R 4670   3.698   6.133  10.586 -0.8646 -0.4843 -2.3963
   35POPC   H2S 4671   3.794   5.987  10.574 -1.9306 -0.1303  1.0498
   35POPC    C3 4672   4.109   5.954  10.786 -0.0590 -0.2137  0.6204
   35POPC    HX 4673   4.046   5.866  10.813  2.5970 -2.3745  0.2771
   35POPC    HY 4674   4.193   5.950  10.858 -0.0126 -1.0813  0.5376
   35POPC   O31 4675   4.157   5.954  10.646  0.2362  0.3147 -0.8739
   35POPC   C31 4676   4.262   6.029  10.619  0.0055  0.0142 -0.6289
   35POPC   O32 4677   4.313   6.102  10.702 -0.3021  0.3486  0.2737
   35POPC   C32 4678   4.313   6.016  10.481  0.7188 -0.3835  0.5750
   35POPC   H2X 4679   4.398   5.944  10.479  0.5859 -0.5824 -2.8599
   35POPC   H2Y 4680   4.360   6.113  10.453 -0.6733  0.3548  0.7164
   35POPC   C23 4681   3.811   6.111  10.394  0.6319 -0.4031 -1.0976
   35POPC   H3R 4682   3.900   6.050  10.370  1.2579 -0.2282  0.6204
   35POPC   H3S 4683   3.822   6.220  10.375  0.7268  0.0492  1.2105
   35POPC   C24 4684   3.690   6.043  10.331 -0.0147 -0.3413 -0.8910
   35POPC   H4R 4685   3.603   6.092  10.380 -1.5589 -2.6649 -1.1290
   35POPC   H4S 4686   3.699   5.938  10.365  0.1945  0.1155  0.5327
   35POPC   C25 4687   3.700   6.048  10.181  0.1243  0.0863  0.7112
   35POPC   H5R 4688   3.796   6.003  10.148 -1.7882 -3.5451 -0.4310
   35POPC   H5S 4689   3.696   6.153  10.144 -3.2988  1.0381  3.2941
   35POPC   C26 4690   3.585   5.967  10.111  0.5017 -0.2988  0.5788
   35POPC   H6R 4691   3.482   6.005  10.127 -0.0268 -2.0977  1.7322
   35POPC   H6S 4692   3.582   5.859  10.139 -1.0622 -0.5740 -0.5196
   35POPC   C27 4693   3.612   5.974   9.955 -0.4109 -0.1198 -0.7052
   35POPC   H7R 4694   3.708   5.924   9.928 -0.6780 -0.5574 -0.8592
   35POPC   H7S 4695   3.620   6.077   9.915 -0.4926 -0.8438 -2.6831
   35POPC   C28 4696   3.516   5.896   9.868 -0.0307 -0.6192 -0.1644
   35POPC   H8R 4697   3.511   5.790   9.902  4.2602 -0.6951  0.7379
   35POPC   H8S 4698   3.553   5.901   9.764  0.4165 -0.1407  0.0153
   35POPC   C29 4699   3.378   5.948   9.876 -0.3829 -0.2947  0.9073
   35POPC   H91 4700   3.346   5.977   9.977 -0.6574  0.3268  0.6514
   35POPC  C210 4701   3.294   5.959   9.772 -0.4773  0.4906  0.3986
   35POPC  H101 4702   3.196   6.007   9.787 -0.6609  0.6914 -1.2164
   35POPC  C211 4703   3.321   5.907   9.634 -0.2693  0.2000 -0.2948
   35POPC  H11R 4704   3.221   5.874   9.597 -1.9709  4.0225  0.4140
   35POPC  H11S 4705   3.392   5.823   9.618 -0.6451  0.0777 -1.4427
   35POPC  C212 4706   3.375   6.024   9.550 -0.1541  0.9285  0.0693
   35POPC  H12R 4707   3.468   6.064   9.596 -0.7413  0.4475  1.7411
   35POPC  H12S 4708   3.297   6.103   9.547 -0.8366  0.2315 -2.1483
   35POPC  C213 4709   3.419   5.995   9.405  0.2228 -0.0001  0.0551
   35POPC  H13R 4710   3.521   5.956   9.424 -1.3028 -3.5666  1.9089
   35POPC  H13S 4711   3.429   6.087   9.342 -1.6900  0.3955  0.2692
   35POPC  C214 4712   3.333   5.902   9.331  0.3562  0.3458  0.2513
   35POPC  H14R 4713   3.341   5.799   9.372 -0.3940 -0.6040 -1.8782
   35POPC  H14S 4714   3.371   5.895   9.227  2.9191  1.8093  0.9936
   35POPC  C215 4715   3.185   5.929   9.314 -0.3860 -1.1803  0.1378
   35POPC  H15R 4716   3.142   5.934   9.417 -0.2650  2.0936  0.1341
   35POPC  H15S 4717   3.130   5.857   9.251 -0.7408 -0.9956  0.2326
   35POPC  C216 4718   3.146   6.072   9.254  0.3521  0.4318  0.8323
   35POPC  H16R 4719   3.169   6.152   9.328 -1.2728 -0.7272  2.7091
   35POPC  H16S 4720   3.037   6.076   9.233  0.3410 -1.6424  0.2361
   35POPC  C217 4721   3.211   6.102   9.122  0.2106  0.1677 -0.0861
   35POPC  H17R 4722   3.177   6.024   9.050 -1.6298  1.2389 -0.4436
   35POPC  H17S 4723   3.321   6.101   9.134  0.2344  1.5128 -0.0207
   35POPC  C218 4724   3.176   6.233   9.068 -0.1967 -0.0992  0.5230
   35POPC  H18R 4725   3.199   6.314   9.141 -1.3525  2.0449 -1.3744
   35POPC  H18S 4726   3.066   6.239   9.051 -0.2645 -0.9708  0.6207
   35POPC  H18T 4727   3.224   6.260   8.972  1.0114  1.1337  1.4300
   35POPC   C33 4728   4.222   5.965  10.375  0.8828  0.1639  0.9479
   35POPC   H3X 4729   4.138   6.037  10.368  0.9564  0.1313 -0.6978
   35POPC   H3Y 4730   4.176   5.867  10.402  0.2801  0.0431 -0.4673
   35POPC   C34 4731   4.294   5.946  10.242 -0.0614 -0.2026 -0.3763
   35POPC   H4X 4732   4.381   5.877  10.250 -0.6372 -1.1407 -1.7241
   35POPC   H4Y 4733   4.342   6.044  10.219  2.3928 -1.5606 -1.3747
   35POPC   C35 4734   4.200   5.902  10.133  0.0959 -0.6659  0.8914
   35POPC   H5X 4735   4.132   5.990  10.133  0.1329 -0.6257  0.0803
   35POPC   H5Y 4736   4.151   5.810  10.168  0.4568 -1.6990 -1.1325
   35POPC   C36 4737   4.280   5.896  10.001  0.0995  0.1511 -0.1032
   35POPC   H6X 4738   4.342   5.804   9.998  1.3300  0.9789 -2.1886
   35POPC   H6Y 4739   4.353   5.979   9.992 -0.4543  0.4559 -2.2458
   35POPC   C37 4740   4.186   5.899   9.882 -0.0018 -0.8188 -1.2716
   35POPC   H7X 4741   4.111   5.981   9.880 -0.4676 -1.1967 -3.9268
   35POPC   H7Y 4742   4.114   5.815   9.875 -3.0093  1.2840  1.4787
   35POPC   C38 4743   4.279   5.901   9.763  0.6371  0.6424  0.2768
   35POPC   H8X 4744   4.341   5.810   9.775  2.3137  1.5037 -1.3255
   35POPC   H8Y 4745   4.354   5.983   9.772 -0.3130  1.8179 -1.6444
   35POPC   C39 4746   4.196   5.917   9.626  0.0768 -0.1670  0.2967
   35POPC   H9X 4747   4.170   6.025   9.618 -1.3859 -0.6441 -2.7908
   35POPC   H9Y 4748   4.110   5.847   9.632  1.7477 -2.7844 -2.7161
   35POPC  C310 4749   4.275   5.865   9.508  0.0377 -0.1185  0.4789
   35POPC  H10X 4750   4.304   5.760   9.527 -0.7093 -0.7963 -1.7632
   35POPC  H10Y 4751   4.370   5.920   9.492 -0.5492  0.9279  0.4678
   35POPC  C311 4752   4.180   5.849   9.382  0.1123  0.5608  0.0940
   35POPC  H11X 4753   4.117   5.940   9.378  1.6360  1.6298 -0.6980
   35POPC  H11Y 4754   4.114   5.763   9.403 -0.0737  0.7800  0.4111
   35POPC  C312 4755   4.260   5.828   9.251  0.2029  0.7686  0.3882
   35POPC  H12X 4756   4.322   5.736   9.252  0.7544  1.1108  2.1685
   35POPC  H12Y 4757   4.322   5.919   9.240  2.3916 -0.7690 -0.8139
   35POPC  C313 4758   4.173   5.824   9.121  0.5054  0.1966 -0.3020
   35POPC  H13X 4759   4.103   5.909   9.134  3.1718  2.3517  1.0961
   35POPC  H13Y 4760   4.107   5.735   9.115  3.3570 -2.0252 -0.9582
   35POPC  C314 4761   4.236   5.834   8.984  0.5430 -0.0156 -0.2389
   35POPC  H14X 4762   4.316   5.757   8.986 -0.2096 -0.8826  3.2617
   35POPC  H14Y 4763   4.291   5.929   8.969  0.1507  0.3300  0.5062
   35POPC  C315 4764   4.133   5.796   8.878 -0.4097  0.1747 -0.3692
   35POPC  H15X 4765   4.068   5.885   8.869 -0.1227  0.4091 -0.1282
   35POPC  H15Y 4766   4.078   5.704   8.907  0.5667 -1.1208 -2.3772
   35POPC  C316 4767   4.202   5.770   8.740  0.2022  0.2230 -0.3436
   35POPC  H16X 4768   4.127   5.747   8.661 -0.9491 -1.1277  1.0831
   35POPC  H16Y 4769   4.261   5.677   8.752  0.9779  1.0058  2.6514
   35POPC  H16Z 4770   4.269   5.853   8.710 -1.1260  1.6176  0.3877
   36POPC     N 4771   2.496   5.657  11.170 -0.2166  0.7330  0.0260
   36POPC   C12 4772   2.395   5.739  11.102  0.0910 -0.6138 -0.0406
   36POPC  H12A 4773   2.318   5.774  11.170  2.2973 -0.5400  2.5950
   36POPC  H12B 4774   2.344   5.664  11.043  1.0480 -0.6139 -0.8864
   36POPC   C13 4775   2.568   5.734  11.277  0.2238 -0.0470  0.2331
   36POPC  H13A 4776   2.498   5.759  11.355  0.7269  0.0040  0.6721
   36POPC  H13B 4777   2.656   5.683  11.314 -0.3382 -0.2879  1.2661
   36POPC  H13C 4778   2.596   5.825  11.226  2.2759 -1.1334 -0.6883
   36POPC   C14 4779   2.425   5.540  11.236 -0.7438 -0.8418 -0.6091
   36POPC  H14A 4780   2.339   5.574  11.292 -1.0725 -1.8604 -0.4590
   36POPC  H14B 4781   2.387   5.467  11.165 -0.2431 -0.9370 -0.7856
   36POPC  H14C 4782   2.490   5.487  11.303 -0.1908 -1.0129 -1.2623
   36POPC   C15 4783   2.583   5.588  11.069  0.1068  0.1673  0.0467
   36POPC  H15A 4784   2.532   5.545  10.985  1.4871  1.7275 -1.6707
   36POPC  H15B 4785   2.643   5.517  11.124  4.0198  3.9543  1.2161
   36POPC  H15C 4786   2.645   5.662  11.022 -0.4122 -0.0306 -0.9691
   36POPC   C11 4787   2.440   5.854  11.010  0.6946  0.0033 -0.0650
   36POPC  H11A 4788   2.352   5.885  10.950  1.5215 -1.6159 -2.2297
   36POPC  H11B 4789   2.517   5.826  10.935 -0.0979  0.6902 -1.1661
   36POPC     P 4790   2.399   6.077  11.140 -0.2021  0.1532 -0.1558
   36POPC   O13 4791   2.473   6.160  11.236 -0.3856 -0.9050  0.2943
   36POPC   O14 4792   2.278   6.018  11.198  0.0475 -0.4746  0.5433
   36POPC   O12 4793   2.495   5.958  11.085  0.0897 -0.7918 -0.1602
   36POPC   O11 4794   2.355   6.165  11.015  0.3760  0.2103  0.4191
   36POPC    C1 4795   2.223   6.158  10.962  0.0615  0.8059 -0.0869
   36POPC    HA 4796   2.155   6.176  11.048  0.1637 -1.3287  0.5067
   36POPC    HB 4797   2.194   6.060  10.918  0.1252  1.3562 -1.3949
   36POPC    C2 4798   2.201   6.268  10.857 -0.2823  0.4296 -0.1538
   36POPC    HS 4799   2.100   6.256  10.813 -0.0853 -0.8404 -0.3146
   36POPC   O21 4800   2.295   6.263  10.744  0.1247 -0.1996 -0.1040
   36POPC   C21 4801   2.274   6.156  10.664  0.8238  0.0033  0.0598
   36POPC   O22 4802   2.185   6.073  10.678  0.1405  0.1241  0.1321
   36POPC   C22 4803   2.368   6.176  10.546  0.2641  0.1795  0.3796
   36POPC   H2R 4804   2.441   6.093  10.542  1.3484  1.0331  1.6072
   36POPC   H2S 4805   2.413   6.277  10.552  3.3187 -1.0046 -0.8026
   36POPC    C3 4806   2.212   6.402  10.932  0.4469 -0.2723 -0.7626
   36POPC    HX 4807   2.315   6.438  10.949  0.5546 -0.2801 -1.3723
   36POPC    HY 4808   2.165   6.401  11.033  2.1326  2.4095  0.1428
   36POPC   O31 4809   2.135   6.500  10.857  0.3932 -0.2017  0.1186
   36POPC   C31 4810   2.207   6.549  10.757  0.2934  0.4924 -0.1309
   36POPC   O32 4811   2.313   6.513  10.713 -0.3330  0.5584 -0.3705
   36POPC   C32 4812   2.134   6.668  10.701 -0.0487  0.0752  0.1285
   36POPC   H2X 4813   2.160   6.753  10.767 -1.2142  0.4672  0.0938
   36POPC   H2Y 4814   2.025   6.649  10.709 -0.4068  1.8704 -0.1379
   36POPC   C23 4815   2.282   6.188  10.414 -0.1203 -0.2374 -0.0869
   36POPC   H3R 4816   2.201   6.261  10.436 -1.2414 -0.9887 -1.5058
   36POPC   H3S 4817   2.243   6.091  10.377 -0.0143  1.0519 -4.0779
   36POPC   C24 4818   2.366   6.239  10.292  0.5907  0.4131  0.5667
   36POPC   H4R 4819   2.466   6.193  10.310  0.6888 -0.1355 -1.2035
   36POPC   H4S 4820   2.388   6.348  10.297  2.2109  0.3895 -2.8114
   36POPC   C25 4821   2.296   6.216  10.156 -0.0787 -0.3270 -0.1002
   36POPC   H5R 4822   2.198   6.268  10.161 -0.5785 -1.2455 -0.0659
   36POPC   H5S 4823   2.275   6.108  10.140  1.1666 -0.3542 -1.9168
   36POPC   C26 4824   2.376   6.256  10.034 -0.3116  0.4075  0.1705
   36POPC   H6R 4825   2.460   6.184  10.035 -0.0954  0.5573 -2.0451
   36POPC   H6S 4826   2.403   6.364  10.037  0.9656  0.1609 -1.2865
   36POPC   C27 4827   2.299   6.250   9.903 -0.9420  0.8671  0.3135
   36POPC   H7R 4828   2.206   6.304   9.932 -1.7723 -0.6735  0.6117
   36POPC   H7S 4829   2.281   6.143   9.882 -0.9321  0.4600  2.1727
   36POPC   C28 4830   2.387   6.309   9.791 -0.0418 -0.6719  0.1786
   36POPC   H8R 4831   2.478   6.247   9.780 -0.1843 -0.9086  0.3398
   36POPC   H8S 4832   2.424   6.410   9.819  3.0545 -1.3655 -0.9589
   36POPC   C29 4833   2.312   6.333   9.665 -0.4923 -0.0480 -0.0341
   36POPC   H91 4834   2.232   6.408   9.670 -0.6481 -0.1449 -0.8799
   36POPC  C210 4835   2.340   6.271   9.552  0.3121 -0.6464  0.2463
   36POPC  H101 4836   2.272   6.301   9.471  1.3210  2.4900  0.4028
   36POPC  C211 4837   2.440   6.175   9.515  0.4016 -0.1918  0.5212
   36POPC  H11R 4838   2.399   6.093   9.453 -0.8614  0.7568  0.0707
   36POPC  H11S 4839   2.510   6.141   9.594  0.7675 -1.5155 -0.3292
   36POPC  C212 4840   2.531   6.245   9.418  0.1399 -0.1280  0.4503
   36POPC  H12R 4841   2.611   6.168   9.405  2.0270  2.0117 -1.2686
   36POPC  H12S 4842   2.576   6.342   9.448 -1.2771  1.3522 -1.9158
   36POPC  C213 4843   2.472   6.266   9.280  0.6812 -0.4067  0.5520
   36POPC  H13R 4844   2.408   6.357   9.281 -0.6500 -1.2423 -1.9039
   36POPC  H13S 4845   2.418   6.174   9.250  0.7374 -0.1794 -0.2609
   36POPC  C214 4846   2.588   6.284   9.185  0.8927  0.0989 -0.0745
   36POPC  H14R 4847   2.650   6.192   9.179 -0.6217 -0.8534 -3.3139
   36POPC  H14S 4848   2.647   6.366   9.231  0.1014 -0.6277  2.3717
   36POPC  C215 4849   2.544   6.321   9.042 -0.2509 -0.1647  0.3240
   36POPC  H15R 4850   2.456   6.387   9.061  0.5150  0.5260  1.6194
   36POPC  H15S 4851   2.493   6.240   8.986 -2.4498  2.3892 -1.7033
   36POPC  C216 4852   2.657   6.387   8.972 -1.4041 -0.4122  1.1867
   36POPC  H16R 4853   2.746   6.321   8.980 -0.3656  0.4839 -1.6828
   36POPC  H16S 4854   2.668   6.489   9.014 -1.8743  0.2687 -0.2548
   36POPC  C217 4855   2.628   6.417   8.821 -0.1720  0.1373  0.4480
   36POPC  H17R 4856   2.598   6.322   8.773  0.4449  1.0142 -1.7797
   36POPC  H17S 4857   2.721   6.458   8.776 -1.1784  2.2902  0.1888
   36POPC  C218 4858   2.520   6.522   8.800 -0.6444  0.5808 -0.2997
   36POPC  H18R 4859   2.543   6.602   8.873 -3.1750  0.3789  0.8239
   36POPC  H18S 4860   2.420   6.483   8.830 -0.4857  1.5970  1.6869
   36POPC  H18T 4861   2.530   6.558   8.695  1.6301 -2.6766 -1.3709
   36POPC   C33 4862   2.163   6.706  10.553  0.2707  0.6031 -0.3324
   36POPC   H3X 4863   2.273   6.698  10.540  0.2345 -1.9463  0.4787
   36POPC   H3Y 4864   2.138   6.814  10.540  4.7442  1.9949  0.9309
   36POPC   C34 4865   2.097   6.618  10.452 -0.7873  0.1255  1.0377
   36POPC   H4X 4866   1.988   6.637  10.466 -0.6600  1.0092  0.8590
   36POPC   H4Y 4867   2.116   6.509  10.464 -1.7102 -0.2593 -0.6322
   36POPC   C35 4868   2.132   6.655  10.305 -0.1101  0.7544 -0.3581
   36POPC   H5X 4869   2.243   6.652  10.297  0.0169  0.5527  1.1183
   36POPC   H5Y 4870   2.109   6.761  10.280 -1.0584  0.1628 -2.1133
   36POPC   C36 4871   2.071   6.563  10.201  0.0938  0.5248 -0.3320
   36POPC   H6X 4872   1.963   6.550  10.225 -0.4281  1.9264 -1.7675
   36POPC   H6Y 4873   2.111   6.460  10.213 -1.9043 -0.3775 -1.0755
   36POPC   C37 4874   2.084   6.611  10.061  1.0283 -0.1150  0.5904
   36POPC   H7X 4875   2.188   6.601  10.024  0.7330  2.2336 -1.0807
   36POPC   H7Y 4876   2.060   6.720  10.067 -1.4407 -0.4287 -1.7358
   36POPC   C38 4877   1.978   6.549   9.965  0.0595  0.4330  0.2397
   36POPC   H8X 4878   1.875   6.588   9.979 -0.7409 -1.3322 -0.4026
   36POPC   H8Y 4879   1.978   6.441   9.990  2.5592  0.2941 -0.0751
   36POPC   C39 4880   2.014   6.555   9.814 -0.4190 -0.1952  0.8658
   36POPC   H9X 4881   2.122   6.536   9.798 -0.7307 -0.4427 -1.2519
   36POPC   H9Y 4882   2.001   6.657   9.771  4.3394  0.5878  0.7684
   36POPC  C310 4883   1.920   6.463   9.726 -0.2659  0.6509 -0.2977
   36POPC  H10X 4884   1.816   6.501   9.718  0.1345  1.6756 -0.7851
   36POPC  H10Y 4885   1.904   6.364   9.775  1.4122  0.9530  0.9440
   36POPC  C311 4886   1.958   6.463   9.574 -0.3441  1.1011  0.3532
   36POPC  H11X 4887   2.035   6.389   9.544 -1.2313  0.2464  0.1579
   36POPC  H11Y 4888   2.003   6.560   9.544 -0.7436  1.3750  0.6328
   36POPC  C312 4889   1.845   6.422   9.486 -0.2772  0.0382  0.5525
   36POPC  H12X 4890   1.764   6.497   9.499  0.5905  0.8357  1.5206
   36POPC  H12Y 4891   1.802   6.323   9.513 -0.8551  0.0012 -0.4497
   36POPC  C313 4892   1.890   6.419   9.336  0.4644  0.5226 -0.2203
   36POPC  H13X 4893   1.945   6.513   9.314 -2.0128  1.4355 -3.2977
   36POPC  H13Y 4894   1.799   6.436   9.275 -0.6290 -0.2670  1.1418
   36POPC  C314 4895   1.961   6.285   9.307 -0.7922  0.3593  0.2702
   36POPC  H14X 4896   1.904   6.196   9.341 -1.3487  0.2071 -1.0386
   36POPC  H14Y 4897   2.065   6.287   9.346 -0.2642  1.7127 -1.0775
   36POPC  C315 4898   1.974   6.266   9.153 -0.8873 -0.4533 -0.2080
   36POPC  H15X 4899   2.003   6.365   9.111 -2.3968  1.2380  2.4848
   36POPC  H15Y 4900   1.872   6.237   9.120 -0.6086 -0.6633 -0.9157
   36POPC  C316 4901   2.073   6.155   9.119  0.7372 -0.3927 -0.1303
   36POPC  H16X 4902   2.011   6.065   9.139 -2.3160  1.5505 -0.1059
   36POPC  H16Y 4903   2.167   6.159   9.177  0.4045  1.4151  0.3361
   36POPC  H16Z 4904   2.090   6.153   9.009 -2.1236  2.0075 -0.7444
   37POPC     N 4905   0.062   0.420   6.531 -0.3231 -0.4186 -0.4394
   37POPC   C12 4906  -0.001   0.316   6.616 -0.5086 -0.1857 -0.4104
   37POPC  H12A 4907  -0.070   0.359   6.688  0.4372 -2.4514  2.0158
   37POPC  H12B 4908   0.077   0.271   6.676 -1.7615 -1.7391  0.1070
   37POPC   C13 4909   0.155   0.511   6.613  0.2347  0.4020  0.7494
   37POPC  H13A 4910   0.236   0.453   6.654  0.4296  1.4426  1.8570
   37POPC  H13B 4911   0.206   0.591   6.561  2.8787 -2.3723 -1.3400
   37POPC  H13C 4912   0.109   0.558   6.698 -0.0796 -1.8239  1.9038
   37POPC   C14 4913   0.142   0.371   6.417  0.1800  0.6591  0.4146
   37POPC  H14A 4914   0.205   0.450   6.377  0.8922  0.1906  0.6015
   37POPC  H14B 4915   0.210   0.292   6.444 -1.5808 -1.4715 -1.0445
   37POPC  H14C 4916   0.079   0.339   6.335  0.0061  0.7435  0.5156
   37POPC   C15 4917  -0.039   0.515   6.481  0.8222  0.0762 -0.5010
   37POPC  H15A 4918  -0.107   0.464   6.415 -1.9640  0.3622  1.9770
   37POPC  H15B 4919  -0.006   0.599   6.421 -0.4177  1.3487  0.5238
   37POPC  H15C 4920  -0.106   0.546   6.559  1.8794 -2.2117  1.4234
   37POPC   C11 4921  -0.060   0.191   6.555  0.3805  0.2847  0.2577
   37POPC  H11A 4922  -0.085   0.117   6.635 -0.4907 -1.4650 -1.5601
   37POPC  H11B 4923   0.005   0.130   6.490 -1.3295  0.4139 -1.6763
   37POPC     P 4924  -0.269   0.120   6.419  0.3153 -0.4202 -0.2332
   37POPC   O13 4925  -0.198   0.004   6.363 -0.5027 -0.0324 -0.1251
   37POPC   O14 4926  -0.372   0.188   6.333 -0.1591 -0.1628 -0.6079
   37POPC   O12 4927  -0.169   0.221   6.469  0.0397 -0.2621  0.4375
   37POPC   O11 4928  -0.344   0.075   6.551  0.3978 -0.4516  0.3286
   37POPC    C1 4929  -0.443   0.172   6.603  0.2620  0.2149 -0.4067
   37POPC    HA 4930  -0.527   0.119   6.653 -0.4178  1.0592 -0.6386
   37POPC    HB 4931  -0.497   0.233   6.528 -1.4449  0.0955  0.6661
   37POPC    C2 4932  -0.383   0.269   6.713  0.2352 -0.0316 -0.5436
   37POPC    HS 4933  -0.292   0.311   6.664  1.9118 -1.3994  1.2580
   37POPC   O21 4934  -0.352   0.187   6.821 -0.8451 -0.5452 -0.1302
   37POPC   C21 4935  -0.241   0.215   6.886  0.1542 -0.0925  0.0287
   37POPC   O22 4936  -0.152   0.290   6.845  0.0474  0.6357 -0.7110
   37POPC   C22 4937  -0.231   0.149   7.028 -0.8171 -0.8559  0.0698
   37POPC   H2R 4938  -0.133   0.098   7.039  0.7113  1.8817  0.0261
   37POPC   H2S 4939  -0.306   0.067   7.027  0.7061 -2.3155 -2.0267
   37POPC    C3 4940  -0.470   0.392   6.743  0.0764 -0.6255 -0.0302
   37POPC    HX 4941  -0.577   0.369   6.763 -0.0725  0.4370  0.4933
   37POPC    HY 4942  -0.478   0.447   6.646  0.6071 -0.2749  0.1168
   37POPC   O31 4943  -0.412   0.476   6.847 -0.5435 -0.2035 -0.3735
   37POPC   C31 4944  -0.317   0.564   6.804  0.2978  0.3837 -0.3708
   37POPC   O32 4945  -0.268   0.569   6.694  0.7850  0.0126  0.0185
   37POPC   C32 4946  -0.274   0.652   6.913  0.4339 -0.5433  0.2059
   37POPC   H2X 4947  -0.224   0.740   6.865  0.5023 -0.3071  0.7084
   37POPC   H2Y 4948  -0.188   0.599   6.960 -1.1373 -2.0733  1.4841
   37POPC   C23 4949  -0.246   0.263   7.132 -0.2214  0.2988 -1.2759
   37POPC   H3R 4950  -0.327   0.334   7.105 -1.8499 -0.8151  0.4155
   37POPC   H3S 4951  -0.148   0.312   7.153  0.2564 -1.0291 -0.2190
   37POPC   C24 4952  -0.256   0.211   7.276  0.6402  0.8098 -0.4586
   37POPC   H4R 4953  -0.165   0.153   7.301  2.1225  1.9491 -2.8400
   37POPC   H4S 4954  -0.340   0.138   7.285  1.9479 -0.4727  2.2402
   37POPC   C25 4955  -0.274   0.330   7.377 -0.3461 -0.5236 -0.0678
   37POPC   H5R 4956  -0.373   0.375   7.359 -0.2589  0.2457  1.2473
   37POPC   H5S 4957  -0.196   0.407   7.360 -0.7422 -0.0794  0.1412
   37POPC   C26 4958  -0.251   0.297   7.528  0.5052 -0.3623  0.5687
   37POPC   H6R 4959  -0.152   0.247   7.534  0.6862 -0.4665 -2.0985
   37POPC   H6S 4960  -0.317   0.221   7.573 -0.4210 -0.1198 -0.3382
   37POPC   C27 4961  -0.280   0.419   7.621 -0.4013 -0.3876  0.2629
   37POPC   H7R 4962  -0.384   0.455   7.609 -0.8355 -0.4334  3.1543
   37POPC   H7S 4963  -0.201   0.497   7.607  1.5034 -1.8600  2.1967
   37POPC   C28 4964  -0.273   0.385   7.765 -0.1809  0.7435  0.4223
   37POPC   H8R 4965  -0.330   0.294   7.791  1.5002 -0.0095  1.6457
   37POPC   H8S 4966  -0.315   0.475   7.815 -0.9498 -0.2461  1.6198
   37POPC   C29 4967  -0.126   0.365   7.808  0.5671  0.1191  0.1433
   37POPC   H91 4968  -0.076   0.274   7.771  1.4948  0.6899 -0.0222
   37POPC  C210 4969  -0.038   0.444   7.865 -0.9128  0.4012 -0.1813
   37POPC  H101 4970   0.063   0.403   7.884 -1.4350 -1.2024 -0.6972
   37POPC  C211 4971  -0.064   0.579   7.915  0.6108 -0.3289 -0.5043
   37POPC  H11R 4972  -0.169   0.610   7.897  0.2756 -2.0636 -1.8433
   37POPC  H11S 4973  -0.002   0.654   7.860  0.7486  1.2510  1.6566
   37POPC  C212 4974  -0.042   0.595   8.066 -0.6197 -0.7586 -0.1015
   37POPC  H12R 4975  -0.049   0.704   8.087 -0.9784 -0.5239 -1.3658
   37POPC  H12S 4976   0.051   0.545   8.102 -0.4955 -0.5278 -0.0994
   37POPC  C213 4977  -0.150   0.526   8.157  0.3429  0.1637 -0.5657
   37POPC  H13R 4978  -0.148   0.419   8.128  3.0967 -0.3954  1.3356
   37POPC  H13S 4979  -0.247   0.570   8.125  0.3631 -0.4513 -1.5393
   37POPC  C214 4980  -0.129   0.522   8.305 -0.2565  0.4521 -0.3531
   37POPC  H14R 4981  -0.108   0.626   8.339  0.2184  0.4307 -0.5714
   37POPC  H14S 4982  -0.035   0.474   8.339  0.0262  0.3847 -1.2109
   37POPC  C215 4983  -0.252   0.452   8.373  0.3105  0.3496 -0.2164
   37POPC  H15R 4984  -0.258   0.347   8.336 -2.3738 -0.2965  1.7043
   37POPC  H15S 4985  -0.344   0.503   8.338 -0.0519 -0.5669 -0.6303
   37POPC  C216 4986  -0.250   0.434   8.523  0.2594  0.0601  0.3714
   37POPC  H16R 4987  -0.239   0.529   8.579  1.2774 -0.6598  1.4375
   37POPC  H16S 4988  -0.162   0.380   8.563 -0.2179 -0.0832  1.2629
   37POPC  C217 4989  -0.379   0.363   8.573  0.4064  0.1471  0.4410
   37POPC  H17R 4990  -0.372   0.260   8.531  0.6566 -0.2548  1.4132
   37POPC  H17S 4991  -0.472   0.408   8.534  0.9949 -0.7278 -2.1601
   37POPC  C218 4992  -0.376   0.353   8.725  0.5272 -0.3761  0.9167
   37POPC  H18R 4993  -0.398   0.450   8.774  0.7212  0.3841 -0.4562
   37POPC  H18S 4994  -0.276   0.317   8.757  1.8482  0.5503 -1.9174
   37POPC  H18T 4995  -0.448   0.277   8.762  1.5449 -1.7605  0.1609
   37POPC   C33 4996  -0.373   0.692   7.029  0.8388 -0.8278 -0.2030
   37POPC   H3X 4997  -0.449   0.613   7.048  0.4442 -0.5198 -0.4593
   37POPC   H3Y 4998  -0.425   0.783   6.991  1.4660  0.3019  1.5195
   37POPC   C34 4999  -0.296   0.723   7.156 -0.1186 -0.0196 -0.7722
   37POPC   H4X 5000  -0.213   0.793   7.136  1.9045 -2.7563 -2.7265
   37POPC   H4Y 5001  -0.249   0.629   7.193  0.2528  0.1228 -0.8782
   37POPC   C35 5002  -0.373   0.783   7.269  0.1393 -0.2745 -0.0990
   37POPC   H5X 5003  -0.459   0.717   7.290  0.1970 -0.4360 -0.3663
   37POPC   H5Y 5004  -0.422   0.877   7.238 -1.0600 -1.0830 -0.6970
   37POPC   C36 5005  -0.282   0.796   7.397 -0.9248  0.2492  0.6224
   37POPC   H6X 5006  -0.212   0.882   7.394 -0.2163 -0.2695  1.6032
   37POPC   H6Y 5007  -0.233   0.701   7.425  2.8366  1.7567 -0.3295
   37POPC   C37 5008  -0.361   0.831   7.525 -0.4774  0.7667  0.2857
   37POPC   H7X 5009  -0.451   0.772   7.556 -1.0710  3.1256  3.5928
   37POPC   H7Y 5010  -0.396   0.935   7.511 -0.9659  0.3080 -2.4495
   37POPC   C38 5011  -0.282   0.817   7.660  0.3180 -0.0008 -0.4479
   37POPC   H8X 5012  -0.195   0.886   7.665 -0.0547  0.3852  1.1591
   37POPC   H8Y 5013  -0.247   0.711   7.661  3.3769  0.8981  1.4941
   37POPC   C39 5014  -0.362   0.828   7.792 -0.1470  0.1360 -0.1686
   37POPC   H9X 5015  -0.293   0.813   7.878  1.5865  2.7517 -0.9628
   37POPC   H9Y 5016  -0.435   0.746   7.778  0.6908 -0.6365 -0.1638
   37POPC  C310 5017  -0.439   0.965   7.810 -0.4947  0.2591  0.4003
   37POPC  H10X 5018  -0.495   0.996   7.720  0.4031  0.6773 -0.0345
   37POPC  H10Y 5019  -0.363   1.046   7.818 -1.6145  1.3837 -0.0518
   37POPC  C311 5020  -0.532   0.960   7.925 -0.2642  0.5636 -0.8052
   37POPC  H11X 5021  -0.469   0.928   8.011  0.6874  0.0144 -1.6902
   37POPC  H11Y 5022  -0.612   0.885   7.909  0.9341 -0.4505 -2.3356
   37POPC  C312 5023  -0.599   1.098   7.953  0.4151  0.6465  0.5497
   37POPC  H12X 5024  -0.663   1.118   7.864 -0.2194 -0.5301  0.7268
   37POPC  H12Y 5025  -0.525   1.180   7.966  2.2555 -0.8081 -0.2254
   37POPC  C313 5026  -0.705   1.099   8.069 -0.4424  0.2878 -0.1267
   37POPC  H13X 5027  -0.752   1.199   8.084  1.5387  1.0560  1.5098
   37POPC  H13Y 5028  -0.641   1.072   8.156 -0.9524 -0.1964  0.1043
   37POPC  C314 5029  -0.812   0.994   8.038  0.5057  0.5551 -0.2399
   37POPC  H14X 5030  -0.768   0.893   8.018 -0.5338 -0.2412  1.3706
   37POPC  H14Y 5031  -0.869   1.034   7.951 -3.2211 -0.2539  1.6569
   37POPC  C315 5032  -0.916   0.971   8.149 -0.1267 -0.0314  1.1355
   37POPC  H15X 5033  -0.966   1.070   8.155  0.0220  0.1550 -0.3563
   37POPC  H15Y 5034  -0.861   0.956   8.244 -0.0421 -1.0519  0.9314
   37POPC  C316 5035  -1.009   0.849   8.129 -0.0950 -0.3708  0.7111
   37POPC  H16X 5036  -1.081   0.877   8.049  2.1737 -2.2039 -2.1778
   37POPC  H16Y 5037  -1.055   0.815   8.225  1.5217 -1.7971  1.0329
   37POPC  H16Z 5038  -0.956   0.765   8.080  0.5980  1.5823 -2.0904
   38POPC     N 5039   2.765   5.716   6.082 -0.1820 -0.6279  0.1572
   38POPC   C12 5040   2.650   5.644   6.150  0.0391 -0.2278  0.3134
   38POPC  H12A 5041   2.655   5.543   6.112 -1.3401 -0.7201  1.3579
   38POPC  H12B 5042   2.549   5.675   6.125  0.0106 -0.3010  0.3362
   38POPC   C13 5043   2.759   5.862   6.097 -0.2097  0.0703 -0.0463
   38POPC  H13A 5044   2.661   5.901   6.075  0.1360  1.7086  1.0589
   38POPC  H13B 5045   2.768   5.894   6.200  1.5076  1.7900 -0.6466
   38POPC  H13C 5046   2.843   5.913   6.051  0.4823 -0.9989  0.0065
   38POPC   C14 5047   2.905   5.662   6.125 -0.7981 -0.5831 -0.7809
   38POPC  H14A 5048   2.911   5.559   6.093 -0.0617 -0.3441 -1.4504
   38POPC  H14B 5049   2.989   5.710   6.078  0.2327 -0.2403  1.2909
   38POPC  H14C 5050   2.919   5.669   6.232 -1.7123  0.7551 -0.7159
   38POPC   C15 5051   2.754   5.682   5.933 -0.0981 -0.3855  0.3286
   38POPC  H15A 5052   2.834   5.718   5.871 -0.5496  2.0120  0.9957
   38POPC  H15B 5053   2.656   5.704   5.894 -1.1065  0.3600  3.0045
   38POPC  H15C 5054   2.753   5.574   5.931  0.9339 -0.3917 -0.6185
   38POPC   C11 5055   2.662   5.636   6.301 -0.3522  0.4429 -0.1699
   38POPC  H11A 5056   2.768   5.611   6.323 -0.7999 -2.6379 -0.9470
   38POPC  H11B 5057   2.590   5.564   6.346  0.1010  1.1792  1.8240
   38POPC     P 5058   2.482   5.811   6.366  0.0541  0.0808 -0.1816
   38POPC   O13 5059   2.396   5.767   6.249 -0.3586  0.4713  0.3192
   38POPC   O14 5060   2.475   5.952   6.416 -0.2552  0.1111  0.5108
   38POPC   O12 5061   2.632   5.762   6.351 -0.3457 -0.1192 -0.0960
   38POPC   O11 5062   2.433   5.715   6.480  1.2075  0.0122 -0.4109
   38POPC    C1 5063   2.480   5.768   6.608  0.0025  0.1421 -0.0580
   38POPC    HA 5064   2.447   5.872   6.626  0.3506  0.7577 -2.5573
   38POPC    HB 5065   2.591   5.774   6.611 -0.0241  0.2909  0.9538
   38POPC    C2 5066   2.432   5.666   6.710 -0.8821 -1.0576 -0.5939
   38POPC    HS 5067   2.467   5.693   6.813 -0.9056  0.8284 -1.0336
   38POPC   O21 5068   2.480   5.532   6.685 -0.0157 -0.0976  0.1539
   38POPC   C21 5069   2.598   5.487   6.721  0.1135 -0.5269  0.4091
   38POPC   O22 5070   2.688   5.556   6.769 -0.3323 -0.2713  0.1871
   38POPC   C22 5071   2.621   5.340   6.694 -0.1075  0.1299  1.0770
   38POPC   H2R 5072   2.719   5.346   6.642  1.1114 -0.2771  3.2199
   38POPC   H2S 5073   2.546   5.286   6.632  3.0741 -0.7263 -2.3666
   38POPC    C3 5074   2.277   5.675   6.730 -0.1236 -0.0978 -0.5136
   38POPC    HX 5075   2.233   5.681   6.628  1.0401  2.1531 -0.9437
   38POPC    HY 5076   2.264   5.773   6.780  0.7508 -0.7519  1.0928
   38POPC   O31 5077   2.221   5.571   6.812  0.2074  0.5752 -0.1362
   38POPC   C31 5078   2.187   5.465   6.752  0.4712  0.3355  0.6763
   38POPC   O32 5079   2.182   5.448   6.633 -0.1153 -0.2771 -0.2535
   38POPC   C32 5080   2.132   5.368   6.852 -0.1116  0.2093  0.2956
   38POPC   H2X 5081   2.169   5.388   6.955 -0.3486 -0.6489  0.5593
   38POPC   H2Y 5082   2.156   5.263   6.823 -1.1881  0.1376 -0.3992
   38POPC   C23 5083   2.644   5.256   6.824 -0.0707 -0.1170 -0.1114
   38POPC   H3R 5084   2.731   5.302   6.876 -0.7406  1.2321 -0.1493
   38POPC   H3S 5085   2.683   5.153   6.807 -0.4047 -0.3234  0.3688
   38POPC   C24 5086   2.522   5.234   6.913 -0.4830 -0.1965 -0.8478
   38POPC   H4R 5087   2.492   5.128   6.921  1.2320 -0.7351 -1.0864
   38POPC   H4S 5088   2.444   5.286   6.853  0.8434 -0.9044 -3.3052
   38POPC   C25 5089   2.524   5.295   7.052 -0.0095 -0.6291 -0.1608
   38POPC   H5R 5090   2.541   5.405   7.047 -1.1104 -0.4554 -0.2919
   38POPC   H5S 5091   2.610   5.256   7.111 -1.2331 -0.0094  2.1425
   38POPC   C26 5092   2.401   5.272   7.142  0.5588  0.7592 -0.6952
   38POPC   H6R 5093   2.397   5.167   7.176 -0.9158  0.7211 -0.9343
   38POPC   H6S 5094   2.309   5.295   7.083 -2.0705 -1.6461  2.1364
   38POPC   C27 5095   2.391   5.367   7.261  0.0523 -0.8943 -0.1588
   38POPC   H7R 5096   2.423   5.466   7.222  0.3202 -0.7667  0.3798
   38POPC   H7S 5097   2.472   5.347   7.335  1.0665  3.9834  0.4040
   38POPC   C28 5098   2.250   5.361   7.326  0.3530 -0.7449  0.2470
   38POPC   H8R 5099   2.215   5.256   7.326  0.4098 -0.7938 -1.4454
   38POPC   H8S 5100   2.184   5.412   7.253 -1.5240 -0.2985  2.1577
   38POPC   C29 5101   2.234   5.425   7.457 -0.5862  0.0464  0.5971
   38POPC   H91 5102   2.184   5.522   7.449  0.9164  0.7057 -3.3585
   38POPC  C210 5103   2.285   5.379   7.572  0.9953  1.1570 -0.1231
   38POPC  H101 5104   2.251   5.421   7.668 -0.5118 -1.9574  0.8656
   38POPC  C211 5105   2.345   5.236   7.595  0.7708 -0.0245  0.0460
   38POPC  H11R 5106   2.403   5.199   7.507 -0.5727  0.6333 -1.1596
   38POPC  H11S 5107   2.267   5.159   7.607 -0.1160  0.8134 -0.1731
   38POPC  C212 5108   2.426   5.240   7.727 -0.3522 -0.0948  0.6667
   38POPC  H12R 5109   2.520   5.295   7.707  0.2632 -1.4197 -0.2391
   38POPC  H12S 5110   2.458   5.138   7.756  1.4560  0.3113  0.2177
   38POPC  C213 5111   2.349   5.296   7.848  0.0670 -0.1843  0.6504
   38POPC  H13R 5112   2.254   5.238   7.847 -0.3381  0.4375 -1.3206
   38POPC  H13S 5113   2.338   5.406   7.849 -4.2626 -0.4458  0.3415
   38POPC  C214 5114   2.419   5.257   7.983  0.0740  1.5130  0.0834
   38POPC  H14R 5115   2.528   5.278   7.977  0.6387 -1.1187 -0.0465
   38POPC  H14S 5116   2.420   5.148   8.002 -1.7790  1.0698 -1.9289
   38POPC  C215 5117   2.339   5.320   8.095 -0.1403  0.1468  0.5832
   38POPC  H15R 5118   2.329   5.428   8.071 -2.0136 -0.0228  0.4846
   38POPC  H15S 5119   2.405   5.301   8.182  2.0708 -1.1925 -1.2629
   38POPC  C216 5120   2.202   5.261   8.131 -0.2039  0.3229 -0.5244
   38POPC  H16R 5121   2.124   5.300   8.062  0.0446  1.2962 -0.2610
   38POPC  H16S 5122   2.164   5.306   8.224 -1.9659 -1.6227 -0.2133
   38POPC  C217 5123   2.201   5.113   8.146 -0.5942  0.6477  0.0308
   38POPC  H17R 5124   2.286   5.078   8.209  0.7318  2.8569 -0.4011
   38POPC  H17S 5125   2.226   5.055   8.055 -0.3108  0.5381  0.1747
   38POPC  C218 5126   2.076   5.055   8.214  0.2625 -0.0502 -0.1931
   38POPC  H18R 5127   2.066   5.098   8.316 -2.0798 -0.5105 -0.1599
   38POPC  H18S 5128   2.070   4.944   8.220 -2.1403 -0.0292 -0.8948
   38POPC  H18T 5129   1.983   5.090   8.162 -1.0151  1.6951  3.0090
   38POPC   C33 5130   1.975   5.373   6.852 -0.2293  0.1294 -0.1177
   38POPC   H3X 5131   1.924   5.280   6.887 -0.0388 -0.2374 -0.8064
   38POPC   H3Y 5132   1.940   5.380   6.747  0.0822 -0.0505 -0.2357
   38POPC   C34 5133   1.918   5.499   6.925 -0.1930  0.0082 -0.1632
   38POPC   H4X 5134   1.973   5.589   6.889 -0.1055 -0.2857 -0.7857
   38POPC   H4Y 5135   1.937   5.484   7.033  0.5352  1.6070 -0.0336
   38POPC   C35 5136   1.771   5.529   6.895  0.1740 -0.1233 -0.1398
   38POPC   H5X 5137   1.704   5.451   6.939 -2.8238  2.0318 -0.5344
   38POPC   H5Y 5138   1.755   5.541   6.786  2.4771  1.8900 -0.3279
   38POPC   C36 5139   1.718   5.666   6.951 -0.3164  0.3588  1.3540
   38POPC   H6X 5140   1.621   5.679   6.897  1.3339  0.4188 -1.7874
   38POPC   H6Y 5141   1.784   5.749   6.919 -2.1394  1.4254  0.2137
   38POPC   C37 5142   1.706   5.662   7.107 -0.2810 -0.5799  1.0402
   38POPC   H7X 5143   1.656   5.758   7.130 -1.1737 -0.9069  0.5043
   38POPC   H7Y 5144   1.809   5.651   7.150  0.9310  0.7425 -1.3364
   38POPC   C38 5145   1.623   5.538   7.159  0.5994  0.6087 -0.3355
   38POPC   H8X 5146   1.676   5.445   7.128  0.5503  1.1610 -2.1768
   38POPC   H8Y 5147   1.530   5.539   7.099 -0.9190  0.3417  1.8962
   38POPC   C39 5148   1.592   5.544   7.309  0.1026 -0.5319  0.2326
   38POPC   H9X 5149   1.514   5.465   7.323  0.4575 -0.9423 -0.0721
   38POPC   H9Y 5150   1.547   5.640   7.342 -1.1136 -0.0898 -2.4702
   38POPC  C310 5151   1.710   5.511   7.399 -0.0007  0.3559  0.4384
   38POPC  H10X 5152   1.787   5.591   7.404  0.6883 -0.2517 -0.2464
   38POPC  H10Y 5153   1.753   5.423   7.347 -0.0235  1.3550 -1.3207
   38POPC  C311 5154   1.675   5.460   7.538  0.4447 -0.1373  0.9827
   38POPC  H11X 5155   1.607   5.371   7.544 -1.4001  1.2155  1.0983
   38POPC  H11Y 5156   1.610   5.542   7.576 -0.8982 -0.8986  0.4143
   38POPC  C312 5157   1.804   5.440   7.622  0.1387 -0.3460 -0.6951
   38POPC  H12X 5158   1.871   5.523   7.590 -0.4371 -0.1386 -1.4000
   38POPC  H12Y 5159   1.858   5.349   7.589  1.7200 -0.8119  2.7277
   38POPC  C313 5160   1.794   5.448   7.774  0.2055 -1.0031  0.7122
   38POPC  H13X 5161   1.731   5.538   7.793 -0.3108 -1.4046  0.9317
   38POPC  H13Y 5162   1.888   5.476   7.826  0.1794  0.9703 -0.2294
   38POPC  C314 5163   1.729   5.324   7.833  0.5175  0.1097  0.0213
   38POPC  H14X 5164   1.806   5.244   7.821  1.2230  0.7940 -0.1235
   38POPC  H14Y 5165   1.642   5.296   7.770  1.7188  0.3825 -1.8651
   38POPC  C315 5166   1.700   5.319   7.981  0.3403 -0.2834 -1.1667
   38POPC  H15X 5167   1.607   5.380   7.992  0.8009  0.2608 -0.1698
   38POPC  H15Y 5168   1.782   5.364   8.041  1.1420 -1.0493 -1.6774
   38POPC  C316 5169   1.668   5.182   8.037 -0.5430  0.6249  0.2789
   38POPC  H16X 5170   1.762   5.125   8.050  0.0889  1.7054  0.6014
   38POPC  H16Y 5171   1.603   5.133   7.961  0.3775 -0.2769  0.0632
   38POPC  H16Z 5172   1.618   5.190   8.136  0.5798  1.0879  0.8297
   39POPC     N 5173   5.220   4.145   6.217  0.5423 -0.2183 -0.5145
   39POPC   C12 5174   5.080   4.094   6.261 -0.6454  0.2777  0.1725
   39POPC  H12A 5175   5.016   4.085   6.174  0.2254  1.1596 -0.5801
   39POPC  H12B 5176   5.027   4.165   6.323 -1.7805  1.0954 -1.6290
   39POPC   C13 5177   5.196   4.263   6.132 -0.4013  0.0090  0.2807
   39POPC  H13A 5178   5.176   4.349   6.194 -4.5385 -0.7977  0.3179
   39POPC  H13B 5179   5.282   4.287   6.071 -0.1763 -0.4264  0.4163
   39POPC  H13C 5180   5.115   4.252   6.062  1.3982  0.2878 -1.9691
   39POPC   C14 5181   5.308   4.167   6.334  0.5112 -0.2848  0.3701
   39POPC  H14A 5182   5.403   4.198   6.291  0.1861 -1.4962 -1.3369
   39POPC  H14B 5183   5.270   4.253   6.388  1.8843 -0.1980  1.2398
   39POPC  H14C 5184   5.322   4.078   6.393 -1.2188 -0.3241  0.7699
   39POPC   C15 5185   5.276   4.037   6.133 -0.3227 -0.3480  0.9899
   39POPC  H15A 5186   5.376   4.066   6.104 -0.2704 -1.9940 -0.6863
   39POPC  H15B 5187   5.228   4.016   6.038  0.9654 -1.2665  0.5032
   39POPC  H15C 5188   5.282   3.939   6.178 -0.2281 -0.9925 -0.3483
   39POPC   C11 5189   5.076   3.961   6.335  0.6682  0.5157 -0.6541
   39POPC  H11A 5190   4.981   3.962   6.393  0.8204 -1.1567 -0.3053
   39POPC  H11B 5191   5.152   3.949   6.415  1.7923  1.4016 -1.5716
   39POPC     P 5192   4.934   3.826   6.166 -0.1838  0.4148 -0.2316
   39POPC   O13 5193   4.931   3.694   6.098  0.4644 -0.1724  0.0487
   39POPC   O14 5194   4.888   3.946   6.086 -0.8753  0.2214 -0.4688
   39POPC   O12 5195   5.073   3.856   6.233 -0.1018  0.2572 -0.7466
   39POPC   O11 5196   4.838   3.815   6.294  0.4757  0.1061 -0.3054
   39POPC    C1 5197   4.795   3.687   6.334  0.2895  0.3990  0.9519
   39POPC    HA 5198   4.868   3.640   6.403  0.6020 -1.1007 -0.3486
   39POPC    HB 5199   4.784   3.616   6.250 -0.8851 -0.7946  2.0859
   39POPC    C2 5200   4.658   3.704   6.411  0.2375  1.0332  0.4651
   39POPC    HS 5201   4.600   3.777   6.349 -1.7637 -0.4536  0.4781
   39POPC   O21 5202   4.686   3.741   6.544  0.0711 -0.2796  0.3888
   39POPC   C21 5203   4.655   3.870   6.585  0.3705  1.0883  0.4026
   39POPC   O22 5204   4.608   3.953   6.513 -0.1637  0.2497  0.0190
   39POPC   C22 5205   4.719   3.897   6.725  0.3617 -0.3905  0.8970
   39POPC   H2R 5206   4.805   3.967   6.715  0.1257 -0.2762 -0.6686
   39POPC   H2S 5207   4.752   3.800   6.769 -0.3618 -2.4534 -2.6362
   39POPC    C3 5208   4.582   3.564   6.423 -0.2058 -0.1487  0.4791
   39POPC    HX 5209   4.657   3.497   6.472 -0.8724 -0.4442  1.1161
   39POPC    HY 5210   4.558   3.523   6.323 -0.9763 -0.7294  0.8923
   39POPC   O31 5211   4.466   3.581   6.510  0.4114 -0.4622  0.4024
   39POPC   C31 5212   4.351   3.609   6.447  0.3367  0.0352 -0.3561
   39POPC   O32 5213   4.345   3.637   6.332 -0.4613  0.1266 -0.2666
   39POPC   C32 5214   4.235   3.590   6.545 -0.1831 -0.6083 -0.1862
   39POPC   H2X 5215   4.168   3.522   6.490  1.5389 -1.4725 -1.2879
   39POPC   H2Y 5216   4.269   3.534   6.635 -0.5774  0.5112  0.6883
   39POPC   C23 5217   4.625   3.961   6.828 -0.0328 -0.4067 -0.9285
   39POPC   H3R 5218   4.532   3.899   6.831  0.6185 -1.5044  3.2018
   39POPC   H3S 5219   4.597   4.064   6.797 -1.5725 -0.6267 -0.3954
   39POPC   C24 5220   4.670   3.944   6.972 -0.4836 -0.3014  0.2519
   39POPC   H4R 5221   4.775   3.978   6.983 -0.8496  0.7097  0.7829
   39POPC   H4S 5222   4.679   3.838   7.003  1.2685 -0.0529  0.6841
   39POPC   C25 5223   4.583   4.016   7.079 -0.2457 -0.0780 -0.1626
   39POPC   H5R 5224   4.480   3.976   7.063  0.7319 -2.2632 -1.4439
   39POPC   H5S 5225   4.582   4.127   7.073  0.2216  0.1621  2.6221
   39POPC   C26 5226   4.626   3.988   7.225 -0.2119 -0.6435 -0.3940
   39POPC   H6R 5227   4.734   4.009   7.238 -0.8103  2.2017  0.6545
   39POPC   H6S 5228   4.603   3.884   7.257  1.3838 -0.7914  0.3829
   39POPC   C27 5229   4.565   4.094   7.323  0.0602 -0.0937  0.7073
   39POPC   H7R 5230   4.460   4.072   7.354  0.4161  0.3576  2.3396
   39POPC   H7S 5231   4.579   4.191   7.271 -2.2883 -1.4652 -2.8813
   39POPC   C28 5232   4.633   4.105   7.456 -0.9449  0.0843  0.5212
   39POPC   H8R 5233   4.736   4.142   7.436 -1.3795  0.7175 -0.6887
   39POPC   H8S 5234   4.624   4.005   7.502  0.1891  0.0965  0.7938
   39POPC   C29 5235   4.561   4.194   7.549 -0.1798  0.3957  0.2865
   39POPC   H91 5236   4.543   4.293   7.505 -1.7949 -0.4117 -0.9263
   39POPC  C210 5237   4.548   4.172   7.678  0.6248  0.0894 -0.1568
   39POPC  H101 5238   4.510   4.253   7.741 -0.6811  1.8911 -3.0455
   39POPC  C211 5239   4.582   4.057   7.757 -0.3752  0.6036  0.2970
   39POPC  H11R 5240   4.620   3.974   7.692 -0.6860  0.5220  0.2158
   39POPC  H11S 5241   4.495   4.010   7.808 -1.3318  3.0285  1.0064
   39POPC  C212 5242   4.702   4.079   7.858  0.2992 -0.2347 -0.2709
   39POPC  H12R 5243   4.663   4.153   7.931 -3.2826 -0.8494 -1.3645
   39POPC  H12S 5244   4.791   4.127   7.811  0.4866 -0.5080 -0.1973
   39POPC  C213 5245   4.757   3.954   7.927  0.9559  0.4760  1.0432
   39POPC  H13R 5246   4.806   3.884   7.855 -0.0718  1.8286 -1.0601
   39POPC  H13S 5247   4.670   3.901   7.971  0.7435  1.2955  1.6329
   39POPC  C214 5248   4.865   3.969   8.037  0.0452 -0.6062  0.4049
   39POPC  H14R 5249   4.948   4.034   8.002 -0.5857  0.0440  0.0773
   39POPC  H14S 5250   4.900   3.868   8.066 -2.0611 -1.1187  1.3846
   39POPC  C215 5251   4.808   4.037   8.160 -0.1853 -0.3258  0.2292
   39POPC  H15R 5252   4.742   4.122   8.131  0.0835 -0.0735  0.3598
   39POPC  H15S 5253   4.887   4.081   8.223  0.1124  0.8616 -0.9264
   39POPC  C216 5254   4.728   3.941   8.247  0.8429  0.5951  0.0062
   39POPC  H16R 5255   4.781   3.844   8.242  1.4840  0.9430  0.0065
   39POPC  H16S 5256   4.629   3.926   8.199  1.8521  0.7926 -2.2643
   39POPC  C217 5257   4.700   4.003   8.388 -0.0834  0.2754  0.1495
   39POPC  H17R 5258   4.661   4.106   8.375 -2.9865 -1.0245 -2.9878
   39POPC  H17S 5259   4.791   3.991   8.451 -0.7149  0.4416  1.0997
   39POPC  C218 5260   4.614   3.904   8.466  0.0268 -0.3835 -0.2374
   39POPC  H18R 5261   4.514   3.888   8.420 -1.5726 -1.1961  3.2120
   39POPC  H18S 5262   4.605   3.928   8.574  0.5482 -1.5740  0.0896
   39POPC  H18T 5263   4.652   3.801   8.449  0.2822 -0.2656 -0.3929
   39POPC   C33 5264   4.158   3.718   6.586  0.2716 -1.3850 -0.1385
   39POPC   H3X 5265   4.054   3.686   6.605 -0.6414  0.4976 -1.6268
   39POPC   H3Y 5266   4.155   3.788   6.500 -0.5969  0.0652  1.0401
   39POPC   C34 5267   4.219   3.796   6.696 -0.2417  0.2886  0.8072
   39POPC   H4X 5268   4.183   3.901   6.698 -1.7489 -0.2238  2.1294
   39POPC   H4Y 5269   4.329   3.782   6.688 -0.5571 -2.6167  0.2639
   39POPC   C35 5270   4.172   3.736   6.833  0.0245 -0.1303 -0.1079
   39POPC   H5X 5271   4.185   3.626   6.834 -2.1292 -0.4272 -0.1867
   39POPC   H5Y 5272   4.063   3.749   6.849 -0.0504  0.6028 -1.0459
   39POPC   C36 5273   4.241   3.804   6.951 -0.5422  0.0259 -0.4729
   39POPC   H6X 5274   4.236   3.915   6.949  1.0109  0.2588  2.5541
   39POPC   H6Y 5275   4.344   3.762   6.949 -0.2876  0.5230  1.0610
   39POPC   C37 5276   4.180   3.762   7.083  0.0987  0.2047  0.5920
   39POPC   H7X 5277   4.183   3.651   7.079 -0.4772  0.1777  0.8447
   39POPC   H7Y 5278   4.076   3.795   7.101 -0.2167 -0.0664 -0.6636
   39POPC   C38 5279   4.262   3.811   7.210 -0.6264 -0.1400  0.2130
   39POPC   H8X 5280   4.267   3.920   7.190 -0.3464 -0.2558 -0.3569
   39POPC   H8Y 5281   4.365   3.769   7.212 -1.2495 -1.8002 -0.6715
   39POPC   C39 5282   4.190   3.773   7.340 -0.2007 -0.2889  0.0424
   39POPC   H9X 5283   4.176   3.665   7.358  1.9445 -0.3489  1.6259
   39POPC   H9Y 5284   4.084   3.804   7.329 -1.2867 -3.6713 -0.1492
   39POPC  C310 5285   4.248   3.847   7.460  0.7361 -0.8761  0.3067
   39POPC  H10X 5286   4.260   3.956   7.441 -1.3848 -0.1999  2.4520
   39POPC  H10Y 5287   4.349   3.804   7.482  1.6104  0.0553 -1.6691
   39POPC  C311 5288   4.155   3.832   7.589 -0.4356  0.0593  0.6821
   39POPC  H11X 5289   4.124   3.726   7.596 -1.1987  0.0037 -2.1599
   39POPC  H11Y 5290   4.064   3.893   7.571 -1.8058 -1.5186  1.9711
   39POPC  C312 5291   4.234   3.888   7.711 -0.5094 -0.0833  0.2606
   39POPC  H12X 5292   4.199   3.993   7.712 -1.8805 -0.4870 -1.0386
   39POPC  H12Y 5293   4.343   3.895   7.689 -0.6541  0.9286 -0.2095
   39POPC  C313 5294   4.194   3.818   7.834  0.1890  0.5322 -0.2305
   39POPC  H13X 5295   4.248   3.721   7.826  1.1910  0.7818  2.4660
   39POPC  H13Y 5296   4.085   3.800   7.828  0.2112 -0.4671  1.6190
   39POPC  C314 5297   4.214   3.894   7.964 -0.5181  0.2004  0.3900
   39POPC  H14X 5298   4.179   3.998   7.944  0.5074  0.4797 -0.0378
   39POPC  H14Y 5299   4.322   3.899   7.990 -0.0683 -0.5692 -1.2439
   39POPC  C315 5300   4.126   3.847   8.086  0.0527 -0.0494 -0.0619
   39POPC  H15X 5301   4.024   3.847   8.041  1.4163 -0.8842 -3.4237
   39POPC  H15Y 5302   4.126   3.913   8.175  0.5977 -0.8425  0.5351
   39POPC  C316 5303   4.152   3.705   8.135 -0.1935 -0.3878 -0.4299
   39POPC  H16X 5304   4.262   3.690   8.141  0.2391  2.3726 -0.2512
   39POPC  H16Y 5305   4.117   3.631   8.059  0.9264 -0.6165 -0.7448
   39POPC  H16Z 5306   4.102   3.692   8.233  1.3889 -0.1385  0.4225
   40POPC     N 5307   5.402   6.148   6.479 -0.0207  0.1810  0.2783
   40POPC   C12 5308   5.417   5.999   6.457 -0.1292  0.1090  0.0587
   40POPC  H12A 5309   5.498   5.949   6.508 -1.1707 -0.2760  1.3708
   40POPC  H12B 5310   5.451   5.983   6.355 -0.6779  0.1290 -0.1305
   40POPC   C13 5311   5.503   6.202   6.388  0.3480 -0.4083  0.5707
   40POPC  H13A 5312   5.601   6.167   6.414  0.6252 -0.5449 -0.5984
   40POPC  H13B 5313   5.494   6.172   6.285  2.7425  1.1543 -0.1693
   40POPC  H13C 5314   5.507   6.310   6.392  1.5589 -0.4284  0.0330
   40POPC   C14 5315   5.276   6.204   6.446  0.5785 -0.1181  0.2042
   40POPC  H14A 5316   5.197   6.160   6.506 -0.3130 -0.4314 -1.1719
   40POPC  H14B 5317   5.267   6.311   6.441  2.1430 -0.0307 -3.1332
   40POPC  H14C 5318   5.269   6.180   6.341 -0.8365  0.9684  0.0201
   40POPC   C15 5319   5.436   6.177   6.618  0.5465  0.8264 -0.4036
   40POPC  H15A 5320   5.464   6.279   6.638 -0.8980  0.8417  2.0081
   40POPC  H15B 5321   5.515   6.109   6.646 -0.3914 -0.5634 -1.0209
   40POPC  H15C 5322   5.352   6.142   6.677  0.5648  1.4644  0.0114
   40POPC   C11 5323   5.295   5.910   6.495  0.4979  0.0347  0.0158
   40POPC  H11A 5324   5.251   5.958   6.585  0.8258  0.5756 -0.1051
   40POPC  H11B 5325   5.326   5.808   6.528 -0.3907 -1.1478 -2.5484
   40POPC     P 5326   5.042   5.922   6.413 -0.0182  0.3814  0.1371
   40POPC   O13 5327   4.977   5.824   6.318  0.1332 -0.2313 -0.2613
   40POPC   O14 5328   4.998   6.063   6.405  0.1081 -0.5028  0.4658
   40POPC   O12 5329   5.200   5.911   6.387  0.1506 -0.4055  0.5639
   40POPC   O11 5330   5.005   5.875   6.560 -0.3050 -0.7931  0.4666
   40POPC    C1 5331   4.869   5.830   6.575 -0.5632 -0.6597  0.0237
   40POPC    HA 5332   4.860   5.733   6.521 -1.6587  0.5030 -1.9936
   40POPC    HB 5333   4.800   5.896   6.520  0.9939 -0.5964 -1.9778
   40POPC    C2 5334   4.826   5.831   6.723 -0.2200 -0.1055 -0.1329
   40POPC    HS 5335   4.724   5.787   6.737  0.5926 -1.4041  2.4028
   40POPC   O21 5336   4.830   5.962   6.784 -0.7510  0.4295  0.2094
   40POPC   C21 5337   4.725   6.040   6.753  0.3278 -0.1078  0.3623
   40POPC   O22 5338   4.624   5.998   6.694  0.1332 -0.0289 -0.2014
   40POPC   C22 5339   4.750   6.184   6.810  0.0721 -0.1289  0.5506
   40POPC   H2R 5340   4.660   6.245   6.792  0.5921  0.6740  0.6240
   40POPC   H2S 5341   4.833   6.227   6.750 -1.1143  1.4048 -0.0556
   40POPC    C3 5342   4.925   5.746   6.801  0.6038 -0.4643 -0.6905
   40POPC    HX 5343   5.029   5.779   6.780  0.1903  0.2484 -1.7307
   40POPC    HY 5344   4.912   5.648   6.749 -1.2170 -0.1565 -0.8794
   40POPC   O31 5345   4.892   5.730   6.946 -0.7735 -0.2493 -0.2494
   40POPC   C31 5346   4.965   5.808   7.023  0.0082 -1.0356  0.8338
   40POPC   O32 5347   5.061   5.876   6.994  0.2329 -0.0623  0.6279
   40POPC   C32 5348   4.905   5.812   7.163  0.3671 -0.2446 -0.9639
   40POPC   H2X 5349   4.928   5.708   7.195 -0.3964  0.3426  1.8150
   40POPC   H2Y 5350   4.795   5.826   7.156  0.3267 -0.0964 -0.1434
   40POPC   C23 5351   4.795   6.187   6.953 -0.4203 -0.1158 -0.0860
   40POPC   H3R 5352   4.815   6.287   6.997  0.6407 -0.3836  0.0803
   40POPC   H3S 5353   4.891   6.131   6.959 -0.6307 -0.3996  0.8346
   40POPC   C24 5354   4.681   6.116   7.047  0.7584 -0.3801  0.2705
   40POPC   H4R 5355   4.730   6.103   7.146  1.1408 -0.6011  0.0555
   40POPC   H4S 5356   4.658   6.014   7.011 -0.2112  0.0506 -0.3796
   40POPC   C25 5357   4.561   6.206   7.064 -0.1920 -0.3327  0.3934
   40POPC   H5R 5358   4.502   6.192   6.971  0.8266 -3.0024  0.0616
   40POPC   H5S 5359   4.579   6.316   7.064 -1.5310 -0.0747 -0.9387
   40POPC   C26 5360   4.466   6.161   7.178 -0.3033 -0.0775 -0.5197
   40POPC   H6R 5361   4.452   6.052   7.162  0.3353  0.2761 -4.4740
   40POPC   H6S 5362   4.364   6.202   7.167 -2.4450 -4.5228  0.7215
   40POPC   C27 5363   4.515   6.205   7.319 -0.2172  0.3327  0.6762
   40POPC   H7R 5364   4.545   6.312   7.321 -0.8005  0.5135  2.8513
   40POPC   H7S 5365   4.614   6.158   7.341 -0.4088 -0.1124  0.5989
   40POPC   C28 5366   4.407   6.177   7.428 -0.2716  0.3561 -0.6010
   40POPC   H8R 5367   4.399   6.067   7.438 -0.8452  0.5158  0.8334
   40POPC   H8S 5368   4.305   6.207   7.396 -0.5687 -1.0985 -1.0964
   40POPC   C29 5369   4.456   6.237   7.563  0.6435 -0.4753 -0.3048
   40POPC   H91 5370   4.495   6.340   7.558 -2.1902  1.1024  3.9270
   40POPC  C210 5371   4.453   6.174   7.687  0.1004  0.4145 -0.1909
   40POPC  H101 5372   4.473   6.236   7.776 -0.0614  2.1562 -1.3183
   40POPC  C211 5373   4.406   6.033   7.711  0.2204 -0.6253  0.5035
   40POPC  H11R 5374   4.330   6.009   7.634  0.4832  1.3746 -0.4373
   40POPC  H11S 5375   4.352   6.022   7.807  2.1564 -0.7050  1.6422
   40POPC  C212 5376   4.521   5.921   7.709  0.4732  0.3271 -0.6596
   40POPC  H12R 5377   4.572   5.946   7.614 -0.5638  0.2739 -1.2325
   40POPC  H12S 5378   4.486   5.817   7.696  2.9351 -0.9588  1.7955
   40POPC  C213 5379   4.624   5.928   7.829 -0.2686  0.4005 -0.0783
   40POPC  H13R 5380   4.668   6.026   7.857 -0.7771  0.2555  1.2576
   40POPC  H13S 5381   4.701   5.856   7.795 -1.2252 -0.0540 -1.3972
   40POPC  C214 5382   4.561   5.884   7.964  0.2683 -0.7615 -0.2014
   40POPC  H14R 5383   4.515   5.784   7.954  1.3518 -1.2040 -0.8977
   40POPC  H14S 5384   4.482   5.956   7.995  2.3097  1.2405  0.6283
   40POPC  C215 5385   4.663   5.870   8.086 -0.4877 -0.6408 -0.5860
   40POPC  H15R 5386   4.700   5.970   8.116 -0.8474  0.7820 -4.3798
   40POPC  H15S 5387   4.741   5.796   8.059 -0.0739 -1.4510  2.4809
   40POPC  C216 5388   4.582   5.813   8.202 -0.3397  0.4595  0.3175
   40POPC  H16R 5389   4.522   5.724   8.174 -0.2087 -0.0078  1.4658
   40POPC  H16S 5390   4.510   5.887   8.243 -0.9082 -0.0304  0.2251
   40POPC  C217 5391   4.661   5.767   8.329 -0.0064  0.5943  0.4945
   40POPC  H17R 5392   4.596   5.741   8.416 -2.0164 -0.8395 -1.3433
   40POPC  H17S 5393   4.726   5.849   8.366  0.9350  0.1018 -0.0181
   40POPC  C218 5394   4.761   5.654   8.309  0.7177 -0.2967 -0.3847
   40POPC  H18R 5395   4.840   5.687   8.237  0.8502  1.0912  0.3569
   40POPC  H18S 5396   4.705   5.574   8.256  2.4436 -0.6330 -1.8172
   40POPC  H18T 5397   4.801   5.614   8.404  1.3779  3.5367  1.1645
   40POPC   C33 5398   4.966   5.922   7.253 -0.2073 -0.1361 -0.6845
   40POPC   H3X 5399   4.965   6.023   7.205 -0.5108  0.3398  0.3021
   40POPC   H3Y 5400   5.071   5.886   7.262 -0.0514  0.3377 -0.5758
   40POPC   C34 5401   4.900   5.927   7.396  0.1507 -0.7770 -0.1178
   40POPC   H4X 5402   4.912   5.835   7.459 -1.4084 -1.2654 -0.5113
   40POPC   H4Y 5403   4.793   5.946   7.376 -0.0069 -0.7935  0.6562
   40POPC   C35 5404   4.951   6.052   7.474 -0.4092  0.4147 -0.2676
   40POPC   H5X 5405   4.964   6.131   7.397  2.6297 -0.4376 -0.7633
   40POPC   H5Y 5406   5.051   6.024   7.514 -0.4523 -0.1507 -0.5409
   40POPC   C36 5407   4.847   6.091   7.578  0.0005 -0.0314 -0.4008
   40POPC   H6X 5408   4.850   6.017   7.661  0.7445  1.5478  1.0495
   40POPC   H6Y 5409   4.746   6.086   7.533 -0.4337  0.6574  0.4742
   40POPC   C37 5410   4.860   6.233   7.634 -0.2983  0.5243  0.3614
   40POPC   H7X 5411   4.964   6.256   7.667  1.0154  0.7347 -3.4003
   40POPC   H7Y 5412   4.791   6.253   7.719 -0.6258 -1.3957  0.5903
   40POPC   C38 5413   4.825   6.337   7.522  0.5427 -0.0855  0.1594
   40POPC   H8X 5414   4.717   6.361   7.523  0.4832 -0.2723 -0.9200
   40POPC   H8Y 5415   4.852   6.304   7.420  0.2979  0.5670 -0.1186
   40POPC   C39 5416   4.895   6.471   7.536 -0.6744  0.5254  0.5171
   40POPC   H9X 5417   5.003   6.451   7.524 -0.5372  1.5475 -0.0348
   40POPC   H9Y 5418   4.880   6.492   7.644  1.8899 -1.6320  1.3971
   40POPC  C310 5419   4.856   6.584   7.435  0.2411 -0.6261 -0.0586
   40POPC  H10X 5420   4.916   6.671   7.469  0.9301 -1.9534  2.3495
   40POPC  H10Y 5421   4.749   6.614   7.438  0.1599 -0.7021 -1.4309
   40POPC  C311 5422   4.879   6.545   7.289  0.9269 -0.1465  0.6427
   40POPC  H11X 5423   4.788   6.492   7.254  0.6422 -0.0555  1.2291
   40POPC  H11Y 5424   4.969   6.485   7.264 -0.1577 -2.1348  1.3117
   40POPC  C312 5425   4.863   6.671   7.194  0.3407  0.0110  0.3969
   40POPC  H12X 5426   4.914   6.758   7.242  0.4682  1.7051 -2.5610
   40POPC  H12Y 5427   4.753   6.689   7.188 -0.0136 -2.3164 -2.4451
   40POPC  C313 5428   4.905   6.654   7.042 -0.2247  0.1657 -0.4713
   40POPC  H13X 5429   4.873   6.553   7.008  0.2575 -0.3125  0.4659
   40POPC  H13Y 5430   5.013   6.637   7.022 -0.5186 -1.8353 -0.6321
   40POPC  C314 5431   4.855   6.750   6.932  0.8380 -1.0306 -0.2227
   40POPC  H14X 5432   4.888   6.855   6.941 -0.8274 -0.3409 -1.4491
   40POPC  H14Y 5433   4.746   6.757   6.954  0.6366 -1.3755 -1.0432
   40POPC  C315 5434   4.877   6.707   6.784 -0.0160 -0.9765 -1.0282
   40POPC  H15X 5435   4.977   6.730   6.742 -0.4597 -0.1175 -1.6477
   40POPC  H15Y 5436   4.815   6.770   6.716  0.9357  0.7256 -0.3701
   40POPC  C316 5437   4.841   6.560   6.761 -0.3548 -0.2192 -0.3364
   40POPC  H16X 5438   4.828   6.534   6.654 -0.3735 -1.0222 -0.1491
   40POPC  H16Y 5439   4.755   6.536   6.827  1.3307 -2.1589  1.3168
   40POPC  H16Z 5440   4.924   6.493   6.796 -2.6402 -1.8624  2.3886
   41CHL1    C3 5441   1.338   2.577  10.365  0.6054 -0.0590 -0.0617
   41CHL1    H3 5442   1.283   2.672  10.350 -3.3438 -1.7520  2.0533
   41CHL1    O3 5443   1.367   2.581  10.506 -0.3358  0.7412  0.3646
   41CHL1   H3' 5444   1.361   2.676  10.521 -3.4649  1.4192 -3.3943
   41CHL1    C4 5445   1.241   2.462  10.337 -0.6109  0.7342  0.5816
   41CHL1   H4A 5446   1.295   2.368  10.363 -0.3740  0.5334 -0.5856
   41CHL1   H4B 5447   1.142   2.460  10.387 -1.2039 -0.4713 -0.5576
   41CHL1    C5 5448   1.210   2.445  10.191 -0.3921  0.5500  0.5249
   41CHL1    C6 5449   1.084   2.435  10.143  0.2531  1.4324  0.5328
   41CHL1    H6 5450   0.999   2.432  10.212 -0.2652  0.0926 -0.1317
   41CHL1    C7 5451   1.052   2.436   9.999 -0.1800 -0.1569  0.1903
   41CHL1   H7A 5452   0.973   2.363   9.974  0.4358 -0.2037 -1.8649
   41CHL1   H7B 5453   1.012   2.538   9.982  0.3800 -0.3499 -2.8506
   41CHL1    C8 5454   1.169   2.403   9.899  0.4215 -0.6588  0.2454
   41CHL1    H8 5455   1.193   2.295   9.889  1.5953 -0.3993  0.1026
   41CHL1   C14 5456   1.139   2.445   9.752 -0.3131 -0.3295 -0.2771
   41CHL1   H14 5457   1.117   2.553   9.762 -0.6255 -0.2103 -1.9140
   41CHL1   C15 5458   1.018   2.380   9.680 -0.1631 -1.0678  0.2983
   41CHL1  H15A 5459   1.027   2.273   9.708  0.5568 -1.5099 -1.4970
   41CHL1  H15B 5460   0.927   2.423   9.726 -0.2731  0.1265 -0.9652
   41CHL1   C16 5461   1.038   2.410   9.531  0.4497 -0.5210 -0.5880
   41CHL1  H16A 5462   1.032   2.313   9.477  0.3785 -0.3050 -0.9719
   41CHL1  H16B 5463   0.976   2.491   9.488  1.1311 -0.7853 -2.1294
   41CHL1   C17 5464   1.188   2.462   9.518  0.1254 -0.3624  0.7967
   41CHL1   H17 5465   1.188   2.573   9.525  1.6184 -0.3313  0.7273
   41CHL1   C13 5466   1.253   2.424   9.648  0.0527 -0.3663  0.3495
   41CHL1   C18 5467   1.283   2.269   9.635  0.4861  0.0257  0.3031
   41CHL1  H18A 5468   1.199   2.212   9.591  1.5489  0.0971 -1.9334
   41CHL1  H18B 5469   1.368   2.266   9.564  0.6348  0.8144  0.4359
   41CHL1  H18C 5470   1.303   2.232   9.738 -1.4412  0.8913  1.0478
   41CHL1   C12 5471   1.374   2.504   9.691  0.4282 -0.1387 -0.0319
   41CHL1  H12A 5472   1.462   2.486   9.626  0.3371 -1.3414  0.1544
   41CHL1  H12B 5473   1.342   2.611   9.700  0.9747  0.1225 -1.0793
   41CHL1   C11 5474   1.409   2.462   9.839  0.6799  0.7926  0.2146
   41CHL1  H11A 5475   1.439   2.355   9.834  0.7640  0.7661  1.0684
   41CHL1  H11B 5476   1.500   2.518   9.868  0.4613  1.6552 -0.7144
   41CHL1    C9 5477   1.291   2.483   9.945 -0.0339  0.1772 -0.1195
   41CHL1    H9 5478   1.263   2.590   9.939  0.2981  0.2020 -1.8486
   41CHL1   C10 5479   1.331   2.455  10.096 -1.0519 -0.0068 -0.6163
   41CHL1   C19 5480   1.417   2.321  10.103 -0.7484  0.1606 -0.3462
   41CHL1  H19A 5481   1.353   2.241  10.060 -2.2837 -0.0723  2.1590
   41CHL1  H19B 5482   1.510   2.338  10.044 -1.2465  0.3078 -1.1105
   41CHL1  H19C 5483   1.448   2.287  10.204  2.2886  0.3795 -1.1039
   41CHL1    C1 5484   1.428   2.577  10.142 -0.7709 -0.0233  0.1795
   41CHL1   H1A 5485   1.520   2.552  10.084 -1.8561 -0.8129 -1.2543
   41CHL1   H1B 5486   1.378   2.675  10.126  0.2222  0.6615  1.1064
   41CHL1    C2 5487   1.466   2.566  10.291 -0.4256  0.7657  0.1869
   41CHL1   H2A 5488   1.535   2.650  10.316 -1.4590  1.2174  1.6494
   41CHL1   H2B 5489   1.514   2.471  10.321  1.5054  1.5447 -0.2886
   41CHL1   C20 5490   1.257   2.447   9.385 -0.1837  0.1761 -0.0456
   41CHL1   H20 5491   1.364   2.461   9.411 -0.0521  1.1054 -1.0097
   41CHL1   C21 5492   1.219   2.571   9.296 -0.3371 -0.1065  0.2027
   41CHL1  H21A 5493   1.245   2.559   9.188 -3.8308 -2.2458 -0.5593
   41CHL1  H21B 5494   1.263   2.663   9.339 -0.4916  0.1356 -0.1488
   41CHL1  H21C 5495   1.110   2.591   9.301 -0.2782  0.2271  0.1591
   41CHL1   C22 5496   1.245   2.312   9.308 -0.3957  0.5699 -0.2837
   41CHL1  H22A 5497   1.266   2.231   9.380 -1.1070 -0.0786 -0.7954
   41CHL1  H22B 5498   1.145   2.299   9.262  0.5766  0.4872 -2.4744
   41CHL1   C23 5499   1.344   2.295   9.183  0.1444 -0.1440 -0.0437
   41CHL1  H23A 5500   1.320   2.361   9.097 -0.7161  0.0077  0.3055
   41CHL1  H23B 5501   1.449   2.319   9.210  0.9848 -0.8683 -2.4323
   41CHL1   C24 5502   1.342   2.146   9.148 -1.0688 -0.4880  1.1187
   41CHL1  H24A 5503   1.366   2.082   9.236  2.3849 -0.6583  0.1890
   41CHL1  H24B 5504   1.240   2.117   9.115 -1.5026  1.5930  0.4826
   41CHL1   C25 5505   1.444   2.117   9.041  0.6650  0.6456  0.1608
   41CHL1   H25 5506   1.540   2.152   9.084  1.1150  0.7364 -0.8739
   41CHL1   C26 5507   1.459   1.962   9.024 -0.0720 -0.1968  0.8249
   41CHL1  H26A 5508   1.458   1.900   9.117  0.7200 -0.9064  0.3724
   41CHL1  H26B 5509   1.373   1.923   8.966 -1.9259 -0.4163  3.5007
   41CHL1  H26C 5510   1.549   1.941   8.963  0.6119  1.0910  1.3464
   41CHL1   C27 5511   1.418   2.178   8.900  0.0174 -0.0839 -0.0200
   41CHL1  H27A 5512   1.508   2.169   8.836  0.2692  0.7009  0.2064
   41CHL1  H27B 5513   1.330   2.130   8.852 -0.9039  2.4589 -1.0493
   41CHL1  H27C 5514   1.390   2.285   8.917 -0.9962 -0.3003 -0.3027
   42CHL1    C3 5515   3.322   2.587   9.886  0.5473  0.2037 -0.0992
   42CHL1    H3 5516   3.322   2.480   9.858 -1.1798  0.4813 -1.3534
   42CHL1    O3 5517   3.281   2.604  10.019 -0.8810 -0.0517  0.6897
   42CHL1   H3' 5518   3.279   2.700  10.028  0.4094  0.2437 -1.4617
   42CHL1    C4 5519   3.464   2.654   9.867 -0.1365  0.2483 -0.0035
   42CHL1   H4A 5520   3.455   2.748   9.925 -1.3309  0.0102  0.2281
   42CHL1   H4B 5521   3.539   2.598   9.926 -0.2383  0.2814  0.1577
   42CHL1    C5 5522   3.504   2.690   9.724  0.3064  0.3016  0.2745
   42CHL1    C6 5523   3.625   2.658   9.675  0.7474 -0.1789  0.4176
   42CHL1    H6 5524   3.706   2.603   9.725  0.8823 -1.0701 -0.7403
   42CHL1    C7 5525   3.659   2.711   9.534 -0.0462  0.3297 -0.5647
   42CHL1   H7A 5526   3.762   2.751   9.530 -0.8922  2.5929 -0.8173
   42CHL1   H7B 5527   3.669   2.619   9.472 -0.7270 -1.7313  2.1439
   42CHL1    C8 5528   3.563   2.817   9.470  0.5047  0.2451  0.1452
   42CHL1    H8 5529   3.588   2.912   9.522 -0.4010  1.3443 -1.3260
   42CHL1   C14 5530   3.588   2.829   9.324 -0.5290 -0.3910  0.2058
   42CHL1   H14 5531   3.555   2.731   9.284  1.3737 -0.5194 -1.1942
   42CHL1   C15 5532   3.733   2.841   9.275  0.2064 -0.4595  0.0699
   42CHL1  H15A 5533   3.787   2.911   9.341  0.3527  0.4823 -1.0216
   42CHL1  H15B 5534   3.788   2.746   9.254  0.4462  0.2119 -2.8886
   42CHL1   C16 5535   3.725   2.923   9.140  0.2411 -0.2577 -0.0444
   42CHL1  H16A 5536   3.776   3.020   9.158  2.7704 -1.4330 -0.4053
   42CHL1  H16B 5537   3.783   2.875   9.059 -0.1503 -0.2930 -0.3065
   42CHL1   C17 5538   3.571   2.947   9.116 -0.5820  0.1389 -0.0614
   42CHL1   H17 5539   3.531   2.863   9.055 -0.0667 -1.2722  1.4825
   42CHL1   C13 5540   3.510   2.942   9.255  0.3311  0.3186 -0.2272
   42CHL1   C18 5541   3.526   3.084   9.323  0.4426  0.2105 -0.0952
   42CHL1  H18A 5542   3.446   3.159   9.308  0.7188  0.4929 -0.1495
   42CHL1  H18B 5543   3.511   3.072   9.433 -0.8840  0.6449 -0.2052
   42CHL1  H18C 5544   3.625   3.129   9.303  0.7238 -0.8190 -1.0839
   42CHL1   C12 5545   3.365   2.890   9.268  0.7691  0.3825 -0.4666
   42CHL1  H12A 5546   3.283   2.950   9.223 -1.2330 -0.1311  2.2431
   42CHL1  H12B 5547   3.357   2.792   9.215  0.0574  0.1810 -0.0016
   42CHL1   C11 5548   3.322   2.881   9.420  0.1901  0.2895  0.1489
   42CHL1  H11A 5549   3.332   2.983   9.465 -1.9798  1.3935 -1.6581
   42CHL1  H11B 5550   3.216   2.852   9.435 -0.5217  0.2344 -3.8295
   42CHL1    C9 5551   3.422   2.781   9.491  0.2478  0.9561  0.1718
   42CHL1    H9 5552   3.420   2.680   9.444  0.3059 -0.2078  2.5046
   42CHL1   C10 5553   3.394   2.761   9.644  0.8718  0.4002  0.0582
   42CHL1   C19 5554   3.359   2.895   9.713  1.0161 -0.6368 -0.4531
   42CHL1  H19A 5555   3.277   2.958   9.673  1.0050  0.7173  1.5472
   42CHL1  H19B 5556   3.326   2.885   9.819  1.1249  0.3392 -0.3135
   42CHL1  H19C 5557   3.448   2.961   9.717 -0.0056  0.7436  1.0348
   42CHL1    C1 5558   3.266   2.675   9.664 -0.2689  0.1796 -0.4010
   42CHL1   H1A 5559   3.183   2.728   9.613 -2.5400 -2.6242  0.1086
   42CHL1   H1B 5560   3.284   2.580   9.609 -1.9880  0.6072 -1.7696
   42CHL1    C2 5561   3.209   2.652   9.809 -0.3915 -0.3422 -0.0773
   42CHL1   H2A 5562   3.119   2.588   9.801 -1.0642  0.6309 -0.6696
   42CHL1   H2B 5563   3.170   2.750   9.843  3.2745  1.7335 -1.2463
   42CHL1   C20 5564   3.552   3.071   9.028  0.3685 -0.3635 -0.2788
   42CHL1   H20 5565   3.584   3.156   9.092 -0.2493 -1.3241  1.3861
   42CHL1   C21 5566   3.396   3.073   8.996 -0.8792  0.1738  0.4592
   42CHL1  H21A 5567   3.367   3.151   8.922 -0.8219  0.5215  0.8041
   42CHL1  H21B 5568   3.341   3.091   9.091  0.7094  0.0552  1.4445
   42CHL1  H21C 5569   3.357   2.976   8.957 -0.9917  0.7775 -0.9843
   42CHL1   C22 5570   3.640   3.071   8.895 -0.2860 -0.7868  0.4540
   42CHL1  H22A 5571   3.740   3.029   8.921 -0.0644  0.4861  1.7897
   42CHL1  H22B 5572   3.591   2.995   8.832 -0.7765 -1.7451  1.9247
   42CHL1   C23 5573   3.654   3.201   8.821  0.2433 -0.1247  0.2549
   42CHL1  H23A 5574   3.559   3.251   8.793  0.6354 -0.3392 -1.5727
   42CHL1  H23B 5575   3.711   3.281   8.874 -0.5935 -1.1993  2.9170
   42CHL1   C24 5576   3.734   3.190   8.692  0.4084  0.8351  0.6646
   42CHL1  H24A 5577   3.768   3.294   8.673  0.7189  0.5769 -0.2783
   42CHL1  H24B 5578   3.821   3.124   8.714 -0.1848 -0.1067  0.2882
   42CHL1   C25 5579   3.671   3.130   8.555  0.2935  0.5848 -0.8795
   42CHL1   H25 5580   3.750   3.147   8.479  0.8977  1.4468 -0.0914
   42CHL1   C26 5581   3.636   2.979   8.569  0.3337  0.2688  0.4033
   42CHL1  H26A 5582   3.552   2.977   8.641 -0.0996 -0.0620 -0.1027
   42CHL1  H26B 5583   3.598   2.932   8.475  0.9946  1.6611 -0.6108
   42CHL1  H26C 5584   3.721   2.925   8.615 -0.1692  0.5185  1.6465
   42CHL1   C27 5585   3.547   3.207   8.516  0.0265  0.1206  0.7253
   42CHL1  H27A 5586   3.569   3.310   8.482  0.0219  0.0114  0.3862
   42CHL1  H27B 5587   3.496   3.154   8.432  0.2780  2.3829 -0.9398
   42CHL1  H27C 5588   3.485   3.215   8.608 -0.8376 -0.6576  0.2360
   43CHL1    C3 5589   2.233   3.935   9.906  0.2507 -0.3137 -0.5261
   43CHL1    H3 5590   2.176   3.844   9.879 -2.2326  0.6306  1.1371
   43CHL1    O3 5591   2.221   3.940  10.047 -0.3226 -0.5131 -0.2361
   43CHL1   H3' 5592   2.249   4.031  10.061 -2.7723  0.1739  0.8229
   43CHL1    C4 5593   2.382   3.922   9.883  0.0497 -0.8763  0.0919
   43CHL1   H4A 5594   2.436   4.004   9.934 -1.9247 -0.3509  1.4379
   43CHL1   H4B 5595   2.427   3.833   9.933  2.5232  0.5637  0.5919
   43CHL1    C5 5596   2.408   3.924   9.732 -0.0562 -0.3197 -0.1472
   43CHL1    C6 5597   2.487   3.823   9.686  0.4705 -0.4342  0.2336
   43CHL1    H6 5598   2.529   3.744   9.750  0.0056  0.8600  2.2372
   43CHL1    C7 5599   2.528   3.819   9.533 -0.0194  0.1529 -0.2815
   43CHL1   H7A 5600   2.636   3.793   9.528  0.0260  0.4844 -1.1475
   43CHL1   H7B 5601   2.464   3.744   9.483 -0.1766 -0.1891  0.4133
   43CHL1    C8 5602   2.502   3.951   9.457  0.3573 -0.4658 -0.0286
   43CHL1    H8 5603   2.579   4.023   9.492 -1.3201  1.3410  0.1105
   43CHL1   C14 5604   2.503   3.935   9.305 -0.5974 -0.4371 -0.6111
   43CHL1   H14 5605   2.412   3.877   9.279 -1.5296  0.0698  1.3415
   43CHL1   C15 5606   2.609   3.839   9.244  0.2496  0.0996 -0.0951
   43CHL1  H15A 5607   2.708   3.864   9.286 -0.0905  2.1359 -0.4050
   43CHL1  H15B 5608   2.587   3.735   9.277  1.2932 -0.1585 -0.1907
   43CHL1   C16 5609   2.593   3.856   9.096  0.1617 -0.2231 -0.0760
   43CHL1  H16A 5610   2.693   3.879   9.054  0.0566 -0.5438 -0.4997
   43CHL1  H16B 5611   2.553   3.766   9.045 -0.6211  0.4883 -0.7497
   43CHL1   C17 5612   2.497   3.983   9.080  0.0628  0.9503  0.2804
   43CHL1   H17 5613   2.398   3.937   9.057  0.1532  1.0927 -0.4149
   43CHL1   C13 5614   2.501   4.055   9.215 -0.2567 -0.1408 -0.1711
   43CHL1   C18 5615   2.620   4.145   9.229 -0.0396 -0.2152 -0.6895
   43CHL1  H18A 5616   2.606   4.238   9.170  0.1671 -0.5092 -1.2028
   43CHL1  H18B 5617   2.640   4.174   9.335  0.2874 -0.4980 -0.6759
   43CHL1  H18C 5618   2.708   4.095   9.185  0.4991  1.0043 -1.0432
   43CHL1   C12 5619   2.371   4.129   9.252  0.6612 -0.4556  0.2574
   43CHL1  H12A 5620   2.359   4.221   9.191  0.5736 -0.1141  0.7853
   43CHL1  H12B 5621   2.283   4.063   9.238 -0.1625  0.3400  1.5096
   43CHL1   C11 5622   2.363   4.152   9.403  1.1430 -0.7447  0.1259
   43CHL1  H11A 5623   2.444   4.218   9.439  1.2033 -0.7714  0.0385
   43CHL1  H11B 5624   2.261   4.190   9.425  0.8287 -2.0192  0.9989
   43CHL1    C9 5625   2.372   4.027   9.499 -0.3768 -0.4011  0.3129
   43CHL1    H9 5626   2.290   3.963   9.459  0.2614 -0.6080 -0.7223
   43CHL1   C10 5627   2.353   4.047   9.650  0.7641  0.1942  0.2978
   43CHL1   C19 5628   2.436   4.171   9.695  0.7677 -0.5263  0.4436
   43CHL1  H19A 5629   2.533   4.166   9.640  0.7493  1.7350  0.0899
   43CHL1  H19B 5630   2.390   4.267   9.662 -0.5757 -1.9938 -2.2728
   43CHL1  H19C 5631   2.455   4.185   9.804  1.3990 -1.2110  0.4304
   43CHL1    C1 5632   2.207   4.066   9.686 -0.3458 -0.1256  0.3015
   43CHL1   H1A 5633   2.179   4.165   9.643  1.1168 -0.2058 -0.9194
   43CHL1   H1B 5634   2.137   3.992   9.643 -2.3290  0.3787  2.4788
   43CHL1    C2 5635   2.183   4.060   9.840 -0.1375 -0.1022 -0.1574
   43CHL1   H2A 5636   2.074   4.078   9.852  0.1226  1.5148  0.0323
   43CHL1   H2B 5637   2.231   4.145   9.894 -1.6055 -0.5692  1.9728
   43CHL1   C20 5638   2.540   4.075   8.959  0.1914 -0.0659 -0.3192
   43CHL1   H20 5639   2.638   4.122   8.981  1.0736 -2.3296  0.9129
   43CHL1   C21 5640   2.442   4.189   8.935 -0.7923 -0.4611 -0.4654
   43CHL1  H21A 5641   2.457   4.220   8.829  1.4343  0.8805  0.1904
   43CHL1  H21B 5642   2.461   4.272   9.006  0.7889 -1.7297  0.6687
   43CHL1  H21C 5643   2.338   4.152   8.949 -1.1455  1.1750  1.6609
   43CHL1   C22 5644   2.557   3.991   8.830 -0.3053  0.7671 -0.3544
   43CHL1  H22A 5645   2.644   3.926   8.852  0.2198  0.7329 -2.3458
   43CHL1  H22B 5646   2.465   3.935   8.802  0.4671  0.1278 -1.7033
   43CHL1   C23 5647   2.597   4.062   8.704  0.1473  0.1003  0.7138
   43CHL1  H23A 5648   2.518   4.133   8.670  1.5862 -0.1975 -3.9509
   43CHL1  H23B 5649   2.690   4.119   8.726  0.6853 -0.8583  0.9641
   43CHL1   C24 5650   2.622   3.969   8.590 -0.4850  0.5800  0.1451
   43CHL1  H24A 5651   2.717   3.919   8.620  0.8842  1.8941 -1.7858
   43CHL1  H24B 5652   2.552   3.882   8.584 -0.1464  0.3179 -0.0426
   43CHL1   C25 5653   2.632   4.027   8.442  0.2920 -0.6138  0.3788
   43CHL1   H25 5654   2.532   4.067   8.417  0.9352  0.5285 -0.4352
   43CHL1   C26 5655   2.738   4.143   8.436 -0.1715 -0.4228  0.2684
   43CHL1  H26A 5656   2.738   4.199   8.340  0.7750 -0.2318  0.3722
   43CHL1  H26B 5657   2.710   4.224   8.507  0.6120 -1.3658  1.7012
   43CHL1  H26C 5658   2.840   4.109   8.462 -0.7434 -2.1345  0.4010
   43CHL1   C27 5659   2.659   3.915   8.338 -0.2164 -0.1942 -0.0516
   43CHL1  H27A 5660   2.569   3.849   8.337 -0.1993 -0.2169 -1.7222
   43CHL1  H27B 5661   2.667   3.969   8.242  2.9493  0.7269  0.6290
   43CHL1  H27C 5662   2.754   3.862   8.359  0.1472  0.3995 -0.1922
   44CHL1    C3 5663   6.315   6.571  10.280 -0.3002 -0.4900  0.3428
   44CHL1    H3 5664   6.225   6.636  10.266 -0.6318 -0.9205  0.4518
   44CHL1    O3 5665   6.359   6.584  10.412 -0.2362 -0.2655 -0.1800
   44CHL1   H3' 5666   6.448   6.620  10.409 -1.0059  1.8881  0.7391
   44CHL1    C4 5667   6.291   6.433  10.245  0.0238 -0.0685  0.1466
   44CHL1   H4A 5668   6.376   6.365  10.266 -0.7002 -0.6025  1.4161
   44CHL1   H4B 5669   6.224   6.376  10.313  1.9907 -1.7643  0.7922
   44CHL1    C5 5670   6.242   6.419  10.100 -0.1840  0.3098  0.2184
   44CHL1    C6 5671   6.132   6.358  10.068  0.3572 -0.9103 -0.1222
   44CHL1    H6 5672   6.075   6.316  10.152 -1.0033  0.0443 -0.5259
   44CHL1    C7 5673   6.076   6.347   9.921 -0.0503 -0.0096 -0.6002
   44CHL1   H7A 5674   6.037   6.243   9.915 -2.9329  0.8712  1.1452
   44CHL1   H7B 5675   5.995   6.421   9.901 -0.3673 -0.3533 -0.6038
   44CHL1    C8 5676   6.193   6.362   9.819 -0.0408  0.7003  0.2231
   44CHL1    H8 5677   6.259   6.272   9.816 -2.5817 -1.2500 -0.5137
   44CHL1   C14 5678   6.128   6.382   9.678 -0.1880 -0.5421 -0.6161
   44CHL1   H14 5679   6.065   6.472   9.694  0.7900  0.0913 -0.2254
   44CHL1   C15 5680   6.023   6.287   9.636  0.2846 -0.1692  0.0950
   44CHL1  H15A 5681   6.068   6.186   9.642 -0.6171 -0.7846 -2.4463
   44CHL1  H15B 5682   5.925   6.297   9.687  1.3916  0.9640  2.1223
   44CHL1   C16 5683   6.008   6.333   9.486 -0.3259  0.1311  0.2576
   44CHL1  H16A 5684   6.003   6.239   9.427 -0.9751  0.2406  0.1407
   44CHL1  H16B 5685   5.919   6.398   9.474 -0.7366 -0.3048  0.8658
   44CHL1   C17 5686   6.131   6.423   9.445 -0.0611  0.1907  0.7719
   44CHL1   H17 5687   6.101   6.530   9.446  3.2438  1.2252 -0.0498
   44CHL1   C13 5688   6.226   6.410   9.566  0.1565 -0.5156  0.1401
   44CHL1   C18 5689   6.313   6.283   9.545  0.4669 -0.2531  0.8755
   44CHL1  H18A 5690   6.357   6.242   9.639  0.1376 -0.5636  0.8936
   44CHL1  H18B 5691   6.261   6.204   9.487  0.7410 -0.6120  1.1125
   44CHL1  H18C 5692   6.398   6.306   9.478  1.3079 -2.0328  1.2828
   44CHL1   C12 5693   6.317   6.528   9.601 -0.3483 -0.1408 -0.0782
   44CHL1  H12A 5694   6.403   6.531   9.530 -0.1641 -1.4263  0.0762
   44CHL1  H12B 5695   6.255   6.620   9.596 -0.5122 -0.3030 -1.2564
   44CHL1   C11 5696   6.376   6.528   9.738 -0.2832  0.0936  0.2104
   44CHL1  H11A 5697   6.461   6.457   9.735  0.0956  0.5160  0.6185
   44CHL1  H11B 5698   6.411   6.632   9.757  0.6937  0.0550 -1.1781
   44CHL1    C9 5699   6.276   6.488   9.851  0.4819  1.0470 -0.0456
   44CHL1    H9 5700   6.197   6.566   9.847 -2.4176 -1.7128 -1.3602
   44CHL1   C10 5701   6.342   6.481   9.993  0.3567 -0.6226 -0.7363
   44CHL1   C19 5702   6.463   6.375   9.975  0.2992 -0.6614 -0.6025
   44CHL1  H19A 5703   6.538   6.402   9.898  0.7489 -0.7453 -0.1993
   44CHL1  H19B 5704   6.529   6.369  10.064  1.0552  0.5229 -1.0668
   44CHL1  H19C 5705   6.425   6.272   9.960  0.8381 -1.4271  2.5779
   44CHL1    C1 5706   6.401   6.614  10.040  0.0520  0.1583  0.7449
   44CHL1   H1A 5707   6.482   6.660   9.979 -1.1178 -0.7221 -1.5894
   44CHL1   H1B 5708   6.317   6.683  10.015  0.5621 -0.3807 -3.0225
   44CHL1    C2 5709   6.426   6.628  10.197 -0.3650 -0.2589  0.1693
   44CHL1   H2A 5710   6.453   6.733  10.217  2.4506 -1.0579  0.9574
   44CHL1   H2B 5711   6.517   6.568  10.217 -0.8427 -0.5591  1.5392
   44CHL1   C20 5712   6.175   6.386   9.296  0.7866 -0.0499  0.2840
   44CHL1   H20 5713   6.216   6.283   9.284 -2.2678 -1.1541 -1.8899
   44CHL1   C21 5714   6.290   6.480   9.260 -0.7785 -0.5454  0.1849
   44CHL1  H21A 5715   6.317   6.468   9.153 -1.1791 -1.2932  0.1665
   44CHL1  H21B 5716   6.384   6.459   9.316  0.6636  2.7067 -0.7390
   44CHL1  H21C 5717   6.264   6.587   9.278  1.2047  0.3777 -1.8996
   44CHL1   C22 5718   6.050   6.414   9.206  0.1428 -0.2216  0.0724
   44CHL1  H22A 5719   5.970   6.342   9.235 -2.4273  2.5900  0.4566
   44CHL1  H22B 5720   5.999   6.510   9.226  1.2473 -0.1062  2.8687
   44CHL1   C23 5721   6.074   6.410   9.057  0.9342 -0.2582  0.4163
   44CHL1  H23A 5722   6.115   6.506   9.022 -0.5272 -0.3568 -1.7795
   44CHL1  H23B 5723   6.153   6.333   9.041  0.1524 -0.8092 -0.9999
   44CHL1   C24 5724   5.953   6.376   8.973  1.5969 -1.1652  0.4523
   44CHL1  H24A 5725   5.868   6.437   9.010  0.6657 -0.5790 -2.4115
   44CHL1  H24B 5726   5.966   6.409   8.868 -1.4294 -0.9975  0.0562
   44CHL1   C25 5727   5.909   6.227   8.960 -0.8607  0.7378 -0.6361
   44CHL1   H25 5728   5.861   6.199   9.057  2.1058  0.6302  0.9292
   44CHL1   C26 5729   5.809   6.203   8.843 -0.0447 -0.2040 -0.2145
   44CHL1  H26A 5730   5.795   6.093   8.832  0.3938 -0.3912  0.9628
   44CHL1  H26B 5731   5.715   6.254   8.875 -1.3957 -2.8537  0.3545
   44CHL1  H26C 5732   5.836   6.242   8.743 -2.5355  1.6064 -0.2777
   44CHL1   C27 5733   6.026   6.126   8.944 -0.1442  0.2465 -0.8488
   44CHL1  H27A 5734   6.089   6.118   9.034  1.2825 -3.8715 -2.0145
   44CHL1  H27B 5735   5.991   6.023   8.919 -0.9513  0.6675 -1.5362
   44CHL1  H27C 5736   6.093   6.155   8.860 -0.1102 -1.2615 -1.3660
   45CHL1    C3 5737   2.780   0.417  10.352 -0.1338 -0.4300 -0.0569
   45CHL1    H3 5738   2.755   0.310  10.367 -2.3873  0.0633  0.2136
   45CHL1    O3 5739   2.840   0.476  10.465 -0.2832 -0.2913 -0.2495
   45CHL1   H3' 5740   2.894   0.551  10.440  1.8759 -1.7248 -0.0860
   45CHL1    C4 5741   2.878   0.439  10.239  0.3234  1.1100 -0.7516
   45CHL1   H4A 5742   2.919   0.542  10.246  1.3008  0.6225  2.2318
   45CHL1   H4B 5743   2.962   0.372  10.269 -0.0054  0.7281 -0.6800
   45CHL1    C5 5744   2.818   0.404  10.108  0.1763  0.2815 -0.3047
   45CHL1    C6 5745   2.875   0.319  10.026  0.2477 -1.1988 -0.4039
   45CHL1    H6 5746   2.976   0.287  10.053  1.8396  3.7800  0.5010
   45CHL1    C7 5747   2.822   0.292   9.890  0.5037 -0.1348 -0.2595
   45CHL1   H7A 5748   2.909   0.275   9.823 -1.4584  0.2481 -3.0698
   45CHL1   H7B 5749   2.756   0.203   9.889 -2.5274  1.9043  1.3101
   45CHL1    C8 5750   2.717   0.396   9.840 -0.3888  0.7758  0.2990
   45CHL1    H8 5751   2.651   0.336   9.774 -0.4048 -1.0133  1.8605
   45CHL1   C14 5752   2.772   0.502   9.750  0.0473 -0.2091  0.7368
   45CHL1   H14 5753   2.848   0.556   9.811  0.6838 -0.7926  0.4714
   45CHL1   C15 5754   2.845   0.445   9.624 -0.7170  0.1249  0.7398
   45CHL1  H15A 5755   2.929   0.514   9.600 -2.5465  2.3977  0.4978
   45CHL1  H15B 5756   2.880   0.340   9.633 -2.8795 -0.7061  0.1209
   45CHL1   C16 5757   2.738   0.436   9.512  0.3096 -0.2582 -0.1783
   45CHL1  H16A 5758   2.775   0.486   9.420 -0.1786 -0.1334 -0.3086
   45CHL1  H16B 5759   2.699   0.338   9.479  1.1494 -0.6837  0.0683
   45CHL1   C17 5760   2.623   0.530   9.563  0.2251 -0.1294  0.8918
   45CHL1   H17 5761   2.533   0.469   9.583 -1.3050  0.8185 -2.3361
   45CHL1   C13 5762   2.670   0.597   9.693  0.0850  0.4453 -0.4078
   45CHL1   C18 5763   2.760   0.713   9.642  0.1567 -0.8379 -0.5834
   45CHL1  H18A 5764   2.827   0.687   9.557  1.5543 -0.2551  0.3044
   45CHL1  H18B 5765   2.689   0.789   9.604  0.4013 -1.0250 -1.4369
   45CHL1  H18C 5766   2.820   0.748   9.729 -0.0768 -0.5143 -0.5496
   45CHL1   C12 5767   2.563   0.642   9.789  0.8361 -0.0702 -0.5475
   45CHL1  H12A 5768   2.605   0.725   9.849  1.1387 -1.4158  1.2095
   45CHL1  H12B 5769   2.477   0.682   9.732 -0.0340  0.2788  0.9667
   45CHL1   C11 5770   2.508   0.530   9.881 -0.3774 -0.6707 -0.6777
   45CHL1  H11A 5771   2.444   0.556   9.969 -0.0151 -1.8435 -0.0492
   45CHL1  H11B 5772   2.452   0.463   9.813  0.8729 -3.4436  0.8524
   45CHL1    C9 5773   2.626   0.451   9.945  0.2810  0.1663  0.2080
   45CHL1    H9 5774   2.568   0.361   9.977  1.1778  0.2163  2.1187
   45CHL1   C10 5775   2.693   0.490  10.080 -0.3826  0.1773  0.3147
   45CHL1   C19 5776   2.729   0.636  10.075  0.4871  0.5450  0.2304
   45CHL1  H19A 5777   2.632   0.689  10.064 -0.1328 -0.4639  0.7271
   45CHL1  H19B 5778   2.779   0.661  10.171  3.0760 -0.8322 -0.6820
   45CHL1  H19C 5779   2.801   0.674   9.999 -1.1007  2.6965 -0.3129
   45CHL1    C1 5780   2.588   0.470  10.187  0.7914  0.3894 -0.6086
   45CHL1   H1A 5781   2.507   0.545  10.171 -0.2220 -0.4461  0.4656
   45CHL1   H1B 5782   2.537   0.373  10.173 -0.7701  0.6468  2.4744
   45CHL1    C2 5783   2.647   0.487  10.329 -0.0893  0.9235 -1.0360
   45CHL1   H2A 5784   2.573   0.459  10.407  2.0247  1.7107  1.3967
   45CHL1   H2B 5785   2.656   0.594  10.357 -0.5359  0.2271  2.2632
   45CHL1   C20 5786   2.561   0.612   9.442 -0.4104 -0.4812 -0.7352
   45CHL1   H20 5787   2.645   0.668   9.395 -0.4628 -0.1724 -0.4630
   45CHL1   C21 5788   2.455   0.720   9.486 -0.0335 -0.0608  0.2881
   45CHL1  H21A 5789   2.496   0.796   9.556  1.3609 -0.8207  0.3220
   45CHL1  H21B 5790   2.367   0.678   9.538 -1.2964  2.3700  0.2879
   45CHL1  H21C 5791   2.415   0.774   9.397  0.1024 -1.2519 -0.5164
   45CHL1   C22 5792   2.506   0.517   9.326  1.1965  0.6819  0.4102
   45CHL1  H22A 5793   2.572   0.435   9.291 -1.4764 -1.1356 -0.7692
   45CHL1  H22B 5794   2.420   0.463   9.371  3.2162 -2.6735  0.5260
   45CHL1   C23 5795   2.449   0.604   9.203 -0.1747  0.2834  0.0309
   45CHL1  H23A 5796   2.358   0.657   9.236  1.0741  2.3337  0.3773
   45CHL1  H23B 5797   2.523   0.684   9.179 -0.4089  0.7218  0.7404
   45CHL1   C24 5798   2.420   0.520   9.073  0.8400  0.5193  0.5945
   45CHL1  H24A 5799   2.418   0.417   9.113  1.0456 -0.6519 -2.2081
   45CHL1  H24B 5800   2.322   0.552   9.031  0.4156 -2.6126 -1.0942
   45CHL1   C25 5801   2.529   0.528   8.962  0.1975  0.6549 -0.5201
   45CHL1   H25 5802   2.629   0.507   9.006 -1.4568 -2.1143  2.3599
   45CHL1   C26 5803   2.513   0.417   8.866 -0.6447 -0.2174 -0.0221
   45CHL1  H26A 5804   2.417   0.424   8.811 -1.2101  0.4887  1.0251
   45CHL1  H26B 5805   2.595   0.404   8.792 -0.7216  1.6623 -0.4951
   45CHL1  H26C 5806   2.504   0.328   8.932  3.8363 -0.6717  0.3356
   45CHL1   C27 5807   2.514   0.660   8.897 -0.1263  0.1121 -0.1966
   45CHL1  H27A 5808   2.527   0.727   8.984  0.7343  0.8160 -0.8509
   45CHL1  H27B 5809   2.591   0.693   8.824  0.2701  1.2407  0.6945
   45CHL1  H27C 5810   2.410   0.673   8.857 -0.4624 -0.9368  0.3202
   46CHL1    C3 5811   6.563   2.289  10.103 -0.1569  0.3630  0.5997
   46CHL1    H3 5812   6.668   2.322  10.111 -0.1059 -0.1936  3.4113
   46CHL1    O3 5813   6.514   2.266  10.235 -0.0487  0.2682  0.0778
   46CHL1   H3' 5814   6.425   2.233  10.221 -0.3300 -0.4936  3.0650
   46CHL1    C4 5815   6.480   2.406  10.047 -0.1599 -0.7055  0.1410
   46CHL1   H4A 5816   6.375   2.371  10.043 -0.0552 -0.9466 -1.5845
   46CHL1   H4B 5817   6.473   2.488  10.121 -1.5450 -1.2800  0.6826
   46CHL1    C5 5818   6.532   2.442   9.911  0.4059  0.3706  0.6924
   46CHL1    C6 5819   6.575   2.567   9.886  0.0070  0.4555  0.4468
   46CHL1    H6 5820   6.570   2.640   9.968  1.1761 -0.5622  1.4744
   46CHL1    C7 5821   6.598   2.623   9.748  0.1829 -0.6990 -0.0765
   46CHL1   H7A 5822   6.525   2.707   9.752 -1.7473 -2.3258  0.6656
   46CHL1   H7B 5823   6.699   2.665   9.728 -0.1392 -0.3714 -1.0675
   46CHL1    C8 5824   6.564   2.523   9.636  0.0934 -0.1231 -0.1005
   46CHL1    H8 5825   6.456   2.540   9.617 -0.5283 -0.9682  2.3257
   46CHL1   C14 5826   6.635   2.554   9.501  0.2954 -0.0294 -0.1319
   46CHL1   H14 5827   6.742   2.538   9.525  0.1723  1.6765  1.9041
   46CHL1   C15 5828   6.625   2.691   9.438 -0.1907  0.0050 -0.6603
   46CHL1  H15A 5829   6.521   2.730   9.427 -0.3621 -0.2811 -0.1047
   46CHL1  H15B 5830   6.677   2.764   9.503 -2.8780  0.5619  1.0554
   46CHL1   C16 5831   6.684   2.672   9.298 -0.3947 -0.6550 -0.0991
   46CHL1  H16A 5832   6.625   2.725   9.221  1.8890 -1.6557 -2.7202
   46CHL1  H16B 5833   6.786   2.715   9.284  0.1445 -2.2250 -1.3042
   46CHL1   C17 5834   6.689   2.523   9.270 -0.0443 -0.2090 -0.0104
   46CHL1   H17 5835   6.796   2.495   9.284  0.4450  0.5559 -1.8917
   46CHL1   C13 5836   6.610   2.450   9.387  0.1903  0.0667 -0.3350
   46CHL1   C18 5837   6.459   2.450   9.348  0.9627  0.3045  0.0006
   46CHL1  H18A 5838   6.447   2.371   9.271  4.1064  2.2005 -2.6718
   46CHL1  H18B 5839   6.389   2.432   9.433  0.2960  0.3733 -0.5309
   46CHL1  H18C 5840   6.430   2.547   9.304 -0.4456  0.3378  0.9501
   46CHL1   C12 5841   6.655   2.317   9.434 -0.0893 -0.0322  0.5494
   46CHL1  H12A 5842   6.635   2.241   9.355  0.9293  0.1757  0.0863
   46CHL1  H12B 5843   6.764   2.324   9.451 -0.1997  1.0301  0.9017
   46CHL1   C11 5844   6.580   2.276   9.554 -0.6990  0.3111  0.1417
   46CHL1  H11A 5845   6.476   2.263   9.518 -0.6059  1.0461 -0.4165
   46CHL1  H11B 5846   6.617   2.179   9.593 -3.2597 -0.4358  0.8732
   46CHL1    C9 5847   6.596   2.379   9.669 -0.4029 -0.0404 -0.6034
   46CHL1    H9 5848   6.704   2.374   9.694 -0.4937 -1.7899 -0.4480
   46CHL1   C10 5849   6.529   2.329   9.802 -0.2767 -0.2467  0.4488
   46CHL1   C19 5850   6.377   2.307   9.779 -0.2807  0.0880  0.0034
   46CHL1  H19A 5851   6.322   2.280   9.871 -0.6274  1.2629  0.1582
   46CHL1  H19B 5852   6.324   2.390   9.729  1.1537  0.7515 -0.4850
   46CHL1  H19C 5853   6.381   2.223   9.705  1.8523  0.2736 -0.1578
   46CHL1    C1 5854   6.598   2.200   9.865 -0.1222  0.4900  0.1004
   46CHL1   H1A 5855   6.584   2.105   9.809  0.6053 -1.2894  2.7425
   46CHL1   H1B 5856   6.708   2.217   9.864 -0.1021  0.4988  1.3049
   46CHL1    C2 5857   6.556   2.167  10.009  0.1521 -0.6186 -0.3028
   46CHL1   H2A 5858   6.612   2.092  10.069 -2.6512 -0.9537  2.0809
   46CHL1   H2B 5859   6.450   2.137  10.016 -0.1637  0.5230  0.1159
   46CHL1   C20 5860   6.663   2.485   9.130 -0.3994  0.4630  0.6036
   46CHL1   H20 5861   6.560   2.510   9.096 -0.7966  0.2195  1.6166
   46CHL1   C21 5862   6.682   2.334   9.106 -0.2484  0.5799 -1.0353
   46CHL1  H21A 5863   6.611   2.278   9.171  0.0361  0.8846 -0.4542
   46CHL1  H21B 5864   6.784   2.293   9.120 -0.8452 -1.0416 -1.1794
   46CHL1  H21C 5865   6.651   2.307   9.003  0.1338 -1.1687 -0.7263
   46CHL1   C22 5866   6.744   2.567   9.023 -0.4432 -0.2332 -0.7469
   46CHL1  H22A 5867   6.733   2.675   9.045  0.5210 -0.7320  2.7814
   46CHL1  H22B 5868   6.853   2.551   9.034 -0.6076 -1.4482 -0.6923
   46CHL1   C23 5869   6.707   2.529   8.878 -0.4638 -0.1107 -0.0329
   46CHL1  H23A 5870   6.760   2.444   8.830 -1.6163 -0.1273 -1.3226
   46CHL1  H23B 5871   6.599   2.507   8.872 -0.1598 -1.5634 -0.5090
   46CHL1   C24 5872   6.710   2.647   8.784  0.5083 -0.4643  0.4712
   46CHL1  H24A 5873   6.616   2.706   8.786 -0.7303 -2.2402 -1.2087
   46CHL1  H24B 5874   6.792   2.719   8.800  0.5259 -0.5767  0.9255
   46CHL1   C25 5875   6.721   2.618   8.633  0.5404  0.3273 -0.4477
   46CHL1   H25 5876   6.814   2.561   8.611 -1.2248 -3.3555  0.7165
   46CHL1   C26 5877   6.616   2.513   8.578  0.0406  0.2730 -0.3551
   46CHL1  H26A 5878   6.514   2.555   8.592 -0.7338 -1.2940 -1.1545
   46CHL1  H26B 5879   6.632   2.493   8.470 -3.0668 -1.9908 -0.5250
   46CHL1  H26C 5880   6.616   2.414   8.626 -4.1590  0.5427  0.5558
   46CHL1   C27 5881   6.718   2.751   8.557  0.4472  0.4091  0.8189
   46CHL1  H27A 5882   6.704   2.732   8.449  1.1594  0.6945  0.6688
   46CHL1  H27B 5883   6.634   2.816   8.588  0.4909  0.9147 -0.1100
   46CHL1  H27C 5884   6.817   2.802   8.569  0.1998  1.6801 -1.7811
   47CHL1    C3 5885   4.014   2.562  10.092  0.1057  0.3056 -0.1353
   47CHL1    H3 5886   3.938   2.487  10.122  0.8625 -0.5115 -0.2396
   47CHL1    O3 5887   4.044   2.640  10.209  0.0361  0.5513 -0.0627
   47CHL1   H3' 5888   4.126   2.689  10.201 -0.2095  0.7712 -1.5829
   47CHL1    C4 5889   4.136   2.476  10.056  0.0561 -0.1873  0.0387
   47CHL1   H4A 5890   4.226   2.540  10.047 -0.8744  1.0118 -1.3612
   47CHL1   H4B 5891   4.146   2.410  10.145 -2.2672 -0.1509  0.3955
   47CHL1    C5 5892   4.128   2.400   9.927 -0.3316  0.3249  0.4003
   47CHL1    C6 5893   4.161   2.268   9.917  0.3825 -0.1587 -0.7154
   47CHL1    H6 5894   4.183   2.204  10.004 -2.4456  0.1720  0.3449
   47CHL1    C7 5895   4.149   2.196   9.784 -0.1289  0.1839 -0.4594
   47CHL1   H7A 5896   4.230   2.121   9.776 -0.7337 -1.1925  3.7653
   47CHL1   H7B 5897   4.060   2.129   9.793  1.8972 -2.5336  0.9283
   47CHL1    C8 5898   4.152   2.293   9.657  0.0555 -0.1627 -0.9260
   47CHL1    H8 5899   4.254   2.337   9.646 -0.3911  0.9158 -0.8377
   47CHL1   C14 5900   4.111   2.218   9.527 -0.1213 -0.0736 -0.4788
   47CHL1   H14 5901   4.007   2.185   9.549 -0.3098  0.5608 -0.3743
   47CHL1   C15 5902   4.194   2.092   9.492  0.5357  0.7579  0.1411
   47CHL1  H15A 5903   4.298   2.088   9.528  0.5020 -2.0056  0.0973
   47CHL1  H15B 5904   4.138   2.012   9.544 -0.7467  0.9301 -0.8928
   47CHL1   C16 5905   4.185   2.078   9.341  0.3308  0.6785  0.3304
   47CHL1  H16A 5906   4.289   2.079   9.301 -0.1739  0.4241 -1.0523
   47CHL1  H16B 5907   4.133   1.989   9.298  1.1241  0.5635 -0.4231
   47CHL1   C17 5908   4.105   2.196   9.292  0.7253  0.0586  0.5032
   47CHL1   H17 5909   4.001   2.159   9.303  0.6109 -0.2530 -1.2747
   47CHL1   C13 5910   4.117   2.304   9.400 -0.0516 -0.8346 -0.1971
   47CHL1   C18 5911   4.260   2.372   9.388  0.5887 -0.2511  0.3100
   47CHL1  H18A 5912   4.337   2.303   9.348  0.1046 -0.8644  0.4276
   47CHL1  H18B 5913   4.244   2.450   9.311 -1.7323  0.0175  0.9957
   47CHL1  H18C 5914   4.289   2.423   9.482 -0.0766 -0.1976  0.4888
   47CHL1   C12 5915   4.009   2.409   9.418  0.1820  0.0069 -0.5377
   47CHL1  H12A 5916   4.009   2.481   9.333 -0.9923  2.6779  1.6021
   47CHL1  H12B 5917   3.909   2.364   9.437  0.5854 -0.8517 -0.3596
   47CHL1   C11 5918   4.028   2.489   9.549  0.4507  0.3637  0.7785
   47CHL1  H11A 5919   4.122   2.546   9.531  0.7407 -0.3082  0.1227
   47CHL1  H11B 5920   3.951   2.565   9.571 -0.0564 -0.0058  0.2930
   47CHL1    C9 5921   4.051   2.403   9.681 -0.1735  0.0195 -0.3558
   47CHL1    H9 5922   3.952   2.355   9.698 -2.0005  3.4647 -0.2086
   47CHL1   C10 5923   4.086   2.488   9.809  0.7850  0.0607  0.4470
   47CHL1   C19 5924   4.188   2.599   9.779 -0.2482 -0.2412 -0.3203
   47CHL1  H19A 5925   4.136   2.677   9.719 -1.7026 -0.6930  0.3296
   47CHL1  H19B 5926   4.217   2.659   9.868  0.2056 -2.5377  1.1499
   47CHL1  H19C 5927   4.285   2.562   9.738 -0.4384 -0.3266 -0.6999
   47CHL1    C1 5928   3.960   2.567   9.854  0.8505  0.5219  0.2011
   47CHL1   H1A 5929   3.941   2.644   9.777 -0.6982  0.1800  0.2111
   47CHL1   H1B 5930   3.868   2.504   9.855 -0.1935  1.9734 -0.7609
   47CHL1    C2 5931   3.968   2.647   9.976  0.0694  0.8077  0.3348
   47CHL1   H2A 5932   3.868   2.690   9.998  0.3674  1.9487 -0.4254
   47CHL1   H2B 5933   4.039   2.729   9.956  1.2776 -0.1712  0.5061
   47CHL1   C20 5934   4.133   2.231   9.142 -0.2930 -0.2470  0.7484
   47CHL1   H20 5935   4.243   2.229   9.129 -0.5879 -1.0463 -2.4271
   47CHL1   C21 5936   4.060   2.360   9.110  0.2731 -0.2441 -0.2379
   47CHL1  H21A 5937   3.956   2.366   9.150  1.0210 -0.7746  1.9282
   47CHL1  H21B 5938   4.051   2.383   9.002 -0.3677 -0.3278 -0.2038
   47CHL1  H21C 5939   4.108   2.450   9.153  2.2370 -1.6812  0.7079
   47CHL1   C22 5940   4.094   2.117   9.054 -0.1072  1.0003 -0.1779
   47CHL1  H22A 5941   4.148   2.138   8.959 -0.2801  0.4811 -0.3976
   47CHL1  H22B 5942   4.154   2.029   9.086 -0.6831  0.9046  0.6676
   47CHL1   C23 5943   3.946   2.072   9.051 -0.6752 -0.6601 -0.1850
   47CHL1  H23A 5944   3.926   2.020   9.147 -3.4415 -0.0725 -0.3815
   47CHL1  H23B 5945   3.871   2.153   9.058  2.9730  2.9327  2.9966
   47CHL1   C24 5946   3.924   1.968   8.938  0.4374 -0.2168  0.0043
   47CHL1  H24A 5947   4.025   1.927   8.914  1.4907  1.1242  1.8704
   47CHL1  H24B 5948   3.860   1.891   8.986 -0.4998  0.2206 -0.5127
   47CHL1   C25 5949   3.834   2.024   8.826  0.6737 -0.4130 -0.3282
   47CHL1   H25 5950   3.741   2.061   8.873  0.0043 -2.5162  0.1014
   47CHL1   C26 5951   3.889   2.143   8.742 -0.4800  0.2471 -0.2783
   47CHL1  H26A 5952   3.904   2.237   8.799  1.2817 -1.1279  1.7046
   47CHL1  H26B 5953   3.815   2.172   8.664 -3.8118 -0.2728  2.4521
   47CHL1  H26C 5954   3.991   2.121   8.702 -0.1965  0.5863  0.2462
   47CHL1   C27 5955   3.797   1.909   8.732 -0.1878 -0.8943 -0.2519
   47CHL1  H27A 5956   3.704   1.942   8.680  1.1770  1.3932 -1.3955
   47CHL1  H27B 5957   3.879   1.899   8.659  0.4806 -1.5381  0.5624
   47CHL1  H27C 5958   3.785   1.807   8.774  0.0882  0.1722  2.6885
   48CHL1    C3 5959   5.179   0.441  10.114  0.8354 -0.1062 -0.7432
   48CHL1    H3 5960   5.264   0.488  10.059  1.9279 -0.7817  0.3239
   48CHL1    O3 5961   5.210   0.460  10.250 -0.1889  0.0510  0.2377
   48CHL1   H3' 5962   5.157   0.396  10.297 -0.7242  2.9037  3.9663
   48CHL1    C4 5963   5.050   0.513  10.085  0.2484 -0.1715  0.1843
   48CHL1   H4A 5964   4.969   0.476  10.151  0.4196  0.5447  0.8062
   48CHL1   H4B 5965   5.075   0.613  10.128  1.9730 -1.8259  3.3609
   48CHL1    C5 5966   5.020   0.510   9.938  0.0152  0.9182 -0.0868
   48CHL1    C6 5967   4.996   0.619   9.864  0.2812 -0.6314 -0.1485
   48CHL1    H6 5968   5.005   0.717   9.913 -0.9374 -0.9553  0.7819
   48CHL1    C7 5969   4.948   0.630   9.722 -0.5513  0.4777  0.0975
   48CHL1   H7A 5970   4.865   0.701   9.704  0.0674  0.5542 -2.8262
   48CHL1   H7B 5971   5.034   0.665   9.662 -1.4708 -0.3780 -1.7824
   48CHL1    C8 5972   4.914   0.493   9.672 -0.5328  1.0523 -0.0918
   48CHL1    H8 5973   4.813   0.474   9.713 -0.1810 -0.9046 -0.0475
   48CHL1   C14 5974   4.910   0.494   9.518 -0.6686 -0.5499  0.4949
   48CHL1   H14 5975   5.013   0.520   9.483 -0.6546  2.3836  2.3583
   48CHL1   C15 5976   4.835   0.606   9.447 -0.1549  0.8012  0.4329
   48CHL1  H15A 5977   4.743   0.620   9.508  0.3352 -0.9107  1.6476
   48CHL1  H15B 5978   4.893   0.701   9.451  1.2799 -0.0339  0.4014
   48CHL1   C16 5979   4.809   0.549   9.309 -0.5558 -0.1255  0.1307
   48CHL1  H16A 5980   4.700   0.553   9.290 -0.9348  0.6014  2.2370
   48CHL1  H16B 5981   4.865   0.612   9.236  0.0683 -0.0062  0.7039
   48CHL1   C17 5982   4.872   0.403   9.300  0.4703 -0.9492 -0.5596
   48CHL1   H17 5983   4.980   0.419   9.277  0.1857  2.1981 -0.1895
   48CHL1   C13 5984   4.866   0.361   9.451 -0.7310 -0.8614 -0.0754
   48CHL1   C18 5985   4.729   0.325   9.502  0.6162  0.3006  0.3706
   48CHL1  H18A 5986   4.739   0.311   9.612  1.7462 -2.0461  0.0174
   48CHL1  H18B 5987   4.655   0.407   9.486 -0.6323 -0.5263  1.6367
   48CHL1  H18C 5988   4.699   0.223   9.471 -1.0569  1.1737 -1.0965
   48CHL1   C12 5989   4.973   0.254   9.500 -0.1119 -0.4681 -0.3011
   48CHL1  H12A 5990   4.943   0.151   9.471  0.5527 -1.5089  2.4549
   48CHL1  H12B 5991   5.073   0.280   9.458 -0.2089 -1.7377 -1.3997
   48CHL1   C11 5992   4.984   0.243   9.651 -0.2425 -0.7133  0.3365
   48CHL1  H11A 5993   4.891   0.184   9.670 -0.2436 -1.3917 -1.6011
   48CHL1  H11B 5994   5.070   0.180   9.684  0.9128  0.2378 -0.7762
   48CHL1    C9 5995   5.004   0.376   9.721 -0.0333 -1.1805  0.9357
   48CHL1    H9 5996   5.107   0.409   9.694  0.4064 -2.2052  1.3216
   48CHL1   C10 5997   5.000   0.370   9.878  0.2011 -0.0045 -0.4412
   48CHL1   C19 5998   4.860   0.320   9.924  0.1468 -0.9518 -0.1415
   48CHL1  H19A 5999   4.876   0.294  10.031 -0.0993  0.2983  0.2166
   48CHL1  H19B 6000   4.789   0.405   9.926  2.6778  1.2837  1.8140
   48CHL1  H19C 6001   4.818   0.232   9.870 -3.6652  0.6815 -0.1778
   48CHL1    C1 6002   5.118   0.283   9.924  0.7675 -0.0651 -0.4877
   48CHL1   H1A 6003   5.103   0.175   9.904 -1.0138 -0.2266  1.3433
   48CHL1   H1B 6004   5.207   0.317   9.867 -0.8080  0.2542 -2.8886
   48CHL1    C2 6005   5.160   0.296  10.073  0.5824  0.2273  1.1586
   48CHL1   H2A 6006   5.250   0.234  10.089 -0.2256 -1.3811 -0.1010
   48CHL1   H2B 6007   5.087   0.244  10.139  1.8031 -3.1465  0.0561
   48CHL1   C20 6008   4.797   0.322   9.193  0.5116  1.1498  0.3550
   48CHL1   H20 6009   4.687   0.312   9.208  0.8539 -1.5544  1.6013
   48CHL1   C21 6010   4.861   0.184   9.205  0.5457 -0.1125 -0.1625
   48CHL1  H21A 6011   4.971   0.198   9.210  0.7850 -1.3441 -1.2311
   48CHL1  H21B 6012   4.834   0.121   9.117 -0.2235 -3.4397  2.2786
   48CHL1  H21C 6013   4.832   0.129   9.296  0.5327  2.1871  1.3029
   48CHL1   C22 6014   4.813   0.381   9.053  0.5123 -0.4918 -0.2239
   48CHL1  H22A 6015   4.767   0.483   9.055 -0.3407 -0.8708  0.0189
   48CHL1  H22B 6016   4.920   0.383   9.024  0.6832  0.6615  0.4212
   48CHL1   C23 6017   4.719   0.315   8.951 -0.3774  0.2034  0.0458
   48CHL1  H23A 6018   4.743   0.207   8.955 -2.3785 -0.2332  1.8548
   48CHL1  H23B 6019   4.612   0.317   8.980 -0.1897 -2.6904  1.1962
   48CHL1   C24 6020   4.746   0.356   8.810 -0.5058  0.3535  0.1160
   48CHL1  H24A 6021   4.717   0.463   8.802  0.8548  0.6971 -0.3467
   48CHL1  H24B 6022   4.852   0.334   8.789 -1.6735 -3.2240 -3.1787
   48CHL1   C25 6023   4.676   0.272   8.703  0.5734 -0.5518  0.3024
   48CHL1   H25 6024   4.714   0.168   8.698  1.6537 -0.0944 -2.9430
   48CHL1   C26 6025   4.526   0.268   8.721  0.1237 -0.6177 -0.6351
   48CHL1  H26A 6026   4.497   0.217   8.815 -0.0330  0.1323 -0.2669
   48CHL1  H26B 6027   4.488   0.373   8.728 -2.4240 -1.3508 -1.9804
   48CHL1  H26C 6028   4.479   0.212   8.638  0.9653 -1.8776 -0.2797
   48CHL1   C27 6029   4.715   0.342   8.567 -0.0194 -0.1465 -0.9359
   48CHL1  H27A 6030   4.651   0.430   8.543  1.2946  1.5482  1.4346
   48CHL1  H27B 6031   4.820   0.376   8.576 -0.4097  1.2074 -1.2980
   48CHL1  H27C 6032   4.699   0.271   8.482  1.5492  0.8630 -2.1217
   49CHL1    C3 6033   4.977   6.573  10.172  0.1860 -0.6707 -0.0386
   49CHL1    H3 6034   4.870   6.595  10.187  0.1894 -1.3279  1.0471
   49CHL1    O3 6035   5.037   6.566  10.307 -0.6698 -0.6283 -0.0817
   49CHL1   H3' 6036   5.123   6.531  10.285 -0.5101  0.0905 -0.6304
   49CHL1    C4 6037   4.998   6.439  10.099  0.2363  0.2462 -0.3853
   49CHL1   H4A 6038   5.105   6.413  10.097 -0.1274 -1.2837 -0.7487
   49CHL1   H4B 6039   4.959   6.351  10.154  3.0860 -1.4414 -0.8957
   49CHL1    C5 6040   4.953   6.449   9.958 -0.2341 -0.2350  0.5644
   49CHL1    C6 6041   4.859   6.366   9.913  0.0743 -0.4896  0.2645
   49CHL1    H6 6042   4.813   6.288   9.976 -0.6833 -0.4306 -0.1991
   49CHL1    C7 6043   4.814   6.354   9.773 -0.7923 -0.3269  0.5965
   49CHL1   H7A 6044   4.809   6.255   9.723 -2.2798  0.3120 -0.5932
   49CHL1   H7B 6045   4.713   6.396   9.753  0.2724  2.2451  0.2637
   49CHL1    C8 6046   4.913   6.435   9.675 -0.0500 -0.6615 -0.6445
   49CHL1    H8 6047   5.008   6.377   9.676  0.1267 -0.3993 -1.5693
   49CHL1   C14 6048   4.858   6.449   9.536 -0.5025 -0.1185 -0.5341
   49CHL1   H14 6049   4.764   6.508   9.535  0.0403  0.8023 -2.6881
   49CHL1   C15 6050   4.819   6.320   9.464  0.1978  0.7232  0.0425
   49CHL1  H15A 6051   4.895   6.241   9.487 -0.9886  0.5372  4.3192
   49CHL1  H15B 6052   4.718   6.287   9.494  0.6410 -0.1245  0.6702
   49CHL1   C16 6053   4.807   6.359   9.318 -0.9295 -0.5764  0.1785
   49CHL1  H16A 6054   4.864   6.285   9.257 -0.2700  0.0713 -0.0036
   49CHL1  H16B 6055   4.700   6.370   9.287 -0.6146  2.6481 -0.0634
   49CHL1   C17 6056   4.867   6.510   9.308 -0.2467  0.7704  0.4226
   49CHL1   H17 6057   4.779   6.577   9.311 -1.5708 -0.9047 -0.0323
   49CHL1   C13 6058   4.945   6.528   9.433 -0.8919 -0.0073 -0.2605
   49CHL1   C18 6059   5.091   6.474   9.412  0.6951 -0.1731  0.3676
   49CHL1  H18A 6060   5.063   6.375   9.370 -2.6455  1.0018 -0.4568
   49CHL1  H18B 6061   5.144   6.535   9.335 -2.2234 -1.3094 -2.7678
   49CHL1  H18C 6062   5.143   6.476   9.510 -0.7176  0.7438  1.1291
   49CHL1   C12 6063   4.952   6.673   9.495 -0.8871  0.0172  0.1290
   49CHL1  H12A 6064   5.029   6.723   9.432  0.1239 -1.8214 -0.1885
   49CHL1  H12B 6065   4.852   6.722   9.491 -1.0445 -0.3271 -0.1906
   49CHL1   C11 6066   5.019   6.669   9.634  1.0175 -0.7710  0.3886
   49CHL1  H11A 6067   5.126   6.637   9.634  1.6360  1.0487  2.4249
   49CHL1  H11B 6068   5.011   6.775   9.668  0.7126  0.8796 -4.2175
   49CHL1    C9 6069   4.945   6.571   9.735  0.2619 -0.7030  0.8028
   49CHL1    H9 6070   4.847   6.615   9.762  0.0098 -1.3771  0.9912
   49CHL1   C10 6071   5.015   6.558   9.870 -0.5661  0.1585 -0.5018
   49CHL1   C19 6072   5.168   6.514   9.849  0.3495 -0.0570  0.6049
   49CHL1  H19A 6073   5.223   6.492   9.942  1.8586 -1.9612 -0.6613
   49CHL1  H19B 6074   5.176   6.434   9.773 -2.5106  0.3983 -0.3056
   49CHL1  H19C 6075   5.224   6.601   9.808  0.0945 -0.3888 -0.4780
   49CHL1    C1 6076   5.005   6.690   9.952 -0.0945  0.3481 -0.0921
   49CHL1   H1A 6077   5.073   6.760   9.899 -0.9522  0.0862 -1.5953
   49CHL1   H1B 6078   4.901   6.729   9.955 -0.8057 -1.5438  1.7955
   49CHL1    C2 6079   5.051   6.676  10.096  0.1683 -0.7764 -0.0607
   49CHL1   H2A 6080   5.051   6.774  10.148 -1.8824 -0.7966  0.0506
   49CHL1   H2B 6081   5.157   6.643  10.104  0.1427 -0.9169 -0.2654
   49CHL1   C20 6082   4.936   6.534   9.169  0.0574 -0.1560 -0.0864
   49CHL1   H20 6083   5.035   6.494   9.140  0.5164  1.9044 -1.6775
   49CHL1   C21 6084   4.939   6.682   9.139  0.2204 -0.1224  0.7298
   49CHL1  H21A 6085   4.845   6.724   9.099  0.5864 -0.5740 -0.6601
   49CHL1  H21B 6086   5.015   6.707   9.062  0.0657  1.7815  1.1546
   49CHL1  H21C 6087   4.984   6.735   9.226  0.9133 -1.4842  1.2390
   49CHL1   C22 6088   4.858   6.467   9.048  0.2127  0.2548  0.0828
   49CHL1  H22A 6089   4.862   6.356   9.049 -2.2263  0.0633 -1.4705
   49CHL1  H22B 6090   4.749   6.478   9.067 -0.0664 -1.8451  0.0054
   49CHL1   C23 6091   4.909   6.521   8.917  0.1971  0.2253 -0.2224
   49CHL1  H23A 6092   4.869   6.620   8.887  0.4857  0.6326  0.6987
   49CHL1  H23B 6093   5.020   6.519   8.923  0.3633 -0.9273 -2.4098
   49CHL1   C24 6094   4.880   6.426   8.798 -0.0724 -0.0304 -0.3686
   49CHL1  H24A 6095   4.937   6.331   8.810 -0.7254 -0.7978 -2.8921
   49CHL1  H24B 6096   4.774   6.393   8.806 -0.6714  1.7233 -0.8390
   49CHL1   C25 6097   4.890   6.491   8.661  0.6663 -0.0455  0.6370
   49CHL1   H25 6098   4.837   6.588   8.666  0.4526 -0.2153  2.0322
   49CHL1   C26 6099   5.041   6.504   8.631  0.8792  0.2400  0.2283
   49CHL1  H26A 6100   5.056   6.496   8.521  1.1429 -0.5567  0.3165
   49CHL1  H26B 6101   5.075   6.604   8.663 -2.8874  1.8551 -0.2966
   49CHL1  H26C 6102   5.088   6.411   8.670 -0.7480 -1.5676 -1.8570
   49CHL1   C27 6103   4.832   6.401   8.549 -1.1789 -0.0061  0.3755
   49CHL1  H27A 6104   4.896   6.311   8.538  0.8054  1.4628 -1.1130
   49CHL1  H27B 6105   4.726   6.380   8.572 -0.9886 -1.1524  0.2641
   49CHL1  H27C 6106   4.845   6.452   8.451 -0.0135  1.3924  1.2137
   50CHL1    C3 6107   2.561   1.066  10.259 -0.2564  0.2151  0.5387
   50CHL1    H3 6108   2.488   0.988  10.230  2.7158 -1.0970 -4.5781
   50CHL1    O3 6109   2.614   1.052  10.394 -0.0531  0.1784  0.2092
   50CHL1   H3' 6110   2.543   1.088  10.448  0.0613  0.0122  0.4710
   50CHL1    C4 6111   2.687   1.058  10.180  0.0751 -0.5496  0.4539
   50CHL1   H4A 6112   2.768   1.120  10.224  2.9217 -2.7639 -1.2730
   50CHL1   H4B 6113   2.717   0.951  10.185  2.5636 -0.1382 -2.5993
   50CHL1    C5 6114   2.661   1.089  10.031 -0.0223 -0.5914 -0.0245
   50CHL1    C6 6115   2.699   1.004   9.937 -0.0830 -0.0489  0.8491
   50CHL1    H6 6116   2.766   0.921   9.965 -0.7396 -0.8963 -0.0017
   50CHL1    C7 6117   2.685   1.019   9.788  0.1560 -0.6535 -0.6769
   50CHL1   H7A 6118   2.779   1.001   9.731 -0.3549  1.5693 -2.3591
   50CHL1   H7B 6119   2.607   0.950   9.751 -1.0454  0.7948 -0.9534
   50CHL1    C8 6120   2.626   1.166   9.755  0.7022 -0.1964  0.5242
   50CHL1    H8 6121   2.706   1.243   9.757 -0.8479  1.5053  0.0914
   50CHL1   C14 6122   2.570   1.164   9.614 -0.5869  0.0084 -0.4906
   50CHL1   H14 6123   2.506   1.073   9.610  0.6648 -0.8964 -0.4238
   50CHL1   C15 6124   2.666   1.126   9.499 -0.1060 -0.1987 -0.1556
   50CHL1  H15A 6125   2.754   1.193   9.498  0.0988 -0.4374 -2.5022
   50CHL1  H15B 6126   2.688   1.017   9.502  3.1594  0.3865  0.3974
   50CHL1   C16 6127   2.591   1.170   9.378 -0.6405  0.3558  0.1582
   50CHL1  H16A 6128   2.667   1.231   9.324  0.0922  2.0771  2.9593
   50CHL1  H16B 6129   2.559   1.093   9.304 -0.5059  0.3163  0.1412
   50CHL1   C17 6130   2.472   1.262   9.419 -0.2701  0.6424 -0.2224
   50CHL1   H17 6131   2.384   1.195   9.417 -0.7014  1.2204 -0.9249
   50CHL1   C13 6132   2.502   1.300   9.568 -0.2470 -0.2572 -0.0632
   50CHL1   C18 6133   2.592   1.428   9.562 -0.3688  0.6426 -0.1929
   50CHL1  H18A 6134   2.635   1.454   9.661  1.2652  1.3263 -1.0307
   50CHL1  H18B 6135   2.680   1.417   9.495  1.6801 -1.4596  2.5981
   50CHL1  H18C 6136   2.524   1.511   9.535 -1.2704 -0.2531 -0.7573
   50CHL1   C12 6137   2.385   1.342   9.661 -0.2865 -0.1851 -0.3845
   50CHL1  H12A 6138   2.345   1.442   9.637  0.9807  0.0721 -1.5198
   50CHL1  H12B 6139   2.300   1.271   9.651 -1.1128  0.7425 -0.0812
   50CHL1   C11 6140   2.438   1.333   9.809 -0.6783 -0.4657  0.8802
   50CHL1  H11A 6141   2.501   1.422   9.829 -1.8321  0.4365  0.6282
   50CHL1  H11B 6142   2.342   1.325   9.865  0.2037  1.8646  2.9054
   50CHL1    C9 6143   2.522   1.212   9.858 -0.2246  0.3037 -0.0985
   50CHL1    H9 6144   2.454   1.124   9.855  1.1236 -0.7742 -1.5572
   50CHL1   C10 6145   2.574   1.214  10.009  0.4870 -0.5478  0.0350
   50CHL1   C19 6146   2.668   1.336  10.027 -0.3426  0.2049  0.0992
   50CHL1  H19A 6147   2.746   1.347   9.948  1.0830 -2.3128  1.0209
   50CHL1  H19B 6148   2.610   1.429  10.010 -1.9810 -0.9373 -0.8027
   50CHL1  H19C 6149   2.720   1.326  10.125  0.1430  0.0665 -0.1694
   50CHL1    C1 6150   2.452   1.224  10.108  0.3093  1.1589 -0.4370
   50CHL1   H1A 6151   2.394   1.318  10.094  0.2064  0.9773 -1.2920
   50CHL1   H1B 6152   2.384   1.138  10.088 -1.6327  1.7096  3.0172
   50CHL1    C2 6153   2.498   1.207  10.251  0.3951  0.2837 -0.0595
   50CHL1   H2A 6154   2.410   1.205  10.319  1.6965 -4.4398  1.9049
   50CHL1   H2B 6155   2.575   1.281  10.279  1.6405 -1.2724  0.8027
   50CHL1   C20 6156   2.442   1.374   9.315  0.3264 -0.3675  0.0559
   50CHL1   H20 6157   2.530   1.441   9.308 -0.3535  0.4272 -1.0894
   50CHL1   C21 6158   2.316   1.452   9.353 -0.7389 -0.0691  0.6367
   50CHL1  H21A 6159   2.341   1.497   9.452  1.2749 -0.2652  0.2667
   50CHL1  H21B 6160   2.239   1.374   9.373 -0.5413 -0.5563 -0.4410
   50CHL1  H21C 6161   2.281   1.530   9.282  2.7718 -0.2800 -1.5578
   50CHL1   C22 6162   2.431   1.321   9.164  0.1194  0.3505 -0.4472
   50CHL1  H22A 6163   2.418   1.410   9.098  0.4909  1.1158  0.4919
   50CHL1  H22B 6164   2.529   1.278   9.134  1.4371  3.2039 -0.4954
   50CHL1   C23 6165   2.313   1.217   9.137  0.3071 -0.1069  0.0388
   50CHL1  H23A 6166   2.293   1.149   9.223 -0.4144  0.9535  0.7392
   50CHL1  H23B 6167   2.221   1.275   9.118  0.9742  1.7215  1.9580
   50CHL1   C24 6168   2.350   1.139   9.007  0.3143 -0.4211  0.3178
   50CHL1  H24A 6169   2.363   1.215   8.927 -3.5538 -0.0074 -0.1094
   50CHL1  H24B 6170   2.447   1.092   9.032 -0.8429 -0.7280  5.0972
   50CHL1   C25 6171   2.258   1.033   8.952 -0.7764  0.2687  0.1041
   50CHL1   H25 6172   2.155   1.077   8.956 -0.9887 -0.0723 -1.1822
   50CHL1   C26 6173   2.285   0.984   8.810  0.2511 -0.2942  0.3951
   50CHL1  H26A 6174   2.365   0.907   8.810  2.8529  2.2395 -0.7890
   50CHL1  H26B 6175   2.183   0.957   8.773  0.8334  0.6831 -2.1641
   50CHL1  H26C 6176   2.323   1.077   8.762 -2.5226  1.3565  1.1731
   50CHL1   C27 6177   2.242   0.912   9.047  0.5392 -0.3765  0.2330
   50CHL1  H27A 6178   2.177   0.842   8.991  0.7356  0.3450 -0.9332
   50CHL1  H27B 6179   2.341   0.863   9.060 -0.4271 -2.3592  0.5402
   50CHL1  H27C 6180   2.213   0.948   9.148  0.4381 -0.3785  0.2047
   51CHL1    C3 6181   1.603   1.766  10.247 -0.2072  0.5613  0.7533
   51CHL1    H3 6182   1.575   1.678  10.186 -2.3368 -0.4664  3.0335
   51CHL1    O3 6183   1.584   1.742  10.384  0.6259  0.4867  0.0927
   51CHL1   H3' 6184   1.609   1.825  10.425  4.8552 -1.5323  2.3081
   51CHL1    C4 6185   1.754   1.795  10.222  0.5531 -0.1457 -0.2926
   51CHL1   H4A 6186   1.793   1.857  10.306  0.4231  0.0639 -0.3870
   51CHL1   H4B 6187   1.794   1.692  10.207 -2.0768 -0.9662 -2.5822
   51CHL1    C5 6188   1.786   1.867  10.095  0.0746  1.1208  0.0327
   51CHL1    C6 6189   1.889   1.821  10.023  0.0836  0.1381  0.2214
   51CHL1    H6 6190   1.945   1.735  10.064  0.1945  0.2163  0.2343
   51CHL1    C7 6191   1.931   1.872   9.890 -1.1277 -0.3027  0.3365
   51CHL1   H7A 6192   2.039   1.899   9.891 -1.0722 -0.3987  3.2563
   51CHL1   H7B 6193   1.915   1.784   9.824 -0.0795 -1.3604  1.4401
   51CHL1    C8 6194   1.842   1.990   9.836  0.3078  0.2866 -0.6916
   51CHL1    H8 6195   1.885   2.087   9.869 -0.4361  0.4718 -0.2461
   51CHL1   C14 6196   1.851   1.984   9.690  0.5463  0.1728 -0.1684
   51CHL1   H14 6197   1.801   1.888   9.665 -2.9077  0.4897  4.3560
   51CHL1   C15 6198   1.987   1.988   9.623  0.3557 -0.2680  0.5047
   51CHL1  H15A 6199   2.046   2.077   9.655  1.9384 -1.5460  1.3009
   51CHL1  H15B 6200   2.048   1.896   9.631 -0.2367 -0.9079 -1.6144
   51CHL1   C16 6201   1.955   2.003   9.471 -0.3094  0.0759 -0.3927
   51CHL1  H16A 6202   2.033   2.068   9.425  0.2646 -0.9617 -0.9386
   51CHL1  H16B 6203   1.954   1.908   9.414  2.3722 -0.2311 -0.0799
   51CHL1   C17 6204   1.807   2.055   9.471  0.7481  0.1535  0.0546
   51CHL1   H17 6205   1.748   1.966   9.441 -1.0629  1.2916  0.1127
   51CHL1   C13 6206   1.775   2.094   9.615  0.0114  0.0240  0.0958
   51CHL1   C18 6207   1.822   2.232   9.651  0.2083 -0.7071  0.5898
   51CHL1  H18A 6208   1.927   2.258   9.624  0.3915  0.9083  2.6399
   51CHL1  H18B 6209   1.756   2.306   9.601 -0.8186 -1.0867  1.3447
   51CHL1  H18C 6210   1.808   2.262   9.757 -4.1071 -1.0802  0.3055
   51CHL1   C12 6211   1.629   2.072   9.661  0.3819  0.0848  0.2052
   51CHL1  H12A 6212   1.550   2.139   9.621  0.0952 -0.4170 -0.0937
   51CHL1  H12B 6213   1.608   1.965   9.636 -1.4703 -0.1324  2.3907
   51CHL1   C11 6214   1.605   2.082   9.817 -0.2100 -0.1414 -0.5109
   51CHL1  H11A 6215   1.631   2.185   9.847 -1.8210 -0.9295  4.5754
   51CHL1  H11B 6216   1.501   2.057   9.848  0.0472 -0.1790  0.3461
   51CHL1    C9 6217   1.698   1.980   9.888  0.5747  0.0525  0.3452
   51CHL1    H9 6218   1.661   1.887   9.840 -1.3889  1.4677 -0.9821
   51CHL1   C10 6219   1.686   1.964  10.043 -0.1297  0.8383  0.2805
   51CHL1   C19 6220   1.713   2.101  10.106  0.6376  0.0963  0.2115
   51CHL1  H19A 6221   1.624   2.163  10.086 -2.2386 -2.4269  3.8844
   51CHL1  H19B 6222   1.718   2.093  10.217  0.4465 -0.9570  0.1505
   51CHL1  H19C 6223   1.805   2.144  10.061  0.5347 -0.9146 -1.0348
   51CHL1    C1 6224   1.535   1.916  10.067  0.5944 -0.1765 -0.2571
   51CHL1   H1A 6225   1.450   1.981  10.035 -2.5892 -1.5142  4.4384
   51CHL1   H1B 6226   1.520   1.821  10.011 -0.1556  0.1934 -0.7030
   51CHL1    C2 6227   1.510   1.879  10.213 -0.2234 -0.3550 -0.4517
   51CHL1   H2A 6228   1.406   1.839  10.218 -0.7997  1.2399  1.1583
   51CHL1   H2B 6229   1.534   1.970  10.272  4.5169 -1.5279 -0.1561
   51CHL1   C20 6230   1.788   2.144   9.355 -0.1710 -1.1168 -0.4039
   51CHL1   H20 6231   1.856   2.231   9.366  2.7071 -3.1100 -1.2751
   51CHL1   C21 6232   1.646   2.197   9.359 -0.0824 -0.6600 -0.2521
   51CHL1  H21A 6233   1.620   2.270   9.281  0.9399  2.2439  1.9481
   51CHL1  H21B 6234   1.629   2.254   9.453 -1.8996 -0.1824 -0.8300
   51CHL1  H21C 6235   1.571   2.114   9.360 -1.0469  0.1921  0.4127
   51CHL1   C22 6236   1.806   2.064   9.221 -0.1437 -0.0642 -0.0055
   51CHL1  H22A 6237   1.902   2.008   9.226  0.1710 -0.0464 -3.4808
   51CHL1  H22B 6238   1.728   1.985   9.217  0.4054 -0.7894  1.9573
   51CHL1   C23 6239   1.822   2.151   9.096 -0.0025  0.2448 -0.1340
   51CHL1  H23A 6240   1.733   2.217   9.085  0.6168  0.8866 -1.4506
   51CHL1  H23B 6241   1.908   2.211   9.131 -1.2691  2.1091 -0.0721
   51CHL1   C24 6242   1.848   2.063   8.966  0.7378 -0.0340 -0.4256
   51CHL1  H24A 6243   1.910   1.977   8.999  0.4632  0.7275  2.2966
   51CHL1  H24B 6244   1.754   2.017   8.927  0.4790  0.7734 -0.7948
   51CHL1   C25 6245   1.926   2.147   8.862 -0.7972 -0.1836  0.4420
   51CHL1   H25 6246   2.003   2.196   8.925 -0.2370  1.9741 -1.7480
   51CHL1   C26 6247   1.993   2.052   8.758 -0.6707  0.0880 -0.3359
   51CHL1  H26A 6248   2.068   2.093   8.687 -0.0980  1.0242  0.7651
   51CHL1  H26B 6249   2.044   1.974   8.819 -1.7308 -1.3224 -1.1810
   51CHL1  H26C 6250   1.909   2.010   8.700  0.7318 -0.3465 -2.1432
   51CHL1   C27 6251   1.830   2.250   8.797  0.0643 -0.3006  0.2436
   51CHL1  H27A 6252   1.750   2.185   8.754 -0.6188 -0.7954  2.1523
   51CHL1  H27B 6253   1.787   2.311   8.879 -0.1474 -0.9972  0.6648
   51CHL1  H27C 6254   1.879   2.310   8.717  0.4356 -1.1065 -0.1410
   52CHL1    C3 6255   3.903   4.062   9.997 -0.3174 -0.3459  0.1903
   52CHL1    H3 6256   3.835   4.147   9.977  3.4536  2.4243 -2.0461
   52CHL1    O3 6257   3.885   4.031  10.133  0.4127 -0.0783 -0.4611
   52CHL1   H3' 6258   3.953   3.964  10.139  1.8039  1.1594 -1.4767
   52CHL1    C4 6259   3.848   3.944   9.914 -0.1002 -0.2285  0.5536
   52CHL1   H4A 6260   3.885   3.844   9.943  1.8059 -0.9079 -3.4915
   52CHL1   H4B 6261   3.738   3.946   9.930  0.1260 -0.7001  2.3603
   52CHL1    C5 6262   3.875   3.974   9.765  0.3127 -0.9231 -0.4486
   52CHL1    C6 6263   3.782   3.968   9.671 -0.0917 -0.1809  0.1761
   52CHL1    H6 6264   3.683   3.930   9.701 -0.5969  0.1475 -0.9795
   52CHL1    C7 6265   3.811   3.971   9.521 -0.9922  0.4190 -0.3565
   52CHL1   H7A 6266   3.757   3.889   9.469  0.3559 -0.1461 -0.9182
   52CHL1   H7B 6267   3.758   4.056   9.472 -2.7437 -0.7169 -0.5002
   52CHL1    C8 6268   3.960   3.963   9.490 -0.2687 -0.2338  0.0665
   52CHL1    H8 6269   4.003   3.861   9.493 -1.7815 -0.9470 -0.9335
   52CHL1   C14 6270   3.986   4.014   9.349 -0.4006 -0.2581 -1.0116
   52CHL1   H14 6271   3.971   4.124   9.357  2.6685  0.3333 -1.8322
   52CHL1   C15 6272   3.891   3.966   9.239 -0.4576 -0.5726  0.0509
   52CHL1  H15A 6273   3.873   3.858   9.255 -0.6049 -0.3545  1.4476
   52CHL1  H15B 6274   3.800   4.030   9.238 -0.1775 -0.1004  1.6689
   52CHL1   C16 6275   3.972   3.981   9.109  0.5988  0.2772 -0.0090
   52CHL1  H16A 6276   3.997   3.882   9.064  1.9301  0.7898 -0.4484
   52CHL1  H16B 6277   3.917   4.045   9.036 -1.8547 -0.0136  1.4621
   52CHL1   C17 6278   4.108   4.051   9.139  0.4115  0.1498  0.3291
   52CHL1   H17 6279   4.095   4.162   9.137 -2.0770 -0.1010 -0.0113
   52CHL1   C13 6280   4.132   4.009   9.290  0.1737  1.8245 -1.0565
   52CHL1   C18 6281   4.183   3.856   9.283 -0.0803 -1.2547 -0.3925
   52CHL1  H18A 6282   4.286   3.837   9.247  0.4121 -1.0656  0.8785
   52CHL1  H18B 6283   4.190   3.812   9.385 -1.7887  0.7614  0.6727
   52CHL1  H18C 6284   4.117   3.784   9.230 -1.4623 -1.0715  0.9881
   52CHL1   C12 6285   4.216   4.097   9.390 -0.1467 -0.6182  0.4215
   52CHL1  H12A 6286   4.325   4.090   9.367 -0.0658  1.1038  0.1409
   52CHL1  H12B 6287   4.185   4.203   9.385  1.1093 -0.2529 -0.0963
   52CHL1   C11 6288   4.192   4.056   9.538 -0.5637  0.6190  0.3608
   52CHL1  H11A 6289   4.236   3.955   9.554 -1.0571  0.0796 -1.4896
   52CHL1  H11B 6290   4.251   4.131   9.595  1.6835 -0.8008  0.0351
   52CHL1    C9 6291   4.047   4.051   9.584  0.0435 -0.3010  0.1072
   52CHL1    H9 6292   4.011   4.156   9.580 -1.6924 -0.7923  1.5007
   52CHL1   C10 6293   4.022   4.007   9.730  0.0808 -0.2872  0.4334
   52CHL1   C19 6294   4.094   3.867   9.754  0.0856  0.0563 -0.8078
   52CHL1  H19A 6295   4.204   3.870   9.738 -0.2875  2.7384 -4.0938
   52CHL1  H19B 6296   4.086   3.839   9.861 -0.6600  0.0096 -0.8677
   52CHL1  H19C 6297   4.057   3.785   9.688  2.2274 -1.5034 -0.1957
   52CHL1    C1 6298   4.076   4.123   9.820  0.2998 -0.3452 -1.0614
   52CHL1   H1A 6299   4.187   4.127   9.813  0.2824  0.6413 -0.9237
   52CHL1   H1B 6300   4.023   4.220   9.803  0.9068  0.3613  0.8422
   52CHL1    C2 6301   4.045   4.104   9.970 -0.0532  0.3383  0.2410
   52CHL1   H2A 6302   4.080   4.193  10.026  2.2287  0.7565 -1.6827
   52CHL1   H2B 6303   4.112   4.020   9.997 -0.1502  0.0519 -0.3923
   52CHL1   C20 6304   4.223   4.012   9.034  1.2048  0.0734  0.0715
   52CHL1   H20 6305   4.227   3.902   9.043 -0.1318  0.0668  0.9044
   52CHL1   C21 6306   4.355   4.075   9.078 -0.9300  1.0286 -0.4784
   52CHL1  H21A 6307   4.413   4.011   9.149 -0.5470  2.8102  0.9130
   52CHL1  H21B 6308   4.344   4.174   9.128 -1.1651  1.6420 -1.7087
   52CHL1  H21C 6309   4.425   4.075   8.992 -0.7603 -1.3443 -0.4024
   52CHL1   C22 6310   4.190   4.056   8.883  1.2908 -0.5308 -0.7089
   52CHL1  H22A 6311   4.281   4.021   8.830  1.2411  2.0211 -2.6677
   52CHL1  H22B 6312   4.112   4.002   8.826  1.3036  0.5943 -1.8353
   52CHL1   C23 6313   4.175   4.209   8.871  0.1636 -0.1858  0.0553
   52CHL1  H23A 6314   4.080   4.236   8.922 -0.9181 -1.0031 -1.4282
   52CHL1  H23B 6315   4.256   4.257   8.930 -0.6017 -2.0505  2.8063
   52CHL1   C24 6316   4.179   4.258   8.732 -0.7954  0.0994 -0.0726
   52CHL1  H24A 6317   4.263   4.218   8.672 -2.3272 -2.9498 -0.3592
   52CHL1  H24B 6318   4.088   4.217   8.683 -2.3755  3.1539  0.0562
   52CHL1   C25 6319   4.192   4.413   8.724  0.0058  0.0365 -0.7791
   52CHL1   H25 6320   4.273   4.443   8.794 -0.9196  3.3680 -0.9612
   52CHL1   C26 6321   4.219   4.467   8.580 -0.3772  0.7161  0.2822
   52CHL1  H26A 6322   4.207   4.577   8.566 -0.2571  1.0321  2.3230
   52CHL1  H26B 6323   4.325   4.442   8.554 -0.1925 -0.0393  1.6725
   52CHL1  H26C 6324   4.150   4.419   8.508 -0.3989  3.4368 -1.6814
   52CHL1   C27 6325   4.059   4.483   8.773  0.0536 -0.4860  0.1645
   52CHL1  H27A 6326   4.034   4.461   8.879 -0.2081  1.2127  0.4743
   52CHL1  H27B 6327   4.085   4.591   8.766  1.2185 -0.7847 -0.4849
   52CHL1  H27C 6328   3.977   4.461   8.702  0.3429  1.4385 -0.8260
   53CHL1    C3 6329   0.670   2.606   9.975 -0.6504  0.4018  0.7938
   53CHL1    H3 6330   0.736   2.517   9.966 -0.1541  0.9226 -1.2312
   53CHL1    O3 6331   0.619   2.608  10.110 -0.3959  0.5629  0.6397
   53CHL1   H3' 6332   0.694   2.642  10.159  0.4012 -0.4756  0.1900
   53CHL1    C4 6333   0.755   2.731   9.951  0.6350 -0.3026 -0.2663
   53CHL1   H4A 6334   0.698   2.820   9.983 -1.8662 -1.0708 -2.2629
   53CHL1   H4B 6335   0.841   2.723  10.022  1.3245  1.0367 -0.9095
   53CHL1    C5 6336   0.808   2.749   9.807 -0.3375  0.1944 -0.6824
   53CHL1    C6 6337   0.933   2.780   9.769  0.6824 -0.1183 -0.2800
   53CHL1    H6 6338   1.003   2.804   9.851  0.6059 -2.5982  0.5903
   53CHL1    C7 6339   0.979   2.794   9.627 -0.0363 -0.2105 -0.3527
   53CHL1   H7A 6340   1.062   2.869   9.619  1.2125 -1.5930 -0.8633
   53CHL1   H7B 6341   1.033   2.700   9.603  0.8519  0.4379 -1.0362
   53CHL1    C8 6342   0.868   2.823   9.533  0.3517 -0.2131 -0.3688
   53CHL1    H8 6343   0.830   2.926   9.553  1.4843  0.1058  0.2429
   53CHL1   C14 6344   0.922   2.826   9.389 -0.0855 -0.3424  0.0272
   53CHL1   H14 6345   0.952   2.721   9.371 -0.1701 -0.0102 -2.3473
   53CHL1   C15 6346   1.042   2.912   9.356  0.1324  0.3510 -0.0844
   53CHL1  H15A 6347   1.038   3.018   9.388 -0.3956  0.6134 -0.9863
   53CHL1  H15B 6348   1.135   2.867   9.397  0.5385  1.5631  0.3570
   53CHL1   C16 6349   1.049   2.914   9.205  0.1818  0.4251 -0.4619
   53CHL1  H16A 6350   1.040   3.017   9.164 -1.1700 -0.1192 -1.6313
   53CHL1  H16B 6351   1.134   2.861   9.155 -0.8929 -1.9242  0.0579
   53CHL1   C17 6352   0.911   2.842   9.157  0.7658 -0.1584  0.2627
   53CHL1   H17 6353   0.944   2.736   9.146  2.5009  0.0157  2.8332
   53CHL1   C13 6354   0.822   2.854   9.282  0.0222 -0.3246  1.0217
   53CHL1   C18 6355   0.766   3.001   9.289 -0.7032  0.7941  0.1986
   53CHL1  H18A 6356   0.834   3.078   9.249 -1.7462  1.5791 -0.1215
   53CHL1  H18B 6357   0.679   3.009   9.220  1.0040 -2.1108 -2.5232
   53CHL1  H18C 6358   0.727   3.027   9.390  0.8093  1.2500  0.6888
   53CHL1   C12 6359   0.711   2.750   9.300 -0.9528 -0.3786 -0.2461
   53CHL1  H12A 6360   0.634   2.763   9.221  0.0548  1.6815 -0.9874
   53CHL1  H12B 6361   0.751   2.647   9.287 -0.8581 -0.1425 -2.1659
   53CHL1   C11 6362   0.650   2.763   9.446 -0.6310  0.2185  0.1082
   53CHL1  H11A 6363   0.616   2.869   9.449  2.5282  1.3059  1.9569
   53CHL1  H11B 6364   0.563   2.696   9.457 -0.7180  0.0972 -1.1474
   53CHL1    C9 6365   0.749   2.730   9.557  0.5224 -0.2117 -0.3282
   53CHL1    H9 6366   0.779   2.625   9.537 -1.3786 -0.7578 -0.5323
   53CHL1   C10 6367   0.696   2.733   9.706  0.5975 -0.5559 -0.7071
   53CHL1   C19 6368   0.601   2.856   9.711  0.0455 -0.6408  0.0251
   53CHL1  H19A 6369   0.655   2.947   9.677  2.6510 -1.7116  1.0562
   53CHL1  H19B 6370   0.508   2.852   9.651 -1.2018  2.2637  1.5391
   53CHL1  H19C 6371   0.575   2.877   9.817 -1.4762  0.5083 -0.5341
   53CHL1    C1 6372   0.604   2.612   9.731 -0.3362 -0.0187 -0.6889
   53CHL1   H1A 6373   0.512   2.622   9.671 -1.3893  2.8257  1.1977
   53CHL1   H1B 6374   0.657   2.518   9.704 -0.1145 -0.9690  2.5370
   53CHL1    C2 6375   0.559   2.600   9.878  0.6829  0.0099  0.1803
   53CHL1   H2A 6376   0.510   2.501   9.893  1.4192 -0.3241  0.3938
   53CHL1   H2B 6377   0.482   2.678   9.892  1.6367  1.1010 -0.5041
   53CHL1   C20 6378   0.866   2.895   9.019 -0.4619 -0.4591 -0.4448
   53CHL1   H20 6379   0.823   2.997   9.028  0.2088 -0.2521  0.6034
   53CHL1   C21 6380   0.760   2.792   8.971 -0.1641  0.6091 -0.5541
   53CHL1  H21A 6381   0.788   2.691   9.007 -0.3087  0.9086  0.4239
   53CHL1  H21B 6382   0.755   2.792   8.860 -0.1890  1.4260 -0.5573
   53CHL1  H21C 6383   0.656   2.823   8.994 -1.1490 -1.5508 -1.7575
   53CHL1   C22 6384   0.980   2.897   8.914  0.1778  0.2302 -0.1882
   53CHL1  H22A 6385   1.062   2.954   8.962 -0.0929 -0.3069  0.9558
   53CHL1  H22B 6386   1.016   2.792   8.904 -1.6101 -0.3547 -0.9419
   53CHL1   C23 6387   0.947   2.944   8.770 -0.3097 -0.1941 -0.0629
   53CHL1  H23A 6388   0.851   2.910   8.726 -0.7589 -0.2089  0.8967
   53CHL1  H23B 6389   0.937   3.054   8.784  0.0476 -0.1863  0.1509
   53CHL1   C24 6390   1.068   2.902   8.673 -0.4572 -0.5342 -0.5568
   53CHL1  H24A 6391   1.163   2.934   8.722  0.1471 -1.8171 -0.8705
   53CHL1  H24B 6392   1.073   2.791   8.673  1.6777 -0.4864  1.2798
   53CHL1   C25 6393   1.055   2.955   8.534  0.3487 -0.5339  0.5097
   53CHL1   H25 6394   0.965   2.908   8.488 -0.8916  0.6227  1.6772
   53CHL1   C26 6395   1.038   3.109   8.521  0.3345 -0.3464 -0.3436
   53CHL1  H26A 6396   0.933   3.133   8.547  0.1841 -0.8892 -0.4457
   53CHL1  H26B 6397   1.108   3.170   8.582  0.8793  0.4332 -1.6916
   53CHL1  H26C 6398   1.049   3.133   8.413  1.6158 -1.0988 -0.3937
   53CHL1   C27 6399   1.173   2.913   8.451 -0.0351 -0.2614 -0.7468
   53CHL1  H27A 6400   1.190   2.803   8.456  1.3725 -0.0124  0.6473
   53CHL1  H27B 6401   1.160   2.951   8.347 -2.2411 -1.2726 -0.9118
   53CHL1  H27C 6402   1.267   2.953   8.494 -0.1296 -0.5103 -0.3016
   54CHL1    C3 6403   0.636   6.517  10.168  0.0922  0.7937  0.6025
   54CHL1    H3 6404   0.722   6.564  10.116  0.6818 -2.2435 -1.4548
   54CHL1    O3 6405   0.640   6.525  10.313 -0.2054 -0.4015  0.0842
   54CHL1   H3' 6406   0.567   6.468  10.338 -0.1219 -0.9205 -0.8259
   54CHL1    C4 6407   0.498   6.581  10.112 -0.9394  0.0983 -0.9146
   54CHL1   H4A 6408   0.404   6.540  10.155 -2.3763  1.4656 -2.6253
   54CHL1   H4B 6409   0.500   6.685  10.151 -0.5434 -0.5278  0.8264
   54CHL1    C5 6410   0.494   6.572   9.957 -0.0905  0.3701 -0.4743
   54CHL1    C6 6411   0.485   6.679   9.887  0.4730  0.2480 -0.6095
   54CHL1    H6 6412   0.484   6.779   9.933  0.6426  0.4900 -1.1334
   54CHL1    C7 6413   0.464   6.673   9.739  0.8860  0.1747  0.1887
   54CHL1   H7A 6414   0.368   6.726   9.719 -0.2734 -1.5660  0.8959
   54CHL1   H7B 6415   0.548   6.719   9.683  1.2558 -1.8949 -1.0478
   54CHL1    C8 6416   0.434   6.529   9.689  0.0906 -0.3541 -0.9403
   54CHL1    H8 6417   0.326   6.505   9.702  0.6280 -1.3704  2.7925
   54CHL1   C14 6418   0.457   6.528   9.536 -0.1099 -0.8567  0.0398
   54CHL1   H14 6419   0.565   6.550   9.518 -0.1112 -0.4084  0.5966
   54CHL1   C15 6420   0.385   6.642   9.455 -0.2070  0.2500  0.1724
   54CHL1  H15A 6421   0.283   6.661   9.494 -0.0980  1.7197 -0.1768
   54CHL1  H15B 6422   0.442   6.738   9.460  0.2395  0.0648 -1.0286
   54CHL1   C16 6423   0.370   6.585   9.318 -0.8700  0.3259 -0.1095
   54CHL1  H16A 6424   0.266   6.566   9.285 -1.3154 -1.1512  1.9363
   54CHL1  H16B 6425   0.423   6.647   9.243  0.6751 -0.8103 -0.0025
   54CHL1   C17 6426   0.440   6.437   9.323  0.8066 -0.2681 -0.0982
   54CHL1   H17 6427   0.547   6.457   9.301  0.8421  0.1357  0.4412
   54CHL1   C13 6428   0.425   6.390   9.471 -0.1670 -0.5493  0.5279
   54CHL1   C18 6429   0.282   6.337   9.494  0.1716 -0.1470 -0.3329
   54CHL1  H18A 6430   0.196   6.405   9.476  0.8599  0.5045 -1.2312
   54CHL1  H18B 6431   0.259   6.247   9.433  0.6594 -2.4681  2.6715
   54CHL1  H18C 6432   0.266   6.305   9.600 -0.6436 -0.3513 -0.5066
   54CHL1   C12 6433   0.531   6.290   9.528  0.7068  0.3985  0.8258
   54CHL1  H12A 6434   0.535   6.190   9.481 -1.7715  0.6503 -0.0985
   54CHL1  H12B 6435   0.635   6.323   9.510  1.2670 -1.6416 -0.0010
   54CHL1   C11 6436   0.522   6.286   9.686  0.3638 -0.4933 -0.7807
   54CHL1  H11A 6437   0.430   6.234   9.721  0.2070 -1.3062 -2.3541
   54CHL1  H11B 6438   0.607   6.230   9.731  0.4161  0.8980  0.9631
   54CHL1    C9 6439   0.527   6.430   9.754  0.9349  0.0772  0.3032
   54CHL1    H9 6440   0.634   6.452   9.733  1.6033 -2.5403  0.6374
   54CHL1   C10 6441   0.503   6.426   9.906  0.4063 -0.1986 -0.4127
   54CHL1   C19 6442   0.374   6.352   9.951  0.0418 -0.6166 -0.2058
   54CHL1  H19A 6443   0.280   6.394   9.909  0.1918 -1.7462 -1.7643
   54CHL1  H19B 6444   0.378   6.253   9.901  0.6807 -0.6013 -0.1943
   54CHL1  H19C 6445   0.376   6.348  10.062 -0.7614 -0.8943 -0.1937
   54CHL1    C1 6446   0.626   6.354   9.961 -0.5187  0.1296  0.0568
   54CHL1   H1A 6447   0.635   6.243   9.953  3.7718 -0.0069  3.3405
   54CHL1   H1B 6448   0.720   6.400   9.924  0.0342  0.5847  1.9383
   54CHL1    C2 6449   0.643   6.366  10.116  0.2008  0.3776  0.2489
   54CHL1   H2A 6450   0.745   6.335  10.147  0.2442  0.5144  0.2410
   54CHL1   H2B 6451   0.565   6.305  10.167  0.5501 -1.2894 -1.1022
   54CHL1   C20 6452   0.390   6.343   9.216  0.5119 -0.5014 -0.1615
   54CHL1   H20 6453   0.286   6.308   9.237  0.3954 -1.4122 -2.0736
   54CHL1   C21 6454   0.478   6.220   9.202  0.0484 -0.2979 -0.1902
   54CHL1  H21A 6455   0.437   6.162   9.117 -0.5978 -0.3735  0.1686
   54CHL1  H21B 6456   0.464   6.151   9.288 -0.8477  0.5609  0.3729
   54CHL1  H21C 6457   0.584   6.243   9.176  0.1460  0.0752  0.4964
   54CHL1   C22 6458   0.384   6.422   9.084 -0.2910  0.7303 -0.4880
   54CHL1  H22A 6459   0.306   6.500   9.091 -1.7424 -0.6004 -1.3017
   54CHL1  H22B 6460   0.486   6.454   9.052  0.5068 -1.1448 -0.0119
   54CHL1   C23 6461   0.334   6.336   8.966 -0.0259  0.1437 -0.0817
   54CHL1  H23A 6462   0.403   6.254   8.935  1.2413  0.5368  1.5969
   54CHL1  H23B 6463   0.240   6.286   8.999  0.0125 -2.8551 -3.7374
   54CHL1   C24 6464   0.307   6.423   8.842  0.1752 -0.1557  0.9094
   54CHL1  H24A 6465   0.259   6.521   8.862 -1.3641 -0.3834 -1.4049
   54CHL1  H24B 6466   0.403   6.453   8.795 -0.2215 -0.5121 -0.1538
   54CHL1   C25 6467   0.228   6.352   8.725  0.1226  0.0461  0.1914
   54CHL1   H25 6468   0.286   6.263   8.694 -1.0737 -0.9505  0.7124
   54CHL1   C26 6469   0.090   6.309   8.767 -0.3302  0.0991  0.1857
   54CHL1  H26A 6470   0.014   6.390   8.783  0.6486  0.6746  2.4223
   54CHL1  H26B 6471   0.049   6.245   8.687 -0.9287 -1.4209  1.6456
   54CHL1  H26C 6472   0.095   6.253   8.863 -2.1218  2.6592  1.9466
   54CHL1   C27 6473   0.220   6.440   8.603  0.5243  0.6729  0.0388
   54CHL1  H27A 6474   0.166   6.398   8.516  0.3727 -1.1727  0.9850
   54CHL1  H27B 6475   0.156   6.529   8.622 -0.6150  0.0388 -0.7214
   54CHL1  H27C 6476   0.317   6.474   8.560  0.0180 -0.4915 -2.1493
   55CHL1    C3 6477   0.555   0.699  10.364  0.2678  0.2723  0.2757
   55CHL1    H3 6478   0.470   0.768  10.344 -0.0215 -0.8122 -2.6349
   55CHL1    O3 6479   0.627   0.735  10.480  0.0783 -1.3436  0.2634
   55CHL1   H3' 6480   0.694   0.667  10.490  0.8250 -0.7202 -0.3936
   55CHL1    C4 6481   0.485   0.562  10.380 -0.4608  0.1538 -0.3202
   55CHL1   H4A 6482   0.551   0.480  10.417 -1.0874  0.1140  0.7244
   55CHL1   H4B 6483   0.415   0.588  10.462  2.0759  1.7383  1.4934
   55CHL1    C5 6484   0.411   0.513  10.255 -0.2470  0.1633 -0.2753
   55CHL1    C6 6485   0.279   0.474  10.253 -0.3354 -0.4292 -0.1958
   55CHL1    H6 6486   0.222   0.473  10.347 -0.1085  0.8227 -0.0258
   55CHL1    C7 6487   0.203   0.432  10.130  0.6666  0.4816 -0.2592
   55CHL1   H7A 6488   0.137   0.343  10.146  0.6772  0.4367 -0.4681
   55CHL1   H7B 6489   0.137   0.517  10.103  1.1283  0.9381  0.0527
   55CHL1    C8 6490   0.296   0.398  10.020 -0.6231 -0.1035  0.4577
   55CHL1    H8 6491   0.353   0.304  10.040  1.0934  0.0583 -3.0505
   55CHL1   C14 6492   0.208   0.381   9.889  0.0814 -0.4532 -0.4721
   55CHL1   H14 6493   0.171   0.485   9.878  1.0123 -0.1332 -0.7130
   55CHL1   C15 6494   0.080   0.293   9.894 -0.5292  0.4223 -0.3708
   55CHL1  H15A 6495   0.102   0.196   9.944 -3.9811 -1.2129 -1.6473
   55CHL1  H15B 6496   0.003   0.346   9.954 -0.8848 -2.4354  1.9513
   55CHL1   C16 6497   0.051   0.270   9.750 -0.2610 -0.7971 -0.0879
   55CHL1  H16A 6498   0.051   0.159   9.741  1.2072 -0.9849  1.6551
   55CHL1  H16B 6499  -0.047   0.311   9.717  0.4720 -0.2948 -1.7456
   55CHL1   C17 6500   0.156   0.341   9.671 -0.7275 -0.6737  0.1310
   55CHL1   H17 6501   0.123   0.446   9.659 -1.6397 -0.2641  4.5413
   55CHL1   C13 6502   0.280   0.356   9.763 -0.1518  0.1671  0.0984
   55CHL1   C18 6503   0.345   0.217   9.779 -0.2969  0.1403 -0.6919
   55CHL1  H18A 6504   0.425   0.218   9.856 -1.3814 -0.1390  0.4777
   55CHL1  H18B 6505   0.276   0.142   9.823  0.3999  0.7214  1.5609
   55CHL1  H18C 6506   0.401   0.190   9.687 -2.3635 -0.2912 -1.9013
   55CHL1   C12 6507   0.378   0.472   9.741 -0.1403  0.1711 -0.5517
   55CHL1  H12A 6508   0.443   0.447   9.655  1.7436 -1.2650  1.1689
   55CHL1  H12B 6509   0.320   0.567   9.739 -1.1554 -0.4067  0.3943
   55CHL1   C11 6510   0.475   0.480   9.862  0.1568 -0.6667 -0.1151
   55CHL1  H11A 6511   0.540   0.390   9.868 -0.0270 -0.6918  2.9100
   55CHL1  H11B 6512   0.539   0.570   9.848 -0.2225 -0.1046  1.5601
   55CHL1    C9 6513   0.398   0.504   9.997 -0.4871  0.5385  0.3625
   55CHL1    H9 6514   0.344   0.600   9.988 -1.9766 -0.4214 -1.7203
   55CHL1   C10 6515   0.491   0.515  10.124  0.3611  0.4560  0.2037
   55CHL1   C19 6516   0.587   0.404  10.129 -0.2148 -0.2344 -0.5590
   55CHL1  H19A 6517   0.658   0.398  10.214  0.5191  0.4132 -1.1075
   55CHL1  H19B 6518   0.538   0.305  10.119 -0.4102 -0.2769  0.7586
   55CHL1  H19C 6519   0.654   0.428  10.043  0.8718  0.0421  0.3324
   55CHL1    C1 6520   0.574   0.652  10.118  0.6192  0.4282 -0.5399
   55CHL1   H1A 6521   0.637   0.650  10.027 -0.7041  1.4599 -1.5242
   55CHL1   H1B 6522   0.520   0.748  10.098  2.5678  1.4593 -1.1275
   55CHL1    C2 6523   0.645   0.687  10.249  0.4780  0.0823  0.1114
   55CHL1   H2A 6524   0.706   0.779  10.230  1.5271 -0.7446 -0.6181
   55CHL1   H2B 6525   0.724   0.612  10.270 -0.2987 -0.7378  0.1125
   55CHL1   C20 6526   0.170   0.280   9.531 -0.8211 -0.2797  0.1966
   55CHL1   H20 6527   0.206   0.175   9.534  0.8079  0.2604  0.2375
   55CHL1   C21 6528   0.281   0.350   9.446  0.2987 -0.1025 -0.0682
   55CHL1  H21A 6529   0.276   0.319   9.339  1.2315 -0.3430 -0.0511
   55CHL1  H21B 6530   0.379   0.329   9.494 -0.8134  1.2121  2.9715
   55CHL1  H21C 6531   0.254   0.458   9.437 -0.6506 -0.4399 -1.6171
   55CHL1   C22 6532   0.040   0.287   9.455 -0.1512  0.4410  0.6281
   55CHL1  H22A 6533  -0.036   0.235   9.516  1.4174 -1.2632  1.2224
   55CHL1  H22B 6534  -0.004   0.389   9.449  0.7497  0.7809 -0.5357
   55CHL1   C23 6535   0.041   0.224   9.311  1.0178 -0.5792 -0.6794
   55CHL1  H23A 6536   0.112   0.273   9.241  0.1946  0.5140 -0.7631
   55CHL1  H23B 6537   0.091   0.126   9.330 -0.3414 -0.5428  4.9081
   55CHL1   C24 6538  -0.088   0.224   9.231  0.9217  0.0750  0.8133
   55CHL1  H24A 6539  -0.170   0.193   9.298  1.8728 -2.0420  1.0836
   55CHL1  H24B 6540  -0.118   0.323   9.191  1.4711  0.6708  1.8475
   55CHL1   C25 6541  -0.081   0.129   9.110  0.1325  0.2030 -0.7310
   55CHL1   H25 6542   0.011   0.163   9.057  0.1744  2.1582  0.4778
   55CHL1   C26 6543  -0.059  -0.017   9.156 -0.3920 -0.3683  0.3391
   55CHL1  H26A 6544  -0.131  -0.061   9.228  0.1522 -1.5018  0.2110
   55CHL1  H26B 6545  -0.052  -0.083   9.067 -0.8355  0.9934 -0.7341
   55CHL1  H26C 6546   0.038  -0.024   9.210 -0.1451 -2.0174 -0.2779
   55CHL1   C27 6547  -0.199   0.145   9.019  0.4173  0.2146  0.3704
   55CHL1  H27A 6548  -0.178   0.077   8.934 -0.1650  0.2106  0.2315
   55CHL1  H27B 6549  -0.295   0.110   9.063  0.6717 -1.1708 -0.1534
   55CHL1  H27C 6550  -0.222   0.246   8.978  3.2694  2.1594  3.0810
   56CHL1    C3 6551   0.379   4.400  10.221 -0.2285  0.5464  0.3633
   56CHL1    H3 6552   0.286   4.430  10.168 -0.0334 -2.5185 -2.0121
   56CHL1    O3 6553   0.375   4.468  10.343  0.0260 -0.1867 -0.1312
   56CHL1   H3' 6554   0.460   4.475  10.388  0.0336  1.0292 -0.2969
   56CHL1    C4 6555   0.365   4.237  10.241 -0.4257  0.8498 -0.0022
   56CHL1   H4A 6556   0.447   4.200  10.306  0.2424  1.4553 -0.4818
   56CHL1   H4B 6557   0.265   4.214  10.284 -0.1207  1.0703  0.8290
   56CHL1    C5 6558   0.377   4.179  10.098  0.3221 -0.3173  0.5600
   56CHL1    C6 6559   0.287   4.119  10.024  0.7217 -0.0694  0.1412
   56CHL1    H6 6560   0.187   4.124  10.069  0.7831 -3.8255  0.9740
   56CHL1    C7 6561   0.302   4.053   9.891  0.9984  0.0213  0.1817
   56CHL1   H7A 6562   0.271   3.946   9.897  1.3083 -0.2605 -2.2498
   56CHL1   H7B 6563   0.266   4.114   9.807  0.4154  0.1405  0.5128
   56CHL1    C8 6564   0.458   4.025   9.872 -0.0775 -0.6727 -0.7842
   56CHL1    H8 6565   0.488   3.960   9.957 -3.9815 -0.2342  1.1700
   56CHL1   C14 6566   0.484   3.959   9.743 -0.0912 -0.7235  0.3519
   56CHL1   H14 6567   0.444   4.033   9.670 -0.2664 -0.0509  1.1111
   56CHL1   C15 6568   0.414   3.825   9.712 -0.5577 -0.7272 -0.9588
   56CHL1  H15A 6569   0.432   3.757   9.798  2.0112  2.8997  1.6196
   56CHL1  H15B 6570   0.307   3.826   9.684 -0.2705 -1.1825 -2.1571
   56CHL1   C16 6571   0.499   3.766   9.590 -0.1436 -0.6294 -0.3085
   56CHL1  H16A 6572   0.533   3.662   9.611 -0.0625 -0.5052  0.2038
   56CHL1  H16B 6573   0.429   3.757   9.504  0.2486  3.3196 -1.2032
   56CHL1   C17 6574   0.619   3.864   9.564 -0.1893  0.8524 -0.3323
   56CHL1   H17 6575   0.589   3.941   9.490  1.2889 -0.2948 -2.1963
   56CHL1   C13 6576   0.631   3.940   9.705 -0.1056  0.0806 -0.1870
   56CHL1   C18 6577   0.694   3.840   9.809  0.2003 -0.3906  0.2096
   56CHL1  H18A 6578   0.803   3.831   9.787 -0.0471  1.6329 -2.2531
   56CHL1  H18B 6579   0.695   3.877   9.914  0.7102 -0.0186  0.0730
   56CHL1  H18C 6580   0.651   3.737   9.811 -0.4473 -0.1345 -0.3842
   56CHL1   C12 6581   0.693   4.079   9.702  0.2811 -0.2041 -0.0650
   56CHL1  H12A 6582   0.799   4.077   9.666  0.3122  1.7265 -0.1691
   56CHL1  H12B 6583   0.635   4.146   9.635 -0.5960 -0.7153  0.1661
   56CHL1   C11 6584   0.685   4.142   9.843  0.1447  0.1384  1.0768
   56CHL1  H11A 6585   0.755   4.076   9.899  1.6867 -0.2850 -1.2386
   56CHL1  H11B 6586   0.740   4.238   9.852 -1.4493  0.9472  3.1368
   56CHL1    C9 6587   0.535   4.146   9.894 -0.1794 -0.5459 -0.1110
   56CHL1    H9 6588   0.486   4.219   9.826 -0.2350 -2.1935 -1.9076
   56CHL1   C10 6589   0.520   4.205  10.038  0.1050  0.4933 -0.3907
   56CHL1   C19 6590   0.632   4.143  10.130  0.2253 -0.7478 -0.3670
   56CHL1  H19A 6591   0.634   4.194  10.229 -0.6995 -1.2847 -0.0559
   56CHL1  H19B 6592   0.595   4.039  10.145 -1.1434 -0.2569 -0.1993
   56CHL1  H19C 6593   0.736   4.149  10.091  0.9120 -0.0514  1.4843
   56CHL1    C1 6594   0.536   4.363  10.021  0.2541  0.5471 -0.4594
   56CHL1   H1A 6595   0.642   4.377   9.991  0.4735  1.1044  0.5157
   56CHL1   H1B 6596   0.462   4.402   9.948 -1.4832  0.2010  1.0465
   56CHL1    C2 6597   0.513   4.441  10.154  0.3328  0.0090 -0.2969
   56CHL1   H2A 6598   0.532   4.547  10.127  3.1632 -0.3789 -0.1132
   56CHL1   H2B 6599   0.590   4.412  10.228  0.2178  0.1563 -0.1164
   56CHL1   C20 6600   0.737   3.783   9.511  0.7590  0.4816  0.0357
   56CHL1   H20 6601   0.762   3.711   9.591  0.1637  0.2418  0.0081
   56CHL1   C21 6602   0.861   3.871   9.492  0.2907  0.3186  0.6120
   56CHL1  H21A 6603   0.896   3.923   9.584  0.7647 -1.8096  1.6971
   56CHL1  H21B 6604   0.836   3.959   9.430  2.6314  2.4453  2.4407
   56CHL1  H21C 6605   0.952   3.824   9.449  0.6945 -1.2816  3.0356
   56CHL1   C22 6606   0.698   3.707   9.374  0.2254 -0.7482 -0.3726
   56CHL1  H22A 6607   0.781   3.635   9.355  1.3050  0.8939 -2.2424
   56CHL1  H22B 6608   0.609   3.650   9.409  0.3664  1.4395  4.3196
   56CHL1   C23 6609   0.661   3.798   9.256 -0.1056 -0.3374 -0.1552
   56CHL1  H23A 6610   0.588   3.869   9.301 -1.0715 -0.7522 -1.0154
   56CHL1  H23B 6611   0.755   3.851   9.233 -0.2441 -0.5741 -1.3098
   56CHL1   C24 6612   0.595   3.713   9.144 -0.1491  0.3445  0.2909
   56CHL1  H24A 6613   0.676   3.677   9.077 -1.5211 -3.0804  0.2644
   56CHL1  H24B 6614   0.548   3.625   9.192  2.5320 -1.6074 -0.4189
   56CHL1   C25 6615   0.491   3.783   9.052 -0.0332 -0.0977 -0.8494
   56CHL1   H25 6616   0.543   3.877   9.025  1.5390  0.4878  3.5682
   56CHL1   C26 6617   0.451   3.699   8.931  0.0700  0.2594  0.2620
   56CHL1  H26A 6618   0.374   3.743   8.866 -0.1926  0.1353  0.4873
   56CHL1  H26B 6619   0.533   3.669   8.861  0.5719 -1.8987  1.6651
   56CHL1  H26C 6620   0.417   3.600   8.968 -1.0902  1.4406  2.5980
   56CHL1   C27 6621   0.367   3.822   9.139 -0.0647 -0.0828  0.6754
   56CHL1  H27A 6622   0.316   3.729   9.171  1.0949 -1.5859 -1.6396
   56CHL1  H27B 6623   0.388   3.889   9.225 -0.8346 -0.8175  1.4541
   56CHL1  H27C 6624   0.298   3.870   9.066 -0.1230  0.1549  0.8853
   57CHL1    C3 6625   1.818   1.308  10.114  0.4787  0.4709 -0.1174
   57CHL1    H3 6626   1.885   1.223  10.089  0.3665 -0.0038  1.1296
   57CHL1    O3 6627   1.828   1.310  10.255  0.1706 -0.1034 -0.1530
   57CHL1   H3' 6628   1.743   1.345  10.284 -1.5623 -1.6929 -2.8444
   57CHL1    C4 6629   1.875   1.443  10.063  0.7448 -0.4905  0.5799
   57CHL1   H4A 6630   1.823   1.526  10.115  0.2465  0.8075 -1.8282
   57CHL1   H4B 6631   1.983   1.439  10.091  0.7920 -1.0192  0.3387
   57CHL1    C5 6632   1.856   1.471   9.918  0.5120 -0.2018 -0.2519
   57CHL1    C6 6633   1.957   1.520   9.839 -0.6137  0.7952  0.2803
   57CHL1    H6 6634   2.058   1.527   9.884 -0.2183 -1.7989 -0.0223
   57CHL1    C7 6635   1.947   1.555   9.691  0.0704  0.4244  0.3997
   57CHL1   H7A 6636   1.980   1.660   9.675 -1.3600  1.0121  1.1704
   57CHL1   H7B 6637   2.007   1.483   9.631 -1.1921 -1.5156  1.3647
   57CHL1    C8 6638   1.800   1.548   9.641 -0.6491  0.0112  0.6244
   57CHL1    H8 6639   1.762   1.648   9.669 -1.0978  0.7369 -2.2968
   57CHL1   C14 6640   1.799   1.525   9.492 -0.4847  0.4334 -0.4019
   57CHL1   H14 6641   1.837   1.421   9.481  2.1387  1.1540  0.8365
   57CHL1   C15 6642   1.897   1.603   9.410  0.1198 -0.0031 -0.1341
   57CHL1  H15A 6643   1.917   1.708   9.442 -0.3210 -0.4966  1.8801
   57CHL1  H15B 6644   1.992   1.547   9.395  1.0365  1.3413  0.4739
   57CHL1   C16 6645   1.844   1.606   9.262  0.2518  0.1527  0.1227
   57CHL1  H16A 6646   1.832   1.704   9.210  1.7186 -0.3210 -1.1483
   57CHL1  H16B 6647   1.906   1.554   9.186 -1.1604 -1.2447 -0.1212
   57CHL1   C17 6648   1.714   1.524   9.272 -0.5073 -0.2898 -0.0547
   57CHL1   H17 6649   1.748   1.420   9.257  2.4666  0.6384 -0.3596
   57CHL1   C13 6650   1.665   1.538   9.419 -0.0493 -0.3507  0.0845
   57CHL1   C18 6651   1.605   1.677   9.442  0.6279  0.5562  0.0271
   57CHL1  H18A 6652   1.666   1.756   9.394  1.0105  0.2297 -0.0329
   57CHL1  H18B 6653   1.505   1.687   9.395  1.0841  0.4694 -0.9856
   57CHL1  H18C 6654   1.609   1.702   9.550 -1.6195 -0.3673  0.3716
   57CHL1   C12 6655   1.574   1.433   9.475  0.9554 -0.4284  0.0188
   57CHL1  H12A 6656   1.469   1.446   9.439  1.3070  0.4155 -0.7402
   57CHL1  H12B 6657   1.600   1.329   9.449  1.4680  0.0650 -1.5450
   57CHL1   C11 6658   1.565   1.444   9.636 -0.0666  0.4879  0.7165
   57CHL1  H11A 6659   1.521   1.543   9.660 -0.5845  0.7214 -1.0503
   57CHL1  H11B 6660   1.500   1.364   9.678 -1.5038 -0.1963 -2.4726
   57CHL1    C9 6661   1.707   1.440   9.701 -0.5578  0.0001  0.0135
   57CHL1    H9 6662   1.763   1.348   9.670  0.8982  0.0664  2.2532
   57CHL1   C10 6663   1.716   1.437   9.857 -0.8678 -0.0170 -0.1874
   57CHL1   C19 6664   1.637   1.561   9.906  0.3369  0.3712 -0.7465
   57CHL1  H19A 6665   1.530   1.539   9.887 -0.0361  0.3645  1.1200
   57CHL1  H19B 6666   1.622   1.569  10.016  0.8080 -3.8218 -0.2128
   57CHL1  H19C 6667   1.659   1.661   9.863 -1.1108  0.5755 -1.0773
   57CHL1    C1 6668   1.659   1.301   9.909 -0.0123 -0.3525 -0.4857
   57CHL1   H1A 6669   1.551   1.289   9.890  0.0508  0.1705 -1.2195
   57CHL1   H1B 6670   1.717   1.224   9.854  0.6550  0.8551 -1.5270
   57CHL1    C2 6671   1.676   1.286  10.062 -0.0212  1.1555 -0.7987
   57CHL1   H2A 6672   1.635   1.187  10.093  1.8205 -0.6995 -3.7452
   57CHL1   H2B 6673   1.619   1.368  10.110  0.0817  1.9622 -2.0202
   57CHL1   C20 6674   1.619   1.552   9.159  0.7687  0.4072  0.4303
   57CHL1   H20 6675   1.565   1.644   9.188 -1.1874  0.4622 -2.8964
   57CHL1   C21 6676   1.512   1.440   9.157 -0.1102  0.0688  0.2144
   57CHL1  H21A 6677   1.420   1.493   9.188  1.3210  3.1808 -0.4491
   57CHL1  H21B 6678   1.516   1.370   9.243 -1.3989 -0.9457 -0.5146
   57CHL1  H21C 6679   1.496   1.386   9.061 -0.2831  1.4356 -0.5460
   57CHL1   C22 6680   1.676   1.584   9.023  0.0678 -0.6167  0.4695
   57CHL1  H22A 6681   1.745   1.672   9.025 -1.5210  0.7726 -1.4490
   57CHL1  H22B 6682   1.727   1.491   8.991 -0.5176 -1.0307  0.7264
   57CHL1   C23 6683   1.583   1.621   8.907  1.0047  0.1468  0.7061
   57CHL1  H23A 6684   1.542   1.525   8.868  0.1904  0.2406  1.2897
   57CHL1  H23B 6685   1.498   1.684   8.942 -0.9861 -3.0392  2.0274
   57CHL1   C24 6686   1.651   1.682   8.783 -0.2758 -0.6329  0.2356
   57CHL1  H24A 6687   1.693   1.780   8.815 -0.9148  0.3923 -1.8845
   57CHL1  H24B 6688   1.740   1.626   8.747 -1.1846 -2.4418  0.6913
   57CHL1   C25 6689   1.559   1.724   8.672  0.1444  0.1956  0.2775
   57CHL1   H25 6690   1.489   1.796   8.718 -1.7026 -1.4465  0.1498
   57CHL1   C26 6691   1.638   1.792   8.561  0.3499  0.0168  0.3088
   57CHL1  H26A 6692   1.581   1.792   8.466  2.8305  0.0526 -1.2850
   57CHL1  H26B 6693   1.675   1.896   8.572  0.1679 -0.0120  1.1864
   57CHL1  H26C 6694   1.730   1.735   8.533  0.6149  0.1242  0.9560
   57CHL1   C27 6695   1.486   1.605   8.613 -0.3347 -0.0502  0.0128
   57CHL1  H27A 6696   1.554   1.548   8.546 -1.5804  0.0378 -1.3814
   57CHL1  H27B 6697   1.433   1.549   8.693 -0.3467  0.7987  0.6181
   57CHL1  H27C 6698   1.416   1.646   8.537 -0.5852 -2.1566 -0.9828
   58CHL1    C3 6699   6.024   4.915  10.311  0.5229  0.2284 -0.1691
   58CHL1    H3 6700   5.978   5.016  10.323 -0.7794 -0.0671 -2.3032
   58CHL1    O3 6701   6.065   4.855  10.431  0.8744  0.3232  0.0618
   58CHL1   H3' 6702   6.083   4.764  10.407  0.2224 -0.0992  1.0834
   58CHL1    C4 6703   5.922   4.820  10.246 -0.3938 -0.1458  1.2827
   58CHL1   H4A 6704   5.967   4.718  10.240 -0.6322 -0.1645 -2.2393
   58CHL1   H4B 6705   5.830   4.815  10.309 -1.2078  0.1112  0.1435
   58CHL1    C5 6706   5.891   4.852  10.098 -0.3758 -0.1484 -0.8867
   58CHL1    C6 6707   5.767   4.846  10.057 -0.8095 -0.6694 -0.0360
   58CHL1    H6 6708   5.687   4.834  10.131 -1.3748 -1.5656 -0.7733
   58CHL1    C7 6709   5.736   4.868   9.912  1.5149 -0.1979  0.8255
   58CHL1   H7A 6710   5.669   4.783   9.887  0.6264  0.7353 -0.0363
   58CHL1   H7B 6711   5.675   4.960   9.895  0.4618 -1.0724 -0.3220
   58CHL1    C8 6712   5.856   4.863   9.815 -1.4515  0.4065  0.9660
   58CHL1    H8 6713   5.886   4.757   9.802  0.6932  0.5825  3.6022
   58CHL1   C14 6714   5.829   4.924   9.679  0.0259 -0.1701 -0.2254
   58CHL1   H14 6715   5.827   5.032   9.700  0.2777 -0.1739 -0.1784
   58CHL1   C15 6716   5.691   4.894   9.618 -0.3335  0.0573  1.1297
   58CHL1  H15A 6717   5.653   4.792   9.637 -0.1156  0.0310  1.4286
   58CHL1  H15B 6718   5.613   4.961   9.662 -0.6478  0.0317  0.6250
   58CHL1   C16 6719   5.721   4.920   9.462  0.3636 -0.5865 -0.7995
   58CHL1  H16A 6720   5.688   4.834   9.401 -0.6067  0.1970 -1.3939
   58CHL1  H16B 6721   5.654   5.002   9.429  0.2621  0.3929  1.6204
   58CHL1   C17 6722   5.871   4.968   9.447  0.6594  0.0053 -0.8182
   58CHL1   H17 6723   5.876   5.077   9.469 -1.8981  0.0474 -0.2190
   58CHL1   C13 6724   5.941   4.901   9.575  0.5938  0.0363  0.1887
   58CHL1   C18 6725   5.959   4.745   9.532 -0.4070 -0.8781 -0.6129
   58CHL1  H18A 6726   5.860   4.704   9.504 -0.4999 -0.6072 -0.6895
   58CHL1  H18B 6727   6.036   4.736   9.452 -0.3089 -0.8794 -0.5169
   58CHL1  H18C 6728   5.986   4.694   9.626  2.3218  2.1490  0.4247
   58CHL1   C12 6729   6.072   4.958   9.628  0.2087 -0.2211  0.1087
   58CHL1  H12A 6730   6.155   4.939   9.556  0.2307 -0.1826  0.1236
   58CHL1  H12B 6731   6.068   5.069   9.622  0.5953 -0.2696 -1.9375
   58CHL1   C11 6732   6.101   4.921   9.776  0.0158  0.6092  0.4501
   58CHL1  H11A 6733   6.145   4.819   9.777 -2.5756 -0.6071  0.8296
   58CHL1  H11B 6734   6.186   4.990   9.793  0.8761 -0.2511 -0.3038
   58CHL1    C9 6735   5.983   4.925   9.872  0.6039 -0.6735  0.2511
   58CHL1    H9 6736   5.945   5.029   9.878 -0.3617 -1.0312  0.6469
   58CHL1   C10 6737   6.012   4.875  10.012  0.0584 -0.1232  0.4274
   58CHL1   C19 6738   6.090   4.739  10.004  0.2612 -0.4550 -0.5487
   58CHL1  H19A 6739   6.194   4.751   9.966  0.5923  0.8016  0.6851
   58CHL1  H19B 6740   6.116   4.692  10.102  1.1824  3.0744  1.0525
   58CHL1  H19C 6741   6.042   4.655   9.950 -1.4558  1.6213 -2.4231
   58CHL1    C1 6742   6.097   4.983  10.088  1.3012  0.6106 -0.1032
   58CHL1   H1A 6743   6.180   5.002  10.017  0.3767 -1.9887 -2.0588
   58CHL1   H1B 6744   6.044   5.080  10.099  0.1299 -0.0955  0.7480
   58CHL1    C2 6745   6.151   4.934  10.229 -0.4854 -0.1612 -0.0619
   58CHL1   H2A 6746   6.218   5.013  10.269 -0.8127  0.2955 -0.3993
   58CHL1   H2B 6747   6.212   4.845  10.205 -0.3736  0.0257 -0.4950
   58CHL1   C20 6748   5.927   4.942   9.308  0.3143 -0.2257 -0.2914
   58CHL1   H20 6749   5.939   4.835   9.281 -0.1475 -0.2614 -0.3602
   58CHL1   C21 6750   6.063   5.014   9.286 -0.1542  0.1639 -0.1251
   58CHL1  H21A 6751   6.066   5.123   9.306 -0.1905  0.2083 -0.3523
   58CHL1  H21B 6752   6.091   4.999   9.180 -0.9345  1.6411 -0.5755
   58CHL1  H21C 6753   6.140   4.962   9.347 -1.4740 -0.2441  1.2713
   58CHL1   C22 6754   5.821   4.989   9.199 -0.0554  0.4935 -0.5658
   58CHL1  H22A 6755   5.868   4.971   9.101  0.3853  0.7140 -0.3964
   58CHL1  H22B 6756   5.731   4.925   9.197  0.6224 -0.4630 -0.8710
   58CHL1   C23 6757   5.766   5.137   9.201 -0.0876 -0.0649  0.3540
   58CHL1  H23A 6758   5.689   5.152   9.280  1.4604 -1.6229  2.2854
   58CHL1  H23B 6759   5.842   5.214   9.226 -0.5004 -0.3002  2.6154
   58CHL1   C24 6760   5.700   5.178   9.067  0.0226  0.2163 -0.3916
   58CHL1  H24A 6761   5.752   5.137   8.977  0.6674  2.5903 -1.1546
   58CHL1  H24B 6762   5.598   5.136   9.079  0.1669  0.5818  2.7087
   58CHL1   C25 6763   5.688   5.334   9.048 -0.7310 -0.4020 -0.4691
   58CHL1   H25 6764   5.793   5.371   9.054 -0.5268 -0.7763 -1.4252
   58CHL1   C26 6765   5.639   5.364   8.906 -0.1872  0.2029  0.1270
   58CHL1  H26A 6766   5.532   5.333   8.900 -0.5715  1.7197 -1.5974
   58CHL1  H26B 6767   5.636   5.473   8.887  0.5712 -0.1243 -2.1721
   58CHL1  H26C 6768   5.697   5.315   8.825  0.7071  0.2820  0.7117
   58CHL1   C27 6769   5.589   5.405   9.146  0.0696 -0.6828  0.4807
   58CHL1  H27A 6770   5.607   5.368   9.250  0.0765 -0.8862  0.4079
   58CHL1  H27B 6771   5.610   5.514   9.151  0.2114 -0.6660 -0.3823
   58CHL1  H27C 6772   5.483   5.382   9.122 -0.3591  1.6314 -0.0881
   59CHL1    C3 6773   3.560   6.725  10.441  0.7359  0.9531 -0.2161
   59CHL1    H3 6774   3.536   6.826  10.401 -1.8923  0.5421  0.1270
   59CHL1    O3 6775   3.569   6.722  10.587  0.3925  0.2264  0.3863
   59CHL1   H3' 6776   3.551   6.631  10.613  0.5892  0.1616  0.2955
   59CHL1    C4 6777   3.446   6.622  10.407  0.0955  0.1619  0.2244
   59CHL1   H4A 6778   3.472   6.521  10.446 -0.7641 -0.8869 -1.7777
   59CHL1   H4B 6779   3.352   6.659  10.453 -0.1672  1.8436 -1.5533
   59CHL1    C5 6780   3.426   6.606  10.257 -0.1324 -0.7028  0.1171
   59CHL1    C6 6781   3.302   6.610  10.201 -0.6100 -0.8248  0.0553
   59CHL1    H6 6782   3.209   6.634  10.255 -0.0363 -0.6677  0.9981
   59CHL1    C7 6783   3.273   6.604  10.055  0.0385 -0.1044  0.3405
   59CHL1   H7A 6784   3.186   6.538  10.034  0.4212 -0.9804  1.3783
   59CHL1   H7B 6785   3.271   6.702  10.002  1.1180  0.2314  0.8756
   59CHL1    C8 6786   3.395   6.531   9.980  1.0499 -0.4124  0.2956
   59CHL1    H8 6787   3.396   6.422  10.000  0.2459 -0.8068 -1.5921
   59CHL1   C14 6788   3.375   6.537   9.832 -0.7021 -0.1645  0.1187
   59CHL1   H14 6789   3.363   6.643   9.800 -3.0386 -0.3771  0.1092
   59CHL1   C15 6790   3.250   6.472   9.765 -0.6480  0.3175 -0.7148
   59CHL1  H15A 6791   3.234   6.367   9.796 -0.4775 -0.2547 -2.4219
   59CHL1  H15B 6792   3.161   6.535   9.786 -0.5102  0.4509 -0.5229
   59CHL1   C16 6793   3.284   6.453   9.614  0.3519 -0.0309 -0.7899
   59CHL1  H16A 6794   3.277   6.343   9.602  0.6761 -0.0015 -1.3102
   59CHL1  H16B 6795   3.202   6.509   9.563 -0.3947 -0.5953 -0.2250
   59CHL1   C17 6796   3.428   6.497   9.600 -0.2806 -0.0278  0.7223
   59CHL1   H17 6797   3.428   6.606   9.581 -0.8271 -0.2859 -0.9338
   59CHL1   C13 6798   3.491   6.481   9.745  0.1550 -0.0938 -0.3721
   59CHL1   C18 6799   3.521   6.329   9.773  0.2488 -0.0369 -0.1102
   59CHL1  H18A 6800   3.612   6.286   9.726  0.2522  2.2350 -2.3777
   59CHL1  H18B 6801   3.543   6.305   9.880  2.2818  0.9121 -0.2724
   59CHL1  H18C 6802   3.431   6.267   9.755 -1.5638  2.1115  1.0140
   59CHL1   C12 6803   3.611   6.577   9.781 -0.2539 -0.2270 -0.7069
   59CHL1  H12A 6804   3.699   6.538   9.726 -1.5419 -0.2064 -2.9086
   59CHL1  H12B 6805   3.591   6.684   9.759  0.8745  0.1994  0.2751
   59CHL1   C11 6806   3.637   6.565   9.929  0.3420  0.2463 -0.3087
   59CHL1  H11A 6807   3.676   6.462   9.944 -1.2237 -0.3253  0.0447
   59CHL1  H11B 6808   3.713   6.646   9.941  0.0800  0.5391 -0.6050
   59CHL1    C9 6809   3.522   6.600  10.025  0.0075 -0.0619 -0.1316
   59CHL1    H9 6810   3.508   6.710  10.013  1.8218  0.2242 -0.0256
   59CHL1   C10 6811   3.551   6.574  10.177  0.5727  0.4710  0.4647
   59CHL1   C19 6812   3.586   6.422  10.199 -0.0540  0.1484 -0.1653
   59CHL1  H19A 6813   3.586   6.402  10.309 -1.6311  0.8395 -0.0186
   59CHL1  H19B 6814   3.505   6.357  10.160 -0.5222  0.9103 -0.4609
   59CHL1  H19C 6815   3.683   6.390  10.155 -0.1603 -1.8779  0.8985
   59CHL1    C1 6816   3.668   6.673  10.226  0.2522 -0.1073 -0.1712
   59CHL1   H1A 6817   3.757   6.644  10.166  0.3654 -0.4929  0.1759
   59CHL1   H1B 6818   3.638   6.777  10.199 -2.0711 -0.7983 -0.5254
   59CHL1    C2 6819   3.684   6.678  10.372 -0.3742  0.0301 -0.3974
   59CHL1   H2A 6820   3.767   6.748  10.399 -0.9000  0.3119  0.5247
   59CHL1   H2B 6821   3.724   6.580  10.406 -0.7885 -0.6127 -1.6929
   59CHL1   C20 6822   3.492   6.424   9.485 -0.2816 -0.4435  0.8794
   59CHL1   H20 6823   3.481   6.314   9.498 -1.9203 -0.5550 -0.9803
   59CHL1   C21 6824   3.641   6.471   9.468  0.0040  0.0426  0.1079
   59CHL1  H21A 6825   3.709   6.434   9.548 -0.3774  0.9657  0.8860
   59CHL1  H21B 6826   3.638   6.582   9.479  2.4025 -0.0138  2.4428
   59CHL1  H21C 6827   3.674   6.439   9.367 -1.7282 -1.4128 -0.0393
   59CHL1   C22 6828   3.419   6.442   9.346  0.5735 -0.1960  0.5834
   59CHL1  H22A 6829   3.466   6.371   9.275  0.8378  0.0671  0.4932
   59CHL1  H22B 6830   3.316   6.405   9.361 -0.1824  1.6652  0.3222
   59CHL1   C23 6831   3.402   6.580   9.280  0.4780 -0.0373 -0.2034
   59CHL1  H23A 6832   3.360   6.655   9.350  1.8353 -0.1453  0.7662
   59CHL1  H23B 6833   3.506   6.608   9.252  1.0349 -0.3130  1.4878
   59CHL1   C24 6834   3.310   6.575   9.149 -0.6884  0.6100 -0.4037
   59CHL1  H24A 6835   3.368   6.516   9.075 -0.3803  0.4698 -0.0525
   59CHL1  H24B 6836   3.217   6.518   9.168  0.6793 -1.3381  0.8328
   59CHL1   C25 6837   3.267   6.712   9.095  0.5115 -0.1303 -0.5623
   59CHL1   H25 6838   3.197   6.763   9.165 -0.0028 -2.1093  0.4309
   59CHL1   C26 6839   3.383   6.808   9.077  0.7522  0.7101 -0.4709
   59CHL1  H26A 6840   3.340   6.903   9.038 -1.8887  0.5535  1.7265
   59CHL1  H26B 6841   3.434   6.831   9.173  0.6589  2.7480 -0.8534
   59CHL1  H26C 6842   3.460   6.752   9.020 -0.4028 -1.7882  0.2758
   59CHL1   C27 6843   3.187   6.707   8.964 -0.3418 -0.0197 -0.0655
   59CHL1  H27A 6844   3.252   6.672   8.881 -0.2903  0.3580 -0.1862
   59CHL1  H27B 6845   3.101   6.637   8.970  0.0595 -0.5398 -0.2687
   59CHL1  H27C 6846   3.152   6.810   8.944  0.0706  0.1932  0.2984
   60CHL1    C3 6847   6.672   5.305  10.273 -0.4501  0.4950 -0.0909
   60CHL1    H3 6848   6.753   5.369  10.231  0.5378 -0.3559  0.4945
   60CHL1    O3 6849   6.668   5.304  10.412 -0.2811 -0.2450 -0.5255
   60CHL1   H3' 6850   6.602   5.239  10.437 -0.3085  1.1043  3.6394
   60CHL1    C4 6851   6.534   5.334  10.221 -0.1849 -0.6306  0.7785
   60CHL1   H4A 6852   6.469   5.258  10.270 -3.0215  0.8782 -0.4118
   60CHL1   H4B 6853   6.504   5.438  10.248  1.2832  0.5825 -1.8477
   60CHL1    C5 6854   6.528   5.317  10.069 -0.2671 -0.5371  0.0916
   60CHL1    C6 6855   6.480   5.413   9.988 -0.2816 -0.3175  0.0109
   60CHL1    H6 6856   6.437   5.509  10.022  1.8810  0.7694 -0.1904
   60CHL1    C7 6857   6.478   5.411   9.839  0.4695  0.1280  0.9380
   60CHL1   H7A 6858   6.374   5.426   9.801  0.6193 -3.1648 -1.1534
   60CHL1   H7B 6859   6.549   5.489   9.804  0.3338 -0.9134 -1.9584
   60CHL1    C8 6860   6.503   5.266   9.786 -0.4858  0.3425 -0.2600
   60CHL1    H8 6861   6.409   5.208   9.798 -0.3408  0.2937  0.7704
   60CHL1   C14 6862   6.539   5.269   9.630  0.1385 -0.0680  0.2678
   60CHL1   H14 6863   6.632   5.328   9.620 -0.2824  0.2843 -2.0759
   60CHL1   C15 6864   6.429   5.349   9.551  0.8538  0.0880  0.3974
   60CHL1  H15A 6865   6.329   5.313   9.584  0.9492  1.0356  1.8040
   60CHL1  H15B 6866   6.438   5.460   9.548  2.2378 -0.0192 -0.1835
   60CHL1   C16 6867   6.449   5.290   9.411 -0.2892  0.1502 -0.0970
   60CHL1  H16A 6868   6.347   5.269   9.371 -0.2824  0.7572 -0.4456
   60CHL1  H16B 6869   6.484   5.373   9.346 -0.2695 -0.7124 -1.2127
   60CHL1   C17 6870   6.550   5.178   9.426 -0.1175  0.0756 -0.5922
   60CHL1   H17 6871   6.650   5.220   9.402 -0.2871 -0.2413 -1.9394
   60CHL1   C13 6872   6.555   5.128   9.570 -0.5212 -0.3591  0.5861
   60CHL1   C18 6873   6.430   5.036   9.596 -0.2198 -0.0750  0.4231
   60CHL1  H18A 6874   6.406   5.015   9.703 -0.4651 -1.9095  0.0552
   60CHL1  H18B 6875   6.343   5.093   9.560  0.6790 -0.2104 -2.1686
   60CHL1  H18C 6876   6.423   4.937   9.545  0.6365 -0.3049  0.7159
   60CHL1   C12 6877   6.691   5.073   9.624 -0.1262  0.4738  0.3118
   60CHL1  H12A 6878   6.712   4.971   9.587  1.6838  0.6003  0.8870
   60CHL1  H12B 6879   6.770   5.148   9.601  0.4633  0.5512  2.3613
   60CHL1   C11 6880   6.671   5.061   9.778 -0.0528  0.3111 -0.1270
   60CHL1  H11A 6881   6.619   4.965   9.797 -1.4631  1.1385  0.3231
   60CHL1  H11B 6882   6.778   5.051   9.805  0.4731 -0.9928 -2.3798
   60CHL1    C9 6883   6.619   5.191   9.856 -0.1066  0.3861 -0.6196
   60CHL1    H9 6884   6.708   5.257   9.844  1.5653 -1.8879 -1.6644
   60CHL1   C10 6885   6.588   5.177  10.007 -0.5352 -0.2590 -0.8202
   60CHL1   C19 6886   6.482   5.068  10.022  0.4701 -0.3897  0.0667
   60CHL1  H19A 6887   6.440   5.061  10.125  0.1823 -1.7580 -0.1363
   60CHL1  H19B 6888   6.397   5.093   9.956  2.3637  0.1637 -2.3026
   60CHL1  H19C 6889   6.516   4.968   9.989 -0.5784 -0.2900 -1.3836
   60CHL1    C1 6890   6.716   5.132  10.081 -0.3858 -0.2440  0.5606
   60CHL1   H1A 6891   6.735   5.025  10.061 -0.2752 -0.0676 -0.3231
   60CHL1   H1B 6892   6.803   5.195  10.051 -0.3260 -1.4924 -2.1683
   60CHL1    C2 6893   6.719   5.159  10.231  0.2604 -0.1489 -0.2020
   60CHL1   H2A 6894   6.825   5.149  10.263  0.7643  0.3304 -1.6595
   60CHL1   H2B 6895   6.655   5.079  10.277 -0.1022  0.7683  0.9391
   60CHL1   C20 6896   6.533   5.072   9.316  0.2560 -0.7669  0.6445
   60CHL1   H20 6897   6.436   5.020   9.328  0.2740 -0.4110  2.6198
   60CHL1   C21 6898   6.643   4.965   9.319 -0.3961  0.2442  0.0736
   60CHL1  H21A 6899   6.739   5.021   9.318 -0.1330 -0.2042 -0.2389
   60CHL1  H21B 6900   6.641   4.893   9.234 -0.9948 -2.0335  1.9298
   60CHL1  H21C 6901   6.630   4.903   9.410  1.6448  2.0043  1.6326
   60CHL1   C22 6902   6.524   5.128   9.170 -0.4491  0.2237  0.4222
   60CHL1  H22A 6903   6.524   5.040   9.102  0.7874 -1.3352  2.3357
   60CHL1  H22B 6904   6.426   5.175   9.148 -0.6489  0.7511  2.2734
   60CHL1   C23 6905   6.646   5.207   9.121 -0.2865 -0.2613  0.3268
   60CHL1  H23A 6906   6.634   5.305   9.172 -0.0083 -0.8579  1.5816
   60CHL1  H23B 6907   6.740   5.171   9.168  1.9425  1.5023 -2.4677
   60CHL1   C24 6908   6.664   5.217   8.973 -0.3457 -0.8226  0.3174
   60CHL1  H24A 6909   6.669   5.118   8.922  0.6236  0.3472 -1.9853
   60CHL1  H24B 6910   6.574   5.274   8.942 -0.5415 -1.0775  0.4117
   60CHL1   C25 6911   6.793   5.299   8.924  0.4151  0.6900 -0.3359
   60CHL1   H25 6912   6.830   5.349   9.016  0.9220  1.1580 -0.7825
   60CHL1   C26 6913   6.906   5.205   8.886  0.3753 -0.2279 -0.2751
   60CHL1  H26A 6914   6.995   5.262   8.851  0.4326 -0.5902 -0.7259
   60CHL1  H26B 6915   6.924   5.148   8.980  0.3361 -1.2830 -0.8992
   60CHL1  H26C 6916   6.871   5.133   8.809 -2.0256  0.7997 -0.2480
   60CHL1   C27 6917   6.752   5.402   8.814  0.0694 -0.0010  0.4833
   60CHL1  H27A 6918   6.841   5.455   8.775  1.4768 -1.2177  1.8887
   60CHL1  H27B 6919   6.698   5.341   8.739  0.2852 -1.6666  1.6209
   60CHL1  H27C 6920   6.677   5.475   8.851  0.2965  1.6549 -2.1348
   61CHL1    C3 6921   2.853   4.687  10.317  0.0420 -0.0869  0.2972
   61CHL1    H3 6922   2.770   4.761  10.330  0.4503  0.3987  0.1632
   61CHL1    O3 6923   2.912   4.663  10.450  0.4154 -0.2698  0.3502
   61CHL1   H3' 6924   2.914   4.748  10.496  1.9395 -0.4384  0.6585
   61CHL1    C4 6925   2.804   4.556  10.254 -0.2546 -0.3589 -0.2976
   61CHL1   H4A 6926   2.872   4.477  10.291  0.5303  0.3677 -0.1534
   61CHL1   H4B 6927   2.715   4.530  10.316 -0.4144  0.1020 -0.3313
   61CHL1    C5 6928   2.776   4.563  10.104  0.3043 -0.1521 -0.1120
   61CHL1    C6 6929   2.653   4.528  10.057 -0.1225 -0.3284 -0.4037
   61CHL1    H6 6930   2.578   4.483  10.123 -1.8546  1.2650 -1.1800
   61CHL1    C7 6931   2.619   4.523   9.909  0.5715  0.2226 -0.5180
   61CHL1   H7A 6932   2.582   4.422   9.883  0.8456 -0.5493  1.8844
   61CHL1   H7B 6933   2.535   4.595   9.896  0.0081 -0.5511 -1.2266
   61CHL1    C8 6934   2.748   4.544   9.819  0.8549  0.4101 -0.0039
   61CHL1    H8 6935   2.795   4.443   9.823 -2.2120 -1.1142  0.1719
   61CHL1   C14 6936   2.694   4.586   9.680 -0.4438  0.6084 -0.5086
   61CHL1   H14 6937   2.633   4.678   9.690  0.1741  0.8710  1.2235
   61CHL1   C15 6938   2.600   4.478   9.616 -0.5386 -0.0282 -0.0334
   61CHL1  H15A 6939   2.634   4.378   9.648 -0.2254  0.2856  0.6286
   61CHL1  H15B 6940   2.494   4.469   9.647  0.0412  0.3036  2.1509
   61CHL1   C16 6941   2.625   4.497   9.462 -0.6757  0.0303 -0.6401
   61CHL1  H16A 6942   2.654   4.397   9.422  2.0907  0.1434  0.8041
   61CHL1  H16B 6943   2.535   4.535   9.411 -2.0510 -1.3275  0.6740
   61CHL1   C17 6944   2.744   4.598   9.446 -0.3806  0.1877  0.2649
   61CHL1   H17 6945   2.691   4.696   9.439 -0.1471  0.3595  0.8380
   61CHL1   C13 6946   2.812   4.604   9.584 -0.4671 -0.8084  0.3871
   61CHL1   C18 6947   2.911   4.484   9.586 -0.2673  0.0108  0.3054
   61CHL1  H18A 6948   2.988   4.519   9.514 -1.0868 -0.2364 -0.7232
   61CHL1  H18B 6949   2.945   4.455   9.687 -1.2235  0.6907  0.8432
   61CHL1  H18C 6950   2.860   4.398   9.537  0.2793 -1.4754  2.2482
   61CHL1   C12 6951   2.884   4.734   9.633  0.5075  0.5953  0.8172
   61CHL1  H12A 6952   2.969   4.765   9.568 -0.9519  1.3398 -0.7974
   61CHL1  H12B 6953   2.818   4.823   9.634 -1.1758 -0.5823  0.2173
   61CHL1   C11 6954   2.938   4.712   9.777 -0.8105  0.0193  0.7750
   61CHL1  H11A 6955   3.021   4.639   9.764 -0.1070  1.2213 -2.2579
   61CHL1  H11B 6956   2.989   4.804   9.812  1.8396 -0.1344 -2.2055
   61CHL1    C9 6957   2.830   4.658   9.876  0.0990  0.5361  0.4907
   61CHL1    H9 6958   2.756   4.741   9.885 -0.6496 -0.1333  0.7431
   61CHL1   C10 6959   2.887   4.629  10.016 -0.1813  0.2129  0.1952
   61CHL1   C19 6960   3.006   4.534  10.007 -0.5877 -0.1879  0.2716
   61CHL1  H19A 6961   2.987   4.445   9.943 -2.7555  1.2935 -1.2944
   61CHL1  H19B 6962   3.095   4.587   9.966 -1.1466  1.5368  1.2214
   61CHL1  H19C 6963   3.032   4.489  10.106 -3.3848  0.4147  1.3588
   61CHL1    C1 6964   2.922   4.765  10.079  0.3134  0.1551 -0.2734
   61CHL1   H1A 6965   3.017   4.800  10.032  0.6245  0.9893  0.9280
   61CHL1   H1B 6966   2.842   4.839  10.063 -0.4002 -0.7653 -1.1334
   61CHL1    C2 6967   2.957   4.753  10.227 -0.0228 -0.0490 -0.0787
   61CHL1   H2A 6968   2.985   4.855  10.262 -1.5951 -0.0432  1.3078
   61CHL1   H2B 6969   3.047   4.687  10.228 -0.3212 -0.4650 -0.5852
   61CHL1   C20 6970   2.821   4.570   9.326  0.0299  0.5964 -0.4089
   61CHL1   H20 6971   2.866   4.469   9.322 -0.3502  0.3052  1.4828
   61CHL1   C21 6972   2.919   4.681   9.304  0.3480 -0.2458 -0.1248
   61CHL1  H21A 6973   3.004   4.674   9.375 -0.4155  0.9100  0.9364
   61CHL1  H21B 6974   2.890   4.787   9.324 -1.2642 -0.2886 -1.9723
   61CHL1  H21C 6975   2.973   4.683   9.206  1.6088 -0.2174  0.5518
   61CHL1   C22 6976   2.729   4.573   9.200  0.2340  0.2823  0.1234
   61CHL1  H22A 6977   2.632   4.518   9.207  0.6991 -0.7938 -1.3174
   61CHL1  H22B 6978   2.709   4.681   9.184  2.7645  1.1454  2.1611
   61CHL1   C23 6979   2.804   4.518   9.074 -0.7112 -0.3488 -0.7988
   61CHL1  H23A 6980   2.913   4.541   9.077 -0.5363 -0.8785 -2.0657
   61CHL1  H23B 6981   2.808   4.407   9.086  0.2213 -0.4354 -1.7111
   61CHL1   C24 6982   2.733   4.548   8.938 -0.0336 -0.2498  0.1170
   61CHL1  H24A 6983   2.637   4.494   8.953 -1.2475  1.5356 -0.7860
   61CHL1  H24B 6984   2.716   4.657   8.931  0.0969 -0.2719 -0.6923
   61CHL1   C25 6985   2.800   4.491   8.815 -0.5511  0.0520  0.4772
   61CHL1   H25 6986   2.830   4.386   8.835  1.5741  0.8187  1.6539
   61CHL1   C26 6987   2.702   4.487   8.703 -0.0267 -0.3981 -0.7361
   61CHL1  H26A 6988   2.658   4.589   8.699 -1.8792 -1.0853  0.9092
   61CHL1  H26B 6989   2.750   4.462   8.606  2.6723 -0.4787  0.5180
   61CHL1  H26C 6990   2.615   4.423   8.727 -0.4291 -0.1390 -1.4749
   61CHL1   C27 6991   2.928   4.572   8.776  0.3933  0.1931 -0.4490
   61CHL1  H27A 6992   2.911   4.682   8.778  2.0696  0.4770  0.3859
   61CHL1  H27B 6993   3.019   4.550   8.835 -0.1036 -1.0523 -0.1202
   61CHL1  H27C 6994   2.943   4.528   8.675 -2.5104 -3.3933  0.4525
   62CHL1    C3 6995   0.139   2.016  10.165  0.9977 -0.1307  0.1388
   62CHL1    H3 6996   0.035   2.054  10.154  1.3523  0.6290 -0.8403
   62CHL1    O3 6997   0.175   1.998  10.301 -0.5413  0.0918 -0.0621
   62CHL1   H3' 6998   0.102   1.952  10.342  0.6299 -2.5929 -0.7719
   62CHL1    C4 6999   0.147   1.879  10.094 -0.3218 -0.1047  0.0504
   62CHL1   H4A 7000   0.245   1.829  10.113  0.1908  0.9306  0.1666
   62CHL1   H4B 7001   0.078   1.809  10.147  1.2180 -2.4850 -0.9320
   62CHL1    C5 7002   0.116   1.882   9.943 -0.1268  0.4128  0.2783
   62CHL1    C6 7003   0.018   1.808   9.888 -0.1238  0.4235  0.0425
   62CHL1    H6 7004  -0.037   1.740   9.954  0.7997 -0.5538 -0.1541
   62CHL1    C7 7005  -0.032   1.818   9.749  0.9362  1.2975  0.8188
   62CHL1   H7A 7006  -0.055   1.715   9.714  1.0324  0.4602  3.0174
   62CHL1   H7B 7007  -0.127   1.875   9.749  1.2820  1.8901  0.3758
   62CHL1    C8 7008   0.076   1.880   9.654  1.1766 -0.1131  0.1331
   62CHL1    H8 7009   0.151   1.799   9.644  0.2353 -1.1521  1.1099
   62CHL1   C14 7010   0.009   1.909   9.513  0.3261 -0.0201 -0.3138
   62CHL1   H14 7011  -0.073   1.981   9.530 -0.9935 -1.4434 -0.4105
   62CHL1   C15 7012  -0.068   1.792   9.447 -0.6998 -0.3093 -0.1237
   62CHL1  H15A 7013  -0.012   1.697   9.463  0.1167 -0.1823 -1.9933
   62CHL1  H15B 7014  -0.176   1.793   9.470 -0.3109  0.7828  1.8573
   62CHL1   C16 7015  -0.062   1.830   9.298 -0.5436  0.3040 -0.1258
   62CHL1  H16A 7016  -0.034   1.738   9.243 -1.1582 -0.2979  0.5465
   62CHL1  H16B 7017  -0.163   1.865   9.266  0.4603  2.4751 -1.1298
   62CHL1   C17 7018   0.032   1.958   9.284 -0.0278 -0.1743  0.1623
   62CHL1   H17 7019  -0.038   2.044   9.288  1.4674  1.0335  1.6448
   62CHL1   C13 7020   0.122   1.955   9.413 -0.1958  0.6168 -0.7356
   62CHL1   C18 7021   0.233   1.850   9.400  0.1012  0.4072  0.4143
   62CHL1  H18A 7022   0.296   1.888   9.317 -2.2085 -0.2706 -1.7621
   62CHL1  H18B 7023   0.297   1.853   9.492  1.9089  1.9606 -0.8160
   62CHL1  H18C 7024   0.204   1.745   9.377  2.3611 -0.4517  1.0879
   62CHL1   C12 7025   0.178   2.088   9.475  0.3998 -0.7772 -0.7640
   62CHL1  H12A 7026   0.257   2.130   9.409 -0.6051 -1.2540 -2.3376
   62CHL1  H12B 7027   0.103   2.170   9.481  0.4415 -0.7799 -0.1539
   62CHL1   C11 7028   0.225   2.084   9.622  0.2175 -0.1073 -0.3900
   62CHL1  H11A 7029   0.316   2.021   9.610  0.0208 -0.6279  0.7465
   62CHL1  H11B 7030   0.260   2.180   9.667 -1.2759 -0.2513  1.1789
   62CHL1    C9 7031   0.134   2.009   9.718  0.5742 -0.2740  0.3154
   62CHL1    H9 7032   0.043   2.069   9.739  0.2476 -1.7648  4.1347
   62CHL1   C10 7033   0.198   1.986   9.863  0.0204  0.3202 -0.0415
   62CHL1   C19 7034   0.339   1.931   9.846  0.2382 -0.5336  0.2060
   62CHL1  H19A 7035   0.410   2.006   9.807  0.4459  0.0176  1.6067
   62CHL1  H19B 7036   0.390   1.898   9.939  0.3638 -2.3738 -0.4725
   62CHL1  H19C 7037   0.349   1.839   9.784  1.6523 -0.4698  0.3074
   62CHL1    C1 7038   0.197   2.120   9.939 -0.2702  0.4278 -0.6291
   62CHL1   H1A 7039   0.270   2.190   9.892  0.5167  0.2788  0.3366
   62CHL1   H1B 7040   0.097   2.165   9.923 -0.0684  0.6508 -1.3410
   62CHL1    C2 7041   0.234   2.113  10.091 -0.3114  0.5497  0.1864
   62CHL1   H2A 7042   0.219   2.212  10.139  0.5356 -0.4263  2.6178
   62CHL1   H2B 7043   0.341   2.085  10.108  0.1268  1.8562 -0.3169
   62CHL1   C20 7044   0.104   1.964   9.148 -0.1673  0.3630  0.2123
   62CHL1   H20 7045   0.161   1.869   9.138 -2.6111 -1.0023 -2.2911
   62CHL1   C21 7046   0.208   2.080   9.144  0.2201 -0.0453 -0.3963
   62CHL1  H21A 7047   0.236   2.084   9.037  0.0490 -2.1433 -0.5584
   62CHL1  H21B 7048   0.291   2.053   9.214 -1.5458 -1.8196  1.1309
   62CHL1  H21C 7049   0.164   2.178   9.170 -2.8093 -1.3181 -0.4009
   62CHL1   C22 7050   0.009   1.965   9.026 -0.2245 -0.2880 -0.5188
   62CHL1  H22A 7051  -0.076   1.898   9.050  1.0945 -2.0447 -0.5934
   62CHL1  H22B 7052  -0.044   2.062   9.014  2.5684  1.2903 -0.9906
   62CHL1   C23 7053   0.071   1.909   8.891  0.0928  0.8917  0.4007
   62CHL1  H23A 7054   0.123   1.990   8.837 -0.5989  0.6663 -0.6499
   62CHL1  H23B 7055   0.151   1.837   8.918  1.3918  1.4432 -1.8053
   62CHL1   C24 7056  -0.032   1.827   8.809  0.6620 -0.0999  0.3425
   62CHL1  H24A 7057   0.030   1.767   8.739 -0.3212  0.4684 -1.0498
   62CHL1  H24B 7058  -0.097   1.754   8.862  0.6351 -0.9273 -0.7818
   62CHL1   C25 7059  -0.117   1.915   8.709  0.5329 -0.2089 -0.4440
   62CHL1   H25 7060  -0.178   1.982   8.774 -1.3881 -3.5580  1.4497
   62CHL1   C26 7061  -0.036   1.991   8.602 -0.0052 -0.2098  0.2097
   62CHL1  H26A 7062   0.030   1.923   8.544 -1.3785 -0.5821 -0.9965
   62CHL1  H26B 7063  -0.090   2.059   8.532  1.8020  1.1492  0.0807
   62CHL1  H26C 7064   0.025   2.063   8.660  1.0733 -1.0746  0.1796
   62CHL1   C27 7065  -0.201   1.807   8.644  0.0129 -0.6648 -0.3704
   62CHL1  H27A 7066  -0.146   1.726   8.591 -2.2427 -0.2794 -3.5515
   62CHL1  H27B 7067  -0.264   1.771   8.727  2.8313 -0.5632  1.9816
   62CHL1  H27C 7068  -0.270   1.858   8.573  2.3487  3.3205 -0.0919
   63CHL1    C3 7069   2.226   0.677  10.358  0.5198 -0.6029 -0.4894
   63CHL1    H3 7070   2.249   0.588  10.297  2.9482 -0.7356  0.4923
   63CHL1    O3 7071   2.282   0.656  10.487 -0.8496  0.0825  0.3346
   63CHL1   H3' 7072   2.239   0.722  10.543 -1.7151  2.0332 -2.3832
   63CHL1    C4 7073   2.297   0.792  10.291 -0.3294 -0.2567  0.2467
   63CHL1   H4A 7074   2.274   0.880  10.355  0.2137 -1.3992  2.0747
   63CHL1   H4B 7075   2.403   0.762  10.304  0.0155 -0.4526 -2.5049
   63CHL1    C5 7076   2.246   0.821  10.156  0.3964 -0.2962  0.3391
   63CHL1    C6 7077   2.334   0.826  10.061  0.1558  0.2246 -0.8719
   63CHL1    H6 7078   2.437   0.809  10.095  0.1577 -0.2860 -1.1157
   63CHL1    C7 7079   2.308   0.867   9.924 -0.0950 -0.4349  0.1599
   63CHL1   H7A 7080   2.395   0.921   9.881  2.1832 -1.1338  3.5219
   63CHL1   H7B 7081   2.301   0.769   9.873 -2.1974 -1.4286  2.1814
   63CHL1    C8 7082   2.162   0.934   9.906 -0.3516 -0.2717  0.4996
   63CHL1    H8 7083   2.182   1.040   9.933  2.1897 -0.3357 -0.7757
   63CHL1   C14 7084   2.119   0.925   9.759  0.1437 -0.1343  0.3565
   63CHL1   H14 7085   2.101   0.818   9.736  2.9702 -0.1480 -2.3905
   63CHL1   C15 7086   2.214   0.971   9.655  0.1566  0.4048 -0.5619
   63CHL1  H15A 7087   2.263   1.063   9.693  0.4724 -0.4527  1.2491
   63CHL1  H15B 7088   2.299   0.900   9.645  0.7179  0.7366  1.3683
   63CHL1   C16 7089   2.132   1.012   9.529 -0.6659 -0.7843 -0.2448
   63CHL1  H16A 7090   2.152   1.120   9.509 -0.8968 -0.0542  2.8995
   63CHL1  H16B 7091   2.152   0.939   9.449  0.5392  2.1224 -2.8113
   63CHL1   C17 7092   1.982   1.004   9.578 -0.1383 -0.8041  0.4534
   63CHL1   H17 7093   1.944   0.904   9.551 -2.5705 -0.0038  0.6009
   63CHL1   C13 7094   1.989   1.008   9.737  0.0464  0.1220  0.3390
   63CHL1   C18 7095   2.010   1.159   9.773 -0.5767 -0.3087 -0.2608
   63CHL1  H18A 7096   2.025   1.175   9.881 -3.9981  0.5936  0.1880
   63CHL1  H18B 7097   2.101   1.204   9.727  0.3484 -1.3223  0.5104
   63CHL1  H18C 7098   1.918   1.216   9.752 -0.5783 -0.6921 -1.3938
   63CHL1   C12 7099   1.877   0.946   9.812  0.5038 -0.7769  0.2582
   63CHL1  H12A 7100   1.780   0.999   9.797  1.1194  0.4751  0.5135
   63CHL1  H12B 7101   1.853   0.849   9.764 -1.4518 -0.6736  0.9261
   63CHL1   C11 7102   1.909   0.922   9.964  0.3291  0.0407  0.0029
   63CHL1  H11A 7103   1.913   1.021  10.013  0.0804  0.1770 -0.2515
   63CHL1  H11B 7104   1.829   0.865  10.015 -0.9987 -0.0377 -2.0517
   63CHL1    C9 7105   2.052   0.867   9.994  0.2008  0.1701  0.6367
   63CHL1    H9 7106   2.054   0.759   9.970  1.3525  0.3168  0.0379
   63CHL1   C10 7107   2.093   0.857  10.145  0.0949  0.8385 -0.0401
   63CHL1   C19 7108   2.070   0.993  10.210  0.2318 -0.6402  0.1130
   63CHL1  H19A 7109   2.098   0.989  10.317  0.1499 -2.9143  0.0996
   63CHL1  H19B 7110   2.119   1.078  10.158 -0.5831 -0.9473 -1.2295
   63CHL1  H19C 7111   1.960   1.012  10.212  0.4821  1.1640 -1.2317
   63CHL1    C1 7112   2.014   0.739  10.218 -0.0318  0.1260  1.1859
   63CHL1   H1A 7113   1.908   0.774  10.218 -0.7793 -1.9880  0.1666
   63CHL1   H1B 7114   2.025   0.647  10.157  1.5270 -0.3853  2.1779
   63CHL1    C2 7115   2.071   0.702  10.355  0.4980  0.2529 -0.4860
   63CHL1   H2A 7116   2.017   0.616  10.400 -0.4670  1.0444 -0.0771
   63CHL1   H2B 7117   2.062   0.793  10.418  0.0265  1.2891 -1.9830
   63CHL1   C20 7118   1.899   1.108   9.497  0.7234 -0.7942  0.2783
   63CHL1   H20 7119   1.932   1.211   9.523 -0.0339 -0.4199 -0.2212
   63CHL1   C21 7120   1.749   1.101   9.530 -0.1389  0.9271  0.4147
   63CHL1  H21A 7121   1.723   0.995   9.552  2.4492  0.2750  0.5448
   63CHL1  H21B 7122   1.689   1.130   9.441  1.6064  0.9343 -0.7968
   63CHL1  H21C 7123   1.717   1.166   9.614  1.6792  0.5835  1.4247
   63CHL1   C22 7124   1.908   1.105   9.342  0.0903 -0.5064 -0.0778
   63CHL1  H22A 7125   1.853   1.196   9.312 -2.6289 -0.0117  5.1753
   63CHL1  H22B 7126   2.014   1.125   9.315  0.4247 -0.2591  1.2956
   63CHL1   C23 7127   1.851   0.974   9.285  0.4518  0.0152  0.3749
   63CHL1  H23A 7128   1.918   0.897   9.326  0.4318  0.2912  0.9343
   63CHL1  H23B 7129   1.748   0.957   9.323  0.3135  1.5837  0.7729
   63CHL1   C24 7130   1.870   0.963   9.132 -0.4476 -0.1660 -0.0222
   63CHL1  H24A 7131   1.977   0.934   9.119  0.2883 -1.4614  6.0382
   63CHL1  H24B 7132   1.809   0.877   9.095  0.4133 -1.2937  1.0857
   63CHL1   C25 7133   1.835   1.087   9.047  0.8035  1.1198 -0.1866
   63CHL1   H25 7134   1.890   1.179   9.074  0.4086  1.4714 -0.5770
   63CHL1   C26 7135   1.863   1.057   8.899 -0.2789  0.5880  0.0415
   63CHL1  H26A 7136   1.972   1.066   8.883  0.3760  1.1431  3.8889
   63CHL1  H26B 7137   1.820   0.959   8.871  2.0394  0.0313 -1.9288
   63CHL1  H26C 7138   1.825   1.140   8.835 -1.1020 -0.1283 -0.4190
   63CHL1   C27 7139   1.693   1.139   9.058 -0.2709 -0.1666 -0.6809
   63CHL1  H27A 7140   1.671   1.216   8.981  0.2634 -0.4287 -1.1007
   63CHL1  H27B 7141   1.627   1.050   9.047 -1.4366  0.7162 -1.0919
   63CHL1  H27C 7142   1.658   1.171   9.158 -2.5518 -0.4918 -1.3030
   64CHL1    C3 7143   5.971   0.737  10.200 -0.1831  0.1126  0.0162
   64CHL1    H3 7144   5.970   0.628  10.177  0.0634  0.2939 -0.8962
   64CHL1    O3 7145   6.000   0.742  10.338  0.0648 -0.0042 -0.0302
   64CHL1   H3' 7146   5.991   0.834  10.363 -0.7044  0.2338 -1.0957
   64CHL1    C4 7147   6.079   0.809  10.123 -0.5153 -0.9448  0.1333
   64CHL1   H4A 7148   6.069   0.917  10.148  0.2015 -0.2713 -2.2510
   64CHL1   H4B 7149   6.180   0.770  10.147  0.3444  2.1119  2.0489
   64CHL1    C5 7150   6.052   0.800   9.972 -0.6431  0.5134 -0.1519
   64CHL1    C6 7151   6.147   0.757   9.887 -0.2498  0.2503  0.0213
   64CHL1    H6 7152   6.241   0.718   9.927 -1.0771 -1.2963  0.5480
   64CHL1    C7 7153   6.127   0.759   9.734  1.2746  0.0585 -0.5256
   64CHL1   H7A 7154   6.223   0.785   9.684  2.0621  1.2928  1.5128
   64CHL1   H7B 7155   6.113   0.656   9.694 -0.2554  0.7448 -1.8781
   64CHL1    C8 7156   6.008   0.844   9.688  0.0296 -0.2043  0.0861
   64CHL1    H8 7157   6.052   0.946   9.694  1.4001 -0.7388 -0.5439
   64CHL1   C14 7158   5.967   0.795   9.553  0.0325 -1.2333 -0.1706
   64CHL1   H14 7159   5.924   0.692   9.556  1.5945 -1.9318 -0.4381
   64CHL1   C15 7160   6.071   0.777   9.437 -0.3383  0.4407  0.0117
   64CHL1  H15A 7161   6.134   0.868   9.438  0.1222  0.1893 -2.0259
   64CHL1  H15B 7162   6.146   0.695   9.448 -0.2049  0.7050  1.2285
   64CHL1   C16 7163   5.993   0.780   9.307 -0.2547 -0.3338  0.1557
   64CHL1  H16A 7164   6.030   0.869   9.252 -0.1610 -0.8232 -0.5883
   64CHL1  H16B 7165   6.005   0.686   9.250  2.1641 -0.4963  0.8246
   64CHL1   C17 7166   5.848   0.817   9.350  0.4040  0.0107  0.4153
   64CHL1   H17 7167   5.794   0.721   9.363 -2.1488  1.1658 -1.0362
   64CHL1   C13 7168   5.855   0.881   9.485 -0.5938  0.0297 -0.0004
   64CHL1   C18 7169   5.904   1.034   9.476  0.2536  0.8337 -0.1336
   64CHL1  H18A 7170   5.832   1.107   9.434  0.6484  1.0006 -0.5332
   64CHL1  H18B 7171   5.944   1.070   9.573 -0.0712  0.3237  0.1923
   64CHL1  H18C 7172   5.993   1.050   9.410  0.0344  1.4597 -0.2829
   64CHL1   C12 7173   5.733   0.870   9.578  0.4659  0.6275  0.4191
   64CHL1  H12A 7174   5.649   0.926   9.533  0.0459 -1.3041 -1.3246
   64CHL1  H12B 7175   5.700   0.765   9.588 -1.0896  1.2251  2.2692
   64CHL1   C11 7176   5.764   0.914   9.726 -0.3812 -0.1301  1.3051
   64CHL1  H11A 7177   5.788   1.022   9.718 -0.8194 -0.0760  0.7391
   64CHL1  H11B 7178   5.667   0.909   9.780 -1.4212 -1.8370 -0.5823
   64CHL1    C9 7179   5.887   0.830   9.780  0.7730  0.1691  0.6023
   64CHL1    H9 7180   5.868   0.721   9.773  2.7465 -0.1648 -0.3470
   64CHL1   C10 7181   5.915   0.860   9.933 -1.3029  0.0908  0.5655
   64CHL1   C19 7182   5.906   1.006   9.964  0.0256 -0.9245  0.4328
   64CHL1  H19A 7183   5.933   1.029  10.069  3.6497 -1.3742 -0.2433
   64CHL1  H19B 7184   5.977   1.063   9.900 -3.4641  0.5467 -2.4942
   64CHL1  H19C 7185   5.802   1.043   9.951  0.6816  0.7156 -0.4987
   64CHL1    C1 7186   5.804   0.786  10.022 -0.3394 -0.0868 -0.0384
   64CHL1   H1A 7187   5.706   0.828   9.992 -0.5698 -1.7263 -1.7854
   64CHL1   H1B 7188   5.792   0.680   9.990  0.0718  0.1675 -1.0865
   64CHL1    C2 7189   5.830   0.788  10.173  0.1739 -0.1292 -0.1856
   64CHL1   H2A 7190   5.758   0.716  10.217 -1.0962  2.3817  2.0706
   64CHL1   H2B 7191   5.807   0.890  10.209 -2.0847 -0.0877 -1.5326
   64CHL1   C20 7192   5.770   0.883   9.232  0.1881  0.5228 -0.2301
   64CHL1   H20 7193   5.825   0.976   9.208  1.2468 -0.5206 -2.1204
   64CHL1   C21 7194   5.621   0.913   9.270  0.3880  0.2403  0.3611
   64CHL1  H21A 7195   5.621   0.991   9.349 -2.4200 -0.9644  1.7001
   64CHL1  H21B 7196   5.589   0.821   9.323  4.1549  0.4649  3.4516
   64CHL1  H21C 7197   5.561   0.933   9.179  1.4003  0.1986 -0.3283
   64CHL1   C22 7198   5.779   0.798   9.103  0.3061 -0.0705  0.1539
   64CHL1  H22A 7199   5.863   0.726   9.101  2.9549  2.7989  0.7234
   64CHL1  H22B 7200   5.686   0.738   9.096  0.7572 -0.7957  0.2850
   64CHL1   C23 7201   5.791   0.878   8.976  0.2989  0.9605 -0.5028
   64CHL1  H23A 7202   5.729   0.969   8.989 -1.5931 -0.3423  0.0348
   64CHL1  H23B 7203   5.891   0.924   8.964  0.5886  0.4337 -0.1656
   64CHL1   C24 7204   5.752   0.793   8.853  0.4380 -0.3665  0.6139
   64CHL1  H24A 7205   5.787   0.690   8.872  2.4821  0.0180 -0.6860
   64CHL1  H24B 7206   5.642   0.785   8.836  0.2728  1.5485  0.5412
   64CHL1   C25 7207   5.819   0.843   8.725  0.0778 -0.1345 -0.6439
   64CHL1   H25 7208   5.925   0.868   8.744 -0.5079  0.7104  1.9857
   64CHL1   C26 7209   5.797   0.756   8.597 -0.6948 -0.2274  0.3429
   64CHL1  H26A 7210   5.826   0.650   8.611  0.2246 -0.1522 -0.7975
   64CHL1  H26B 7211   5.696   0.768   8.554 -0.0237  1.5786 -0.8976
   64CHL1  H26C 7212   5.873   0.783   8.520 -0.6435 -0.9965  0.1224
   64CHL1   C27 7213   5.760   0.983   8.684  0.3323 -0.2410  0.4791
   64CHL1  H27A 7214   5.788   1.008   8.579 -3.3815 -2.1092 -1.1051
   64CHL1  H27B 7215   5.650   0.987   8.694 -0.1136  1.0078 -3.2510
   64CHL1  H27C 7216   5.809   1.061   8.746  0.2428  0.2283 -0.0363
   65CHL1    C3 7217   3.962   0.783  10.068 -0.0702  0.4840 -0.2312
   65CHL1    H3 7218   3.982   0.891  10.053 -1.2500  0.9571  1.3675
   65CHL1    O3 7219   3.946   0.763  10.206 -1.1211 -0.1822 -0.1957
   65CHL1   H3' 7220   3.902   0.680  10.228 -1.4518 -0.0907 -0.5038
   65CHL1    C4 7221   3.818   0.754  10.007 -0.7482  0.1395  0.2341
   65CHL1   H4A 7222   3.784   0.649  10.025  1.9967 -0.9486 -0.4098
   65CHL1   H4B 7223   3.739   0.820  10.049 -0.0777 -0.1008  1.9456
   65CHL1    C5 7224   3.818   0.771   9.857 -0.2727  0.1491 -0.2740
   65CHL1    C6 7225   3.750   0.867   9.794  0.3415  0.0280 -0.6301
   65CHL1    H6 7226   3.709   0.940   9.866 -0.2441 -0.7380 -0.1761
   65CHL1    C7 7227   3.745   0.906   9.645 -0.0088 -0.2209  0.4380
   65CHL1   H7A 7228   3.646   0.931   9.604  1.0375  1.4632 -1.2103
   65CHL1   H7B 7229   3.808   0.998   9.645 -0.3311  0.0074  1.1397
   65CHL1    C8 7230   3.804   0.782   9.570  0.1207 -0.0287 -0.2202
   65CHL1    H8 7231   3.735   0.696   9.576  1.1220 -0.7562  1.4946
   65CHL1   C14 7232   3.820   0.824   9.422  0.6178  0.6469  0.1579
   65CHL1   H14 7233   3.889   0.911   9.424  1.0956  0.3347 -1.4263
   65CHL1   C15 7234   3.695   0.868   9.345 -0.0124 -0.4427 -0.5380
   65CHL1  H15A 7235   3.613   0.798   9.372  0.4157 -0.0625  2.1030
   65CHL1  H15B 7236   3.669   0.974   9.367  1.1171 -0.2157 -0.2337
   65CHL1   C16 7237   3.730   0.851   9.200 -0.2778 -0.3413  0.0672
   65CHL1  H16A 7238   3.655   0.786   9.151 -1.3002 -0.4135  1.6465
   65CHL1  H16B 7239   3.739   0.943   9.138 -0.4510 -0.8565 -0.7264
   65CHL1   C17 7240   3.871   0.783   9.193  0.2229  0.2516 -0.3021
   65CHL1   H17 7241   3.945   0.865   9.198 -1.5188  2.0235 -1.6206
   65CHL1   C13 7242   3.888   0.716   9.337 -0.5666 -0.2548  0.9734
   65CHL1   C18 7243   3.794   0.590   9.340 -0.2095  0.1228  0.4275
   65CHL1  H18A 7244   3.841   0.497   9.303 -1.0788  0.0301 -0.4834
   65CHL1  H18B 7245   3.752   0.558   9.438 -0.0809 -1.4892 -0.0154
   65CHL1  H18C 7246   3.707   0.614   9.275  0.2520  2.5474  0.6292
   65CHL1   C12 7247   4.035   0.696   9.392  0.6500  0.1434 -0.2168
   65CHL1  H12A 7248   4.091   0.613   9.345  2.3567 -0.5164  2.6960
   65CHL1  H12B 7249   4.099   0.786   9.382  0.4244  0.3675  0.3009
   65CHL1   C11 7250   4.021   0.642   9.535  0.1086 -0.1457 -0.9649
   65CHL1  H11A 7251   3.976   0.543   9.516 -1.5471  0.5125 -0.7314
   65CHL1  H11B 7252   4.124   0.630   9.575 -0.8362 -0.0739  1.7344
   65CHL1    C9 7253   3.936   0.736   9.630  0.2516 -0.2315  0.4730
   65CHL1    H9 7254   3.999   0.828   9.643 -1.1525  0.7437  0.5799
   65CHL1   C10 7255   3.926   0.686   9.774 -0.1302  0.2043 -0.2199
   65CHL1   C19 7256   3.872   0.544   9.779 -0.2953  0.7164  0.5640
   65CHL1  H19A 7257   3.845   0.518   9.883 -2.3865 -0.9372 -0.3398
   65CHL1  H19B 7258   3.780   0.534   9.718  0.9785 -1.4456 -1.1367
   65CHL1  H19C 7259   3.951   0.475   9.743 -1.5629 -0.9641  0.9356
   65CHL1    C1 7260   4.056   0.694   9.855 -0.3206  0.2591  0.2579
   65CHL1   H1A 7261   4.119   0.618   9.803  0.7740  1.3085  0.0055
   65CHL1   H1B 7262   4.113   0.785   9.828  0.4129 -0.9101 -2.5565
   65CHL1    C2 7263   4.052   0.683  10.008 -0.5110 -0.6295  0.5224
   65CHL1   H2A 7264   4.158   0.697  10.038 -0.4852  0.8717 -0.1964
   65CHL1   H2B 7265   4.025   0.578  10.036  0.0616 -0.7008  0.8238
   65CHL1   C20 7266   3.888   0.704   9.066  0.4635  0.3227  0.5079
   65CHL1   H20 7267   3.823   0.615   9.055  1.6443 -0.4113 -0.8632
   65CHL1   C21 7268   4.035   0.661   9.067 -0.6862  0.8830 -0.5878
   65CHL1  H21A 7269   4.106   0.742   9.095 -2.1709  1.7689  0.8492
   65CHL1  H21B 7270   4.060   0.622   8.967 -1.6861 -2.1594  0.2306
   65CHL1  H21C 7271   4.038   0.569   9.129 -1.5087  1.7707  0.8566
   65CHL1   C22 7272   3.851   0.789   8.936 -0.0613 -0.1281 -0.1982
   65CHL1  H22A 7273   3.851   0.899   8.953 -1.3690  0.0300 -1.0269
   65CHL1  H22B 7274   3.930   0.769   8.861  0.8019  0.4103  0.5466
   65CHL1   C23 7275   3.719   0.749   8.870  0.4365 -0.3326 -0.1727
   65CHL1  H23A 7276   3.710   0.638   8.868  1.6749 -0.4487  0.1678
   65CHL1  H23B 7277   3.643   0.789   8.940  0.3818 -0.8121  0.0467
   65CHL1   C24 7278   3.701   0.816   8.737  0.0632  0.1277  0.4341
   65CHL1  H24A 7279   3.697   0.925   8.759 -2.4450 -0.1268  1.5326
   65CHL1  H24B 7280   3.791   0.780   8.683 -0.3290 -2.2305  1.2335
   65CHL1   C25 7281   3.560   0.777   8.668 -0.0922 -0.4677  0.7675
   65CHL1   H25 7282   3.551   0.667   8.672 -1.7809 -0.4024 -0.4558
   65CHL1   C26 7283   3.428   0.831   8.738 -0.7534 -0.3720 -0.1545
   65CHL1  H26A 7284   3.342   0.776   8.695  0.1328  0.4594 -3.1866
   65CHL1  H26B 7285   3.436   0.814   8.848  0.8623 -0.7071 -0.3003
   65CHL1  H26C 7286   3.416   0.939   8.716  2.2886 -0.4375 -2.9204
   65CHL1   C27 7287   3.564   0.811   8.520 -0.4916 -0.1347 -0.4196
   65CHL1  H27A 7288   3.557   0.920   8.500 -0.3653 -0.1460 -0.5329
   65CHL1  H27B 7289   3.666   0.788   8.481  0.0115  0.7045  0.3400
   65CHL1  H27C 7290   3.480   0.766   8.463 -1.5890  0.4508  0.6822
   66CHL1    C3 7291   0.725   5.947  10.518  0.2036  0.0667 -0.2880
   66CHL1    H3 7292   0.621   5.968  10.485 -0.1007  0.9274  1.1214
   66CHL1    O3 7293   0.716   5.935  10.657 -0.1827  0.5611  0.3840
   66CHL1   H3' 7294   0.679   6.018  10.688 -1.2774  0.1064  0.3332
   66CHL1    C4 7295   0.758   5.803  10.471 -0.7502 -0.0078  0.0256
   66CHL1   H4A 7296   0.855   5.770  10.513  0.3999 -0.1492 -2.5335
   66CHL1   H4B 7297   0.677   5.737  10.508 -0.5385 -2.1447 -2.9336
   66CHL1    C5 7298   0.776   5.794  10.323  0.0317  0.1290  0.4343
   66CHL1    C6 7299   0.704   5.701  10.255 -0.3983  0.2011 -1.0607
   66CHL1    H6 7300   0.658   5.630  10.326  1.1333 -0.0766 -0.3162
   66CHL1    C7 7301   0.732   5.674  10.106 -0.1517 -1.3994 -0.3021
   66CHL1   H7A 7302   0.759   5.567  10.097  2.0537 -1.0000  0.9300
   66CHL1   H7B 7303   0.638   5.679  10.046 -0.2231 -0.9024 -0.1561
   66CHL1    C8 7304   0.842   5.769  10.052 -0.1540 -0.7272  0.5246
   66CHL1    H8 7305   0.933   5.708  10.067 -2.0895 -4.1805 -0.6997
   66CHL1   C14 7306   0.835   5.786   9.900  0.2795  0.2248 -0.2095
   66CHL1   H14 7307   0.730   5.817   9.879 -0.8545 -1.8874  1.9567
   66CHL1   C15 7308   0.845   5.654   9.816 -0.5629  0.3582  0.2466
   66CHL1  H15A 7309   0.925   5.588   9.855  0.8393  0.4225 -2.3538
   66CHL1  H15B 7310   0.746   5.603   9.814 -0.8945  1.0242 -1.0596
   66CHL1   C16 7311   0.866   5.695   9.670 -0.4313  0.0706 -0.5143
   66CHL1  H16A 7312   0.959   5.646   9.635  0.7359 -0.8184  3.3511
   66CHL1  H16B 7313   0.773   5.678   9.611  0.8530 -3.0559 -1.8103
   66CHL1   C17 7314   0.890   5.849   9.682 -0.4956 -0.1891 -0.5737
   66CHL1   H17 7315   0.789   5.889   9.658 -1.5324 -0.6753  2.4449
   66CHL1   C13 7316   0.928   5.880   9.830  0.0305 -0.2482  0.9574
   66CHL1   C18 7317   1.076   5.834   9.846 -0.1278  0.3175  0.1535
   66CHL1  H18A 7318   1.103   5.827   9.954 -2.7305 -0.8522  0.8209
   66CHL1  H18B 7319   1.086   5.727   9.816 -1.3781  0.1002  0.4288
   66CHL1  H18C 7320   1.149   5.901   9.796  2.4455 -1.4816  1.2863
   66CHL1   C12 7321   0.910   6.021   9.886  0.0662  0.9345  0.3418
   66CHL1  H12A 7322   0.978   6.094   9.838  1.2385 -0.1630  0.3000
   66CHL1  H12B 7323   0.803   6.041   9.866 -0.2772  0.1983  1.3572
   66CHL1   C11 7324   0.932   6.020  10.038  0.0411  0.7105 -0.8352
   66CHL1  H11A 7325   1.036   6.012  10.077 -0.3398  2.2183  0.5804
   66CHL1  H11B 7326   0.899   6.118  10.078  0.5879  1.4328 -2.0874
   66CHL1    C9 7327   0.846   5.912  10.121 -0.1796  0.0359  0.4046
   66CHL1    H9 7328   0.743   5.947  10.101  0.2421  1.6123  0.8399
   66CHL1   C10 7329   0.868   5.904  10.272 -0.1925 -0.2849  1.2467
   66CHL1   C19 7330   1.012   5.856  10.302  0.4039  0.1084  0.3031
   66CHL1  H19A 7331   1.094   5.917  10.260 -1.0351 -0.3816 -3.6886
   66CHL1  H19B 7332   1.038   5.861  10.410  0.8283  2.4532  0.1401
   66CHL1  H19C 7333   1.028   5.757  10.254  0.1516  1.0201 -1.7753
   66CHL1    C1 7334   0.849   6.048  10.335 -0.6310  0.1464  0.2345
   66CHL1   H1A 7335   0.936   6.110  10.305  1.0187 -2.1775 -0.0366
   66CHL1   H1B 7336   0.757   6.087  10.286 -0.0574  0.3738 -0.6846
   66CHL1    C2 7337   0.836   6.041  10.484  0.4802 -0.8858  0.1592
   66CHL1   H2A 7338   0.812   6.144  10.517 -0.4197 -1.3785  1.0953
   66CHL1   H2B 7339   0.928   6.010  10.539  1.3845 -1.0439 -1.4021
   66CHL1   C20 7340   0.979   5.908   9.574 -0.0522  0.0339 -0.5363
   66CHL1   H20 7341   1.083   5.869   9.582  0.5533  1.6775  0.0659
   66CHL1   C21 7342   0.978   6.064   9.581  0.3154 -0.0240  0.5173
   66CHL1  H21A 7343   1.015   6.118   9.491 -1.9724 -0.0776 -0.5270
   66CHL1  H21B 7344   1.044   6.102   9.662  0.0709  1.6575 -0.0162
   66CHL1  H21C 7345   0.874   6.103   9.588 -0.4080 -1.8567  0.3682
   66CHL1   C22 7346   0.928   5.864   9.436  0.4283  0.2795 -0.1933
   66CHL1  H22A 7347   0.928   5.753   9.442  1.9489  0.1525 -1.7037
   66CHL1  H22B 7348   0.827   5.902   9.408 -0.0690 -0.6024  0.3733
   66CHL1   C23 7349   1.024   5.897   9.322  0.0788 -0.5848 -0.9299
   66CHL1  H23A 7350   1.022   6.006   9.303  1.6602 -0.6505 -1.5682
   66CHL1  H23B 7351   1.128   5.864   9.344  0.0178  0.2751  0.8433
   66CHL1   C24 7352   0.972   5.841   9.190 -0.3060 -0.4318 -0.2281
   66CHL1  H24A 7353   0.984   5.731   9.201  0.4859 -0.3892 -0.5460
   66CHL1  H24B 7354   0.865   5.871   9.186  0.3675  2.3857  0.5424
   66CHL1   C25 7355   1.045   5.879   9.055  0.4975 -0.0918 -0.5133
   66CHL1   H25 7356   1.150   5.842   9.062  0.2384 -0.6383  0.7993
   66CHL1   C26 7357   0.989   5.817   8.927  0.7272 -0.5427  0.1309
   66CHL1  H26A 7358   1.049   5.836   8.835  1.1620  1.5118  0.7956
   66CHL1  H26B 7359   0.968   5.709   8.936  1.0678 -0.6361 -0.1413
   66CHL1  H26C 7360   0.888   5.860   8.907  0.3845 -1.5095 -0.2727
   66CHL1   C27 7361   1.052   6.027   9.035  0.0728  0.1544  0.2590
   66CHL1  H27A 7362   0.952   6.076   9.046  0.7624  1.5196  0.7744
   66CHL1  H27B 7363   1.112   6.080   9.113 -1.3324 -1.1695  2.3567
   66CHL1  H27C 7364   1.112   6.055   8.946  0.3016 -0.5591  0.1895
   67CHL1    C3 7365   2.378   5.666  10.229 -0.2637  0.0791  0.4680
   67CHL1    H3 7366   2.320   5.575  10.199  0.6242 -0.7182  1.1062
   67CHL1    O3 7367   2.345   5.672  10.368  0.1461  0.3241  0.3978
   67CHL1   H3' 7368   2.387   5.605  10.423 -1.2871 -2.4157 -1.6001
   67CHL1    C4 7369   2.528   5.628  10.222  0.1526  0.1203 -0.0176
   67CHL1   H4A 7370   2.583   5.704  10.282  1.1002 -1.4642  1.2071
   67CHL1   H4B 7371   2.537   5.532  10.276 -1.6006  1.5539  3.1475
   67CHL1    C5 7372   2.576   5.617  10.079 -0.4886  0.2787 -0.0637
   67CHL1    C6 7373   2.623   5.499  10.025 -1.1615 -0.7334 -0.2266
   67CHL1    H6 7374   2.627   5.411  10.092 -0.5280 -1.2877 -0.9825
   67CHL1    C7 7375   2.682   5.486   9.890 -0.4115 -0.2521 -0.1250
   67CHL1   H7A 7376   2.780   5.434   9.894  1.1630  2.5469  0.6144
   67CHL1   H7B 7377   2.607   5.434   9.827 -1.3521  1.3933 -0.4246
   67CHL1    C8 7378   2.706   5.623   9.831  0.5818  0.5613  0.6982
   67CHL1    H8 7379   2.800   5.662   9.875 -0.0725 -0.0244  2.7226
   67CHL1   C14 7380   2.718   5.589   9.682 -0.3381 -0.0851 -0.2913
   67CHL1   H14 7381   2.615   5.562   9.651 -0.6292  0.1378  0.4534
   67CHL1   C15 7382   2.824   5.479   9.636  0.6531  0.6090  0.1027
   67CHL1  H15A 7383   2.914   5.494   9.699 -1.7700  4.1873  3.1915
   67CHL1  H15B 7384   2.782   5.377   9.652 -0.1920  1.0495  0.7949
   67CHL1   C16 7385   2.846   5.512   9.485 -0.4568  0.0405  0.6176
   67CHL1  H16A 7386   2.955   5.529   9.470 -0.3092 -0.8690  0.6194
   67CHL1  H16B 7387   2.816   5.426   9.421 -2.0246  1.0335 -0.0402
   67CHL1   C17 7388   2.770   5.650   9.456 -0.7869  0.0669  0.1186
   67CHL1   H17 7389   2.667   5.628   9.422 -0.5380  0.3675 -0.8438
   67CHL1   C13 7390   2.750   5.715   9.594 -0.1056 -0.0723 -0.6114
   67CHL1   C18 7391   2.880   5.778   9.646  0.3270 -0.3223 -0.3027
   67CHL1  H18A 7392   2.964   5.706   9.643  0.7653  0.1500  0.2522
   67CHL1  H18B 7393   2.907   5.852   9.568 -2.5169  0.2108 -0.8991
   67CHL1  H18C 7394   2.875   5.827   9.746  1.4968 -0.8883  0.0552
   67CHL1   C12 7395   2.631   5.812   9.611 -0.5309  0.4983  0.1776
   67CHL1  H12A 7396   2.648   5.900   9.546 -0.6907 -1.0551 -2.0847
   67CHL1  H12B 7397   2.545   5.756   9.568 -0.5649  1.3695 -0.9475
   67CHL1   C11 7398   2.608   5.849   9.756 -0.2338  0.2388 -0.4094
   67CHL1  H11A 7399   2.691   5.913   9.794 -1.0399  0.1156  1.6911
   67CHL1  H11B 7400   2.512   5.904   9.765  0.7826  2.4552 -2.1202
   67CHL1    C9 7401   2.594   5.727   9.852 -0.8069  0.3542  0.6363
   67CHL1    H9 7402   2.514   5.661   9.812 -0.3256  0.4413 -0.5140
   67CHL1   C10 7403   2.560   5.751  10.003 -0.5228 -0.0921  0.7228
   67CHL1   C19 7404   2.657   5.861  10.053  0.1961  0.7936  0.7634
   67CHL1  H19A 7405   2.645   5.956   9.997 -0.6837  0.6286  0.6574
   67CHL1  H19B 7406   2.641   5.875  10.162  1.7773  0.8433  1.0052
   67CHL1  H19C 7407   2.764   5.835  10.041 -0.6464 -1.7324 -3.0621
   67CHL1    C1 7408   2.403   5.784  10.010 -0.7034 -0.5313  0.6435
   67CHL1   H1A 7409   2.394   5.890   9.976 -0.3660 -0.5547  0.4791
   67CHL1   H1B 7410   2.347   5.714   9.945 -1.5242  1.9371 -1.5010
   67CHL1    C2 7411   2.338   5.790  10.152  0.1933  0.5649 -0.0279
   67CHL1   H2A 7412   2.230   5.801  10.131  0.4931  0.6858 -1.6560
   67CHL1   H2B 7413   2.374   5.875  10.213  1.1148 -0.0472  0.3051
   67CHL1   C20 7414   2.841   5.731   9.343  0.6889  0.6304 -0.4607
   67CHL1   H20 7415   2.936   5.771   9.384 -0.0584 -0.8142  3.0389
   67CHL1   C21 7416   2.755   5.857   9.302 -0.7488  0.1396  0.2467
   67CHL1  H21A 7417   2.763   5.927   9.388 -0.3185 -0.5388  0.7637
   67CHL1  H21B 7418   2.646   5.837   9.294 -1.3091  2.7719  0.1426
   67CHL1  H21C 7419   2.785   5.909   9.208 -0.4249 -2.0749 -0.9245
   67CHL1   C22 7420   2.879   5.657   9.213 -0.2745 -0.3463  0.8803
   67CHL1  H22A 7421   2.940   5.726   9.151 -1.4036  1.3721  1.5880
   67CHL1  H22B 7422   2.943   5.570   9.237 -0.7194 -1.5147 -1.8441
   67CHL1   C23 7423   2.756   5.603   9.140 -0.5534  0.0890  0.3750
   67CHL1  H23A 7424   2.693   5.551   9.216  1.5825  0.8706  2.8198
   67CHL1  H23B 7425   2.703   5.687   9.090 -0.2483 -0.6192 -1.1857
   67CHL1   C24 7426   2.799   5.520   9.025 -0.3672 -0.0660 -0.3928
   67CHL1  H24A 7427   2.884   5.564   8.968 -1.0564 -2.0447 -3.1197
   67CHL1  H24B 7428   2.840   5.419   9.049 -1.0408 -0.4461 -0.8125
   67CHL1   C25 7429   2.676   5.509   8.922 -0.0609 -0.8728 -0.6785
   67CHL1   H25 7430   2.640   5.614   8.911  1.8071  0.1559  1.9503
   67CHL1   C26 7431   2.708   5.458   8.788  0.3847  0.0879  0.0549
   67CHL1  H26A 7432   2.711   5.347   8.790 -3.5066 -0.1915 -1.7859
   67CHL1  H26B 7433   2.625   5.487   8.721  1.0755 -0.8486 -1.2597
   67CHL1  H26C 7434   2.799   5.513   8.755  2.2877 -1.7431  1.9346
   67CHL1   C27 7435   2.567   5.418   8.980  0.4720  0.1530  0.0789
   67CHL1  H27A 7436   2.603   5.313   8.990  2.2691  0.8461  1.2920
   67CHL1  H27B 7437   2.521   5.449   9.076 -2.3714  3.1832 -2.0492
   67CHL1  H27C 7438   2.487   5.435   8.905  1.5516  0.6217 -1.0081
   68CHL1    C3 7439   2.716   6.542  10.325 -0.1823  0.2320 -0.0627
   68CHL1    H3 7440   2.678   6.439  10.308  0.5702  0.1750 -1.6213
   68CHL1    O3 7441   2.796   6.524  10.439 -0.1174 -0.5147  0.2899
   68CHL1   H3' 7442   2.852   6.602  10.448 -0.1909 -0.5505  1.0569
   68CHL1    C4 7443   2.803   6.591  10.216 -0.0468 -0.0440 -0.1159
   68CHL1   H4A 7444   2.844   6.690  10.243 -0.4072  0.2430 -0.6072
   68CHL1   H4B 7445   2.895   6.529  10.205  0.5138  1.0455 -2.1747
   68CHL1    C5 7446   2.728   6.605  10.087 -0.1484 -0.2584 -0.1047
   68CHL1    C6 7447   2.760   6.531   9.980  0.0165  0.1404  0.0312
   68CHL1    H6 7448   2.844   6.460   9.989  0.0408  0.2056  0.3398
   68CHL1    C7 7449   2.703   6.540   9.847 -0.9067  1.1392  0.8296
   68CHL1   H7A 7450   2.780   6.548   9.766 -1.6142  0.1981  0.0436
   68CHL1   H7B 7451   2.647   6.447   9.826  0.5012  0.4985 -0.3159
   68CHL1    C8 7452   2.620   6.670   9.832 -0.3689 -0.5739  0.5575
   68CHL1    H8 7453   2.688   6.757   9.820 -0.0550 -0.8852  0.0502
   68CHL1   C14 7454   2.540   6.667   9.705 -0.2315 -0.0468 -0.3720
   68CHL1   H14 7455   2.458   6.593   9.715 -1.6189  1.7016  2.1489
   68CHL1   C15 7456   2.611   6.636   9.569  0.2085 -0.0315 -0.4203
   68CHL1  H15A 7457   2.707   6.693   9.559 -0.3272  0.6030 -2.4994
   68CHL1  H15B 7458   2.640   6.530   9.555 -0.4357 -0.2213 -0.3502
   68CHL1   C16 7459   2.514   6.685   9.458  0.2075 -0.4664 -0.1027
   68CHL1  H16A 7460   2.584   6.749   9.399  0.6364 -0.7135  0.1294
   68CHL1  H16B 7461   2.481   6.593   9.405 -3.2178  0.7563 -0.2896
   68CHL1   C17 7462   2.393   6.753   9.530 -0.7641 -0.3856 -0.0794
   68CHL1   H17 7463   2.321   6.670   9.548  1.3057 -1.9789  1.4481
   68CHL1   C13 7464   2.451   6.791   9.675 -0.4282  0.3439  0.5079
   68CHL1   C18 7465   2.521   6.929   9.661  1.3059 -0.6120  0.1390
   68CHL1  H18A 7466   2.565   6.965   9.757  2.3767  0.7054 -0.8056
   68CHL1  H18B 7467   2.616   6.927   9.603  2.4308  2.0657  1.6919
   68CHL1  H18C 7468   2.466   7.016   9.619  1.5285  0.4229  1.8661
   68CHL1   C12 7469   2.354   6.793   9.794  0.4171 -0.5536 -0.3290
   68CHL1  H12A 7470   2.285   6.880   9.787  0.7770 -0.3799 -2.0702
   68CHL1  H12B 7471   2.304   6.694   9.787 -2.0163  0.7203 -2.7797
   68CHL1   C11 7472   2.428   6.797   9.933  0.5064 -1.0730 -0.1760
   68CHL1  H11A 7473   2.476   6.898   9.932 -0.7037 -0.4798 -1.2793
   68CHL1  H11B 7474   2.356   6.779  10.015  2.2029 -2.5664  1.0719
   68CHL1    C9 7475   2.535   6.684   9.958 -0.2126 -0.1793 -0.3823
   68CHL1    H9 7476   2.494   6.581   9.961 -0.1453 -0.2613 -1.7470
   68CHL1   C10 7477   2.612   6.701  10.092  0.0644 -0.1777 -0.0241
   68CHL1   C19 7478   2.676   6.845  10.094 -0.6046 -0.0458 -0.1708
   68CHL1  H19A 7479   2.723   6.873  10.191  2.1038 -1.7934 -0.8725
   68CHL1  H19B 7480   2.752   6.858  10.014  0.7332 -1.5209  0.8231
   68CHL1  H19C 7481   2.598   6.925  10.084  0.1138  0.7076  0.1572
   68CHL1    C1 7482   2.524   6.669  10.211 -0.6305  0.1068  0.0436
   68CHL1   H1A 7483   2.447   6.747  10.230 -0.1460  0.4759  0.5110
   68CHL1   H1B 7484   2.466   6.577  10.185 -2.4797  0.7818  1.5540
   68CHL1    C2 7485   2.595   6.634  10.342 -0.1620  0.0025  0.5311
   68CHL1   H2A 7486   2.528   6.581  10.413  0.3024 -0.9511  0.2787
   68CHL1   H2B 7487   2.629   6.727  10.393 -0.2081  0.0517  0.4708
   68CHL1   C20 7488   2.327   6.856   9.440 -0.3852 -0.0249  0.2471
   68CHL1   H20 7489   2.400   6.939   9.427 -0.3574  0.8187  4.2814
   68CHL1   C21 7490   2.204   6.897   9.524  0.1608 -0.1523 -1.2710
   68CHL1  H21A 7491   2.140   6.969   9.470  0.4160  1.5510  0.5475
   68CHL1  H21B 7492   2.232   6.959   9.612  0.3887 -1.6773 -0.2367
   68CHL1  H21C 7493   2.147   6.814   9.572  0.0877  0.0605 -0.9870
   68CHL1   C22 7494   2.284   6.811   9.295  0.8392 -0.0442  0.3146
   68CHL1  H22A 7495   2.369   6.774   9.235  1.2809 -0.1185  0.9702
   68CHL1  H22B 7496   2.224   6.718   9.292 -1.2668  1.2567 -2.1146
   68CHL1   C23 7497   2.219   6.931   9.219 -0.1364 -0.4521  0.6869
   68CHL1  H23A 7498   2.110   6.937   9.243 -0.7068  0.4242 -1.7822
   68CHL1  H23B 7499   2.270   7.025   9.252 -0.2777  0.6207 -1.9395
   68CHL1   C24 7500   2.222   6.935   9.062  0.1307 -0.5389 -0.1732
   68CHL1  H24A 7501   2.172   7.030   9.035  0.7329 -0.5174 -1.2392
   68CHL1  H24B 7502   2.326   6.941   9.025 -0.0756  2.3245 -0.5031
   68CHL1   C25 7503   2.155   6.812   8.994  0.0342  0.2432  0.6572
   68CHL1   H25 7504   2.201   6.719   9.033  0.4676 -0.3514 -1.1912
   68CHL1   C26 7505   2.006   6.789   9.005  0.6515  0.1411  0.2766
   68CHL1  H26A 7506   1.986   6.698   8.944 -0.2661  0.1279  0.5935
   68CHL1  H26B 7507   1.975   6.770   9.110 -0.8358 -1.8125 -0.4533
   68CHL1  H26C 7508   1.959   6.876   8.956  0.0455 -0.4586 -0.2171
   68CHL1   C27 7509   2.198   6.807   8.846 -0.8860 -0.1807  0.6764
   68CHL1  H27A 7510   2.198   6.912   8.808  0.0604  0.0610  1.3175
   68CHL1  H27B 7511   2.301   6.767   8.854 -0.9509 -0.5285 -0.0972
   68CHL1  H27C 7512   2.131   6.738   8.791 -1.8524  0.0386  1.5525
   69CHL1    C3 7513   2.046   5.987   7.058  0.1795 -0.0965  0.6286
   69CHL1    H3 7514   2.003   6.085   7.089  1.0908  0.0800  1.3459
   69CHL1    O3 7515   2.059   5.987   6.915 -0.4170  0.4144 -0.2733
   69CHL1   H3' 7516   2.093   6.074   6.892 -0.6556  1.0838  1.7669
   69CHL1    C4 7517   2.183   5.975   7.125 -0.3067  0.3066  0.4005
   69CHL1   H4A 7518   2.223   5.880   7.082 -2.8214 -0.0260 -1.3899
   69CHL1   H4B 7519   2.241   6.065   7.094  2.0209 -1.6747 -1.4056
   69CHL1    C5 7520   2.172   5.970   7.273 -0.2871 -0.1549  0.0199
   69CHL1    C6 7521   2.238   6.062   7.346 -0.4201 -0.5420  0.1340
   69CHL1    H6 7522   2.306   6.139   7.307 -0.4454  0.6456  2.2814
   69CHL1    C7 7523   2.220   6.061   7.496 -0.0608 -0.2260 -0.0138
   69CHL1   H7A 7524   2.317   6.091   7.543  0.5069 -3.5846  1.2300
   69CHL1   H7B 7525   2.146   6.142   7.509 -0.5143 -0.6188 -0.1405
   69CHL1    C8 7526   2.174   5.926   7.563  0.5561 -0.5805 -0.0138
   69CHL1    H8 7527   2.254   5.851   7.546  0.1148 -0.8188 -1.1735
   69CHL1   C14 7528   2.142   5.939   7.705 -0.3836  0.0892  0.0616
   69CHL1   H14 7529   2.072   6.026   7.711  0.7609  0.9476  1.5218
   69CHL1   C15 7530   2.258   5.993   7.797  0.2583  0.0637 -0.3983
   69CHL1  H15A 7531   2.352   5.933   7.796  1.3254  1.6953 -0.2704
   69CHL1  H15B 7532   2.276   6.100   7.778 -1.3594 -0.0052 -2.7593
   69CHL1   C16 7533   2.211   5.958   7.942 -0.3118  0.1979 -0.6265
   69CHL1  H16A 7534   2.291   5.893   7.983 -0.1057 -0.0904 -1.4774
   69CHL1  H16B 7535   2.207   6.050   8.003 -0.7090 -1.1155  1.4438
   69CHL1   C17 7536   2.076   5.874   7.930  0.0839 -0.1831 -0.4522
   69CHL1   H17 7537   1.993   5.948   7.936 -0.3301 -0.6311 -0.5670
   69CHL1   C13 7538   2.081   5.819   7.781  0.2450  0.5139  0.1876
   69CHL1   C18 7539   2.177   5.698   7.773  0.2003  0.0661 -0.0277
   69CHL1  H18A 7540   2.218   5.674   7.673  0.7977 -0.1846  0.2686
   69CHL1  H18B 7541   2.273   5.715   7.827 -0.4901 -1.4658  1.7817
   69CHL1  H18C 7542   2.137   5.608   7.823 -0.1356  0.1211 -0.1962
   69CHL1   C12 7543   1.945   5.799   7.714 -0.0690  0.2152 -0.0243
   69CHL1  H12A 7544   1.887   5.716   7.760 -2.3406 -0.0713 -3.0884
   69CHL1  H12B 7545   1.882   5.891   7.715  0.4739  0.8059 -3.7511
   69CHL1   C11 7546   1.962   5.773   7.561  0.2084 -0.4667 -0.4207
   69CHL1  H11A 7547   2.015   5.676   7.564  0.6475 -0.1995  0.6983
   69CHL1  H11B 7548   1.857   5.766   7.525 -0.5043  3.5422  0.4162
   69CHL1    C9 7549   2.048   5.883   7.484 -0.1467  0.1713 -0.0343
   69CHL1    H9 7550   1.976   5.966   7.494 -0.8942 -0.4884  0.1474
   69CHL1   C10 7551   2.063   5.869   7.331 -0.3325  0.5040 -0.6433
   69CHL1   C19 7552   2.108   5.720   7.308 -0.0022 -0.1748  0.0271
   69CHL1  H19A 7553   2.031   5.646   7.339  0.2203 -0.6380 -0.5155
   69CHL1  H19B 7554   2.132   5.705   7.201 -1.4740  1.5788 -0.6090
   69CHL1  H19C 7555   2.201   5.717   7.367  0.1800  2.3183 -0.0318
   69CHL1    C1 7556   1.926   5.895   7.259 -0.0637  0.3648  0.5573
   69CHL1   H1A 7557   1.858   5.814   7.293 -0.4985  0.4882 -0.0026
   69CHL1   H1B 7558   1.888   5.996   7.282  0.6787  0.6907  0.3787
   69CHL1    C2 7559   1.953   5.880   7.102  0.4505 -0.5044  0.0069
   69CHL1   H2A 7560   1.866   5.912   7.041  0.3262 -0.8854 -0.0185
   69CHL1   H2B 7561   1.984   5.778   7.074  2.4600  0.3494 -1.0772
   69CHL1   C20 7562   2.049   5.783   8.050 -0.1678 -0.2862  0.0654
   69CHL1   H20 7563   2.118   5.695   8.049 -0.1898 -0.3071  0.3179
   69CHL1   C21 7564   1.903   5.726   8.028 -0.3516  0.8199  0.3305
   69CHL1  H21A 7565   1.908   5.643   7.954 -1.8652  0.8292  0.1827
   69CHL1  H21B 7566   1.837   5.805   7.984 -0.4660 -0.3663 -1.7812
   69CHL1  H21C 7567   1.852   5.699   8.123  1.7724  0.3113  1.3881
   69CHL1   C22 7568   2.047   5.855   8.190 -0.4105 -0.5524  0.2285
   69CHL1  H22A 7569   2.122   5.937   8.183 -1.9325  0.8980  0.0336
   69CHL1  H22B 7570   1.946   5.896   8.213 -1.1550 -1.5188 -1.1491
   69CHL1   C23 7571   2.084   5.757   8.306 -0.4358 -0.5645 -0.6499
   69CHL1  H23A 7572   2.015   5.670   8.299 -0.0609 -0.8777 -0.4732
   69CHL1  H23B 7573   2.187   5.726   8.280  0.3444 -0.6354  2.1670
   69CHL1   C24 7574   2.065   5.817   8.443 -0.1935 -0.2307 -0.1103
   69CHL1  H24A 7575   2.133   5.905   8.452 -0.2488 -0.2090  0.1084
   69CHL1  H24B 7576   1.963   5.859   8.438  0.6386  1.9227 -0.2038
   69CHL1   C25 7577   2.075   5.722   8.563 -0.5023  0.3503 -0.2666
   69CHL1   H25 7578   1.999   5.646   8.535  0.0214 -0.4525  0.4701
   69CHL1   C26 7579   2.215   5.652   8.584  0.4272 -0.0589  0.3361
   69CHL1  H26A 7580   2.233   5.577   8.504 -0.0372 -0.3735  0.5174
   69CHL1  H26B 7581   2.301   5.721   8.577 -0.0666  0.4966 -0.4487
   69CHL1  H26C 7582   2.216   5.587   8.674  3.3994 -2.8866 -1.5238
   69CHL1   C27 7583   2.029   5.777   8.693  0.2043 -0.9592 -0.0753
   69CHL1  H27A 7584   2.090   5.862   8.729 -1.3358 -0.8749  2.6576
   69CHL1  H27B 7585   1.932   5.828   8.678  1.7943  1.7597 -1.8503
   69CHL1  H27C 7586   2.023   5.705   8.778  1.8245 -1.5639 -0.4306
   70CHL1    C3 7587   0.153   5.589   7.089  0.2677  0.3823  0.2805
   70CHL1    H3 7588   0.043   5.597   7.102 -0.0889  0.8896 -2.4904
   70CHL1    O3 7589   0.179   5.560   6.951 -0.0829  0.1052 -0.9565
   70CHL1   H3' 7590   0.124   5.487   6.923 -0.6259  0.1738 -0.1162
   70CHL1    C4 7591   0.204   5.730   7.108 -0.0016 -0.6121 -0.1855
   70CHL1   H4A 7592   0.311   5.738   7.080 -0.0613  0.6128 -0.0836
   70CHL1   H4B 7593   0.141   5.789   7.038  0.5852  2.3394  1.6209
   70CHL1    C5 7594   0.179   5.781   7.244 -0.1781 -0.1253  0.0292
   70CHL1    C6 7595   0.106   5.890   7.275 -0.1189  0.2526  0.2500
   70CHL1    H6 7596   0.059   5.945   7.192  0.8911 -0.3497 -0.7440
   70CHL1    C7 7597   0.101   5.947   7.415  0.0897 -0.3058 -0.0392
   70CHL1   H7A 7598   0.123   6.056   7.418  0.5891 -0.4086  2.4064
   70CHL1   H7B 7599  -0.004   5.937   7.448  0.5340 -0.2313  1.4636
   70CHL1    C8 7600   0.189   5.876   7.517 -0.0535  0.3490 -0.4323
   70CHL1    H8 7601   0.292   5.917   7.508  0.2179  0.3027  1.9033
   70CHL1   C14 7602   0.133   5.898   7.656  0.2772  0.4476 -0.1532
   70CHL1   H14 7603   0.034   5.848   7.664  1.5980 -2.4173 -0.7249
   70CHL1   C15 7604   0.095   6.044   7.698 -0.0407 -0.2677 -0.4396
   70CHL1  H15A 7605   0.169   6.115   7.656 -0.8544  1.0938  0.3475
   70CHL1  H15B 7606  -0.002   6.077   7.658 -0.5847 -0.0629  0.9822
   70CHL1   C16 7607   0.099   6.037   7.852 -1.1083  0.2948 -0.0808
   70CHL1  H16A 7608   0.177   6.107   7.888 -0.3141  0.5664 -2.1642
   70CHL1  H16B 7609   0.007   6.072   7.904 -1.3788  0.0038 -0.3548
   70CHL1   C17 7610   0.140   5.887   7.885  0.0231  0.5603 -0.6577
   70CHL1   H17 7611   0.047   5.827   7.880  1.2670 -1.5957  0.8254
   70CHL1   C13 7612   0.226   5.840   7.774  0.0808  1.1971  0.2229
   70CHL1   C18 7613   0.369   5.899   7.774  0.3289 -0.2579 -0.6028
   70CHL1  H18A 7614   0.446   5.847   7.834  0.6960  1.8688  0.8908
   70CHL1  H18B 7615   0.423   5.901   7.677  1.8195 -0.1705  0.2003
   70CHL1  H18C 7616   0.363   5.996   7.828 -0.5105 -0.7495  0.2123
   70CHL1   C12 7617   0.233   5.689   7.746  0.3340 -1.3221 -0.2989
   70CHL1  H12A 7618   0.295   5.640   7.824  0.2740 -1.0244 -0.0610
   70CHL1  H12B 7619   0.130   5.650   7.760 -0.5480  0.6740 -0.8266
   70CHL1   C11 7620   0.290   5.659   7.605 -0.3232  0.9375  0.0029
   70CHL1  H11A 7621   0.396   5.691   7.595  0.2544 -1.3104 -2.1414
   70CHL1  H11B 7622   0.287   5.550   7.585 -2.9223  0.5062  2.1980
   70CHL1    C9 7623   0.197   5.722   7.494 -0.1057 -0.0541  0.5364
   70CHL1    H9 7624   0.093   5.684   7.505  0.3328 -0.6766  3.0671
   70CHL1   C10 7625   0.244   5.685   7.352  0.1880  0.4451  0.2279
   70CHL1   C19 7626   0.401   5.710   7.329 -0.2851 -0.5088 -0.2716
   70CHL1  H19A 7627   0.426   5.814   7.358 -1.2885 -0.9053  2.2771
   70CHL1  H19B 7628   0.460   5.646   7.398  4.1428  3.1843 -0.1890
   70CHL1  H19C 7629   0.429   5.683   7.225  0.3192  1.2944 -0.6108
   70CHL1    C1 7630   0.205   5.539   7.328 -0.2970 -0.7089 -1.0182
   70CHL1   H1A 7631   0.269   5.476   7.393  1.1313  1.2468 -0.4380
   70CHL1   H1B 7632   0.096   5.530   7.348 -0.1990 -2.2408 -1.0186
   70CHL1    C2 7633   0.220   5.495   7.184  0.0070  0.0284 -0.1819
   70CHL1   H2A 7634   0.172   5.397   7.163 -2.8565  1.1762  0.3931
   70CHL1   H2B 7635   0.327   5.494   7.155  0.2712 -2.2473  0.7330
   70CHL1   C20 7636   0.183   5.867   8.030  0.1078  0.2005 -0.3495
   70CHL1   H20 7637   0.284   5.910   8.044 -0.8852  3.0612 -1.2413
   70CHL1   C21 7638   0.191   5.721   8.071  0.0098 -0.7957  0.3527
   70CHL1  H21A 7639   0.204   5.712   8.181  0.5587  3.7104  0.8195
   70CHL1  H21B 7640   0.285   5.678   8.028  0.9892  0.9165  0.7044
   70CHL1  H21C 7641   0.100   5.666   8.039 -0.3500  0.3213 -0.6135
   70CHL1   C22 7642   0.098   5.946   8.138 -0.7298 -0.3899 -0.2151
   70CHL1  H22A 7643   0.104   6.053   8.110 -0.1045  0.5640  3.1482
   70CHL1  H22B 7644  -0.005   5.905   8.128  0.3525 -3.6965  0.9419
   70CHL1   C23 7645   0.140   5.949   8.285 -0.4124 -0.1254  0.1065
   70CHL1  H23A 7646   0.067   6.014   8.339  1.3838  1.8474  0.2715
   70CHL1  H23B 7647   0.142   5.842   8.316  0.5423 -0.3361 -0.6522
   70CHL1   C24 7648   0.281   6.008   8.318  0.0197  0.0389  0.8237
   70CHL1  H24A 7649   0.360   5.955   8.261 -0.9388  0.5126 -1.0095
   70CHL1  H24B 7650   0.281   6.113   8.283  0.3042 -0.0695  0.4934
   70CHL1   C25 7651   0.320   5.997   8.468 -0.1902 -0.4526  0.2174
   70CHL1   H25 7652   0.238   6.052   8.520  0.9529  0.0776  1.5056
   70CHL1   C26 7653   0.344   5.851   8.523 -0.4892 -0.2786  0.0101
   70CHL1  H26A 7654   0.261   5.780   8.500 -0.6061 -0.3059  0.5193
   70CHL1  H26B 7655   0.433   5.811   8.470 -0.2733  0.7665 -0.4338
   70CHL1  H26C 7656   0.366   5.857   8.631 -0.4833 -2.0944  0.1509
   70CHL1   C27 7657   0.442   6.082   8.501  0.1752 -0.0896 -0.1449
   70CHL1  H27A 7658   0.417   6.187   8.477  0.5962  1.2302  4.4134
   70CHL1  H27B 7659   0.467   6.083   8.609 -3.0057  1.3348  0.6722
   70CHL1  H27C 7660   0.529   6.045   8.442 -1.0598  0.2396 -2.2772
   71CHL1    C3 7661   0.906   4.313   7.191 -0.7038 -0.2592 -0.0350
   71CHL1    H3 7662   0.870   4.413   7.224  0.7254 -0.0910  1.1271
   71CHL1    O3 7663   0.888   4.301   7.052 -0.2709 -0.0013 -0.3005
   71CHL1   H3' 7664   0.880   4.209   7.028 -0.5213 -0.5072  1.5411
   71CHL1    C4 7665   1.056   4.294   7.223 -0.0464 -0.2874  0.0186
   71CHL1   H4A 7666   1.096   4.194   7.198  2.8201  0.8555 -0.3019
   71CHL1   H4B 7667   1.116   4.365   7.163 -1.5590 -0.5715 -1.9101
   71CHL1    C5 7668   1.073   4.302   7.374 -0.2278  0.1744  0.3249
   71CHL1    C6 7669   1.157   4.393   7.424 -0.0424 -0.6072 -0.1032
   71CHL1    H6 7670   1.213   4.461   7.358 -1.0983 -0.9039 -1.3353
   71CHL1    C7 7671   1.177   4.418   7.569  0.0450  0.3610 -0.1451
   71CHL1   H7A 7672   1.285   4.428   7.595  0.0192  1.1579 -0.3020
   71CHL1   H7B 7673   1.132   4.513   7.605  0.4581 -0.2037  2.0314
   71CHL1    C8 7674   1.134   4.298   7.650 -0.5934 -0.0367  0.2853
   71CHL1    H8 7675   1.194   4.206   7.633  0.2865  0.7379 -0.9095
   71CHL1   C14 7676   1.136   4.341   7.800 -0.9649  0.1234 -0.5898
   71CHL1   H14 7677   1.071   4.431   7.799 -1.8234 -0.4699 -1.6150
   71CHL1   C15 7678   1.260   4.407   7.858  0.1445 -0.0149  0.0518
   71CHL1  H15A 7679   1.356   4.364   7.821 -0.7474 -0.3292 -2.0785
   71CHL1  H15B 7680   1.269   4.516   7.837 -0.8233  0.1605  0.4832
   71CHL1   C16 7681   1.246   4.389   8.008 -0.0692  0.0707  1.0784
   71CHL1  H16A 7682   1.325   4.316   8.035  0.1641  0.2995  1.0181
   71CHL1  H16B 7683   1.252   4.483   8.067 -0.2288  0.8157 -0.0371
   71CHL1   C17 7684   1.108   4.312   8.027  0.1412 -0.6928  0.0202
   71CHL1   H17 7685   1.031   4.392   8.031  1.4673  0.6325 -0.1740
   71CHL1   C13 7686   1.085   4.239   7.901 -0.0524 -0.9662 -0.2021
   71CHL1   C18 7687   1.168   4.113   7.890  0.1595  0.2975 -0.1836
   71CHL1  H18A 7688   1.167   4.073   7.786  0.8033 -0.7009  0.1853
   71CHL1  H18B 7689   1.270   4.115   7.933 -0.4943  1.4401  1.4248
   71CHL1  H18C 7690   1.109   4.033   7.940 -0.0200  0.4367 -0.1677
   71CHL1   C12 7691   0.941   4.207   7.862  0.7403 -0.1349  0.5780
   71CHL1  H12A 7692   0.910   4.119   7.922  0.6358 -0.9638 -0.6493
   71CHL1  H12B 7693   0.885   4.298   7.891  0.1069 -0.7485  1.3432
   71CHL1   C11 7694   0.925   4.163   7.717  0.5686  0.0182  0.3701
   71CHL1  H11A 7695   0.964   4.060   7.700 -1.1834 -0.2804 -2.6559
   71CHL1  H11B 7696   0.816   4.150   7.696  0.2751  0.3453  1.6182
   71CHL1    C9 7697   0.990   4.251   7.613 -0.1357  0.4859 -0.2805
   71CHL1    H9 7698   0.929   4.344   7.617 -1.8532 -0.6545  1.3005
   71CHL1   C10 7699   0.989   4.207   7.463  0.6355 -0.3547 -0.8439
   71CHL1   C19 7700   1.047   4.065   7.445  0.4198 -0.1604 -0.1409
   71CHL1  H19A 7701   1.154   4.063   7.476  0.4063 -0.8434 -0.1438
   71CHL1  H19B 7702   1.000   3.985   7.505  0.8672 -0.3107  0.0124
   71CHL1  H19C 7703   1.039   4.039   7.338 -2.1935  2.0113 -0.5706
   71CHL1    C1 7704   0.835   4.214   7.409  0.0857 -0.1602 -0.1609
   71CHL1   H1A 7705   0.772   4.140   7.462  0.1884  0.8675  1.4631
   71CHL1   H1B 7706   0.791   4.310   7.446 -1.0587 -0.5488 -0.4648
   71CHL1    C2 7707   0.817   4.203   7.254  0.3208  0.3227 -0.3625
   71CHL1   H2A 7708   0.708   4.201   7.231 -0.5260 -2.0239  3.1237
   71CHL1   H2B 7709   0.862   4.107   7.221 -2.2571 -1.4868  1.0317
   71CHL1   C20 7710   1.106   4.226   8.154 -0.4592  0.2828  0.7841
   71CHL1   H20 7711   1.161   4.130   8.141  0.2753  0.7299  0.5128
   71CHL1   C21 7712   0.961   4.176   8.192  0.1238  0.9859  0.2260
   71CHL1  H21A 7713   0.885   4.256   8.206 -2.1019 -0.9666 -0.0940
   71CHL1  H21B 7714   0.961   4.122   8.288 -0.6243  0.4039 -0.0959
   71CHL1  H21C 7715   0.926   4.096   8.123 -2.8509  1.6331  0.8398
   71CHL1   C22 7716   1.176   4.293   8.274 -0.2935 -0.3037 -0.9482
   71CHL1  H22A 7717   1.195   4.213   8.349  0.9419  0.7783 -0.0646
   71CHL1  H22B 7718   1.276   4.337   8.254  0.1390 -0.1823  1.2159
   71CHL1   C23 7719   1.096   4.407   8.341  0.1653 -0.2232  0.3842
   71CHL1  H23A 7720   1.058   4.477   8.264  0.8732 -2.0786 -1.7905
   71CHL1  H23B 7721   1.000   4.359   8.369 -0.7734  0.4450 -1.5547
   71CHL1   C24 7722   1.169   4.450   8.467 -0.3089 -0.0642 -0.8011
   71CHL1  H24A 7723   1.279   4.436   8.457 -0.1731 -0.3175  0.7229
   71CHL1  H24B 7724   1.142   4.557   8.483 -0.9283 -0.3210 -0.0827
   71CHL1   C25 7725   1.145   4.365   8.603  0.1725  0.5765  0.1946
   71CHL1   H25 7726   1.179   4.260   8.592  0.2331  0.5495  0.6198
   71CHL1   C26 7727   1.228   4.441   8.708  0.4441 -0.0278  0.2549
   71CHL1  H26A 7728   1.328   4.470   8.668  1.0657 -1.5443  0.6239
   71CHL1  H26B 7729   1.171   4.527   8.749  0.6064  0.8974 -1.3480
   71CHL1  H26C 7730   1.254   4.381   8.798  1.7600  0.5512  0.2967
   71CHL1   C27 7731   0.998   4.360   8.649  0.3184 -0.1688  0.0490
   71CHL1  H27A 7732   0.961   4.462   8.622 -1.7921 -0.7011  0.7285
   71CHL1  H27B 7733   0.941   4.286   8.589 -1.1502  1.4295 -0.6174
   71CHL1  H27C 7734   0.988   4.337   8.757  3.2610 -1.0962  0.2003
   72CHL1    C3 7735   0.286   0.672   7.105 -0.1608 -0.3359 -0.3181
   72CHL1    H3 7736   0.389   0.711   7.094 -0.1754 -0.4711 -0.9915
   72CHL1    O3 7737   0.231   0.665   6.978 -0.2510  0.3565  0.5129
   72CHL1   H3' 7738   0.149   0.615   6.985 -0.7823  1.1604  0.2594
   72CHL1    C4 7739   0.292   0.537   7.185 -0.0646 -0.0532 -0.2519
   72CHL1   H4A 7740   0.189   0.495   7.185  0.8186 -2.4385  1.5186
   72CHL1   H4B 7741   0.357   0.465   7.130 -0.9185  0.5749 -2.1775
   72CHL1    C5 7742   0.342   0.558   7.330 -0.7423  0.6445 -0.3918
   72CHL1    C6 7743   0.456   0.497   7.369  0.1102  0.0199 -0.0300
   72CHL1    H6 7744   0.516   0.452   7.289  0.2128  0.2000 -0.0563
   72CHL1    C7 7745   0.506   0.509   7.512 -0.0283 -0.6313  0.5428
   72CHL1   H7A 7746   0.546   0.411   7.546  2.2852 -0.4082 -1.2725
   72CHL1   H7B 7747   0.594   0.577   7.520  1.0420 -2.1483  2.6251
   72CHL1    C8 7748   0.400   0.560   7.612 -0.0897 -0.4139  0.7613
   72CHL1    H8 7749   0.326   0.480   7.634  0.0178 -1.2786 -1.7926
   72CHL1   C14 7750   0.467   0.605   7.740 -0.0337 -0.3972  0.2050
   72CHL1   H14 7751   0.541   0.679   7.701  1.4252 -1.9295 -0.0283
   72CHL1   C15 7752   0.556   0.502   7.818 -0.0614  0.3364  0.5413
   72CHL1  H15A 7753   0.493   0.411   7.827  0.4379  0.0848  1.7857
   72CHL1  H15B 7754   0.641   0.481   7.750 -1.6848  2.1057 -2.2308
   72CHL1   C16 7755   0.592   0.570   7.946  0.2768  0.3079 -0.4100
   72CHL1  H16A 7756   0.556   0.504   8.027 -1.4396  0.8885 -0.6605
   72CHL1  H16B 7757   0.699   0.592   7.965 -0.3089  2.7516  0.4181
   72CHL1   C17 7758   0.504   0.695   7.956 -0.3867  0.7072  0.1939
   72CHL1   H17 7759   0.564   0.775   7.908  2.8937 -1.5265  0.2560
   72CHL1   C13 7760   0.385   0.670   7.850 -0.3114 -0.0112  0.9022
   72CHL1   C18 7761   0.286   0.563   7.910 -0.9203  0.2737 -0.1689
   72CHL1  H18A 7762   0.242   0.608   8.002 -0.9799 -1.2787  0.5953
   72CHL1  H18B 7763   0.206   0.532   7.839  0.5004  0.2976 -1.8603
   72CHL1  H18C 7764   0.334   0.467   7.940 -1.2042  0.2462  0.2042
   72CHL1   C12 7765   0.321   0.794   7.787 -0.0147  0.0400  0.1404
   72CHL1  H12A 7766   0.253   0.851   7.854  0.9785 -1.8216  2.9414
   72CHL1  H12B 7767   0.409   0.857   7.762  0.4276  0.3416  2.2860
   72CHL1   C11 7768   0.240   0.758   7.661 -0.5261  0.4487  0.0742
   72CHL1  H11A 7769   0.154   0.697   7.696 -0.1893  1.0819  2.1211
   72CHL1  H11B 7770   0.187   0.847   7.619 -2.1687 -0.2470  0.5820
   72CHL1    C9 7771   0.330   0.681   7.558 -0.3242 -0.2836  0.2243
   72CHL1    H9 7772   0.411   0.754   7.537 -2.0627  1.8810  0.6474
   72CHL1   C10 7773   0.259   0.654   7.418  0.5047 -0.0772  0.1486
   72CHL1   C19 7774   0.121   0.589   7.462 -0.8867  0.0219  0.9660
   72CHL1  H19A 7775   0.142   0.504   7.530  0.8965  0.3021  0.8165
   72CHL1  H19B 7776   0.041   0.658   7.497 -2.1837 -0.8298 -0.1913
   72CHL1  H19C 7777   0.072   0.550   7.370  2.6216 -0.3976 -0.8812
   72CHL1    C1 7778   0.241   0.783   7.339  0.0805 -0.3430  0.0210
   72CHL1   H1A 7779   0.153   0.832   7.386 -1.1061 -0.4127 -2.0158
   72CHL1   H1B 7780   0.329   0.849   7.355  1.9135 -2.2784 -1.4200
   72CHL1    C2 7781   0.211   0.771   7.189  0.3272  0.1062  0.2803
   72CHL1   H2A 7782   0.230   0.872   7.148  0.5675 -0.9528 -2.4214
   72CHL1   H2B 7783   0.103   0.746   7.175 -0.1114  1.0224  1.8126
   72CHL1   C20 7784   0.462   0.733   8.103  0.1400  0.1885 -0.4944
   72CHL1   H20 7785   0.413   0.644   8.148  0.0850  0.4279 -0.0769
   72CHL1   C21 7786   0.372   0.858   8.123  0.0903 -0.0946  0.2725
   72CHL1  H21A 7787   0.278   0.847   8.065  0.4691 -1.1360 -0.1671
   72CHL1  H21B 7788   0.430   0.948   8.094 -1.5305  1.5464  1.8029
   72CHL1  H21C 7789   0.331   0.868   8.226 -2.3187  2.9323 -0.8034
   72CHL1   C22 7790   0.592   0.758   8.189 -0.3091 -0.7327  0.4691
   72CHL1  H22A 7791   0.659   0.670   8.198 -0.3477 -0.9032 -0.7732
   72CHL1  H22B 7792   0.654   0.828   8.129 -0.5783 -0.3867  0.5888
   72CHL1   C23 7793   0.575   0.824   8.331  0.0447 -0.3429 -0.1389
   72CHL1  H23A 7794   0.522   0.921   8.328  0.9554  0.1617 -0.1389
   72CHL1  H23B 7795   0.511   0.756   8.391 -1.2383  1.5748  0.7648
   72CHL1   C24 7796   0.709   0.853   8.400 -0.2752  0.0600  0.1550
   72CHL1  H24A 7797   0.761   0.757   8.424 -0.0635 -0.3414 -1.7509
   72CHL1  H24B 7798   0.772   0.901   8.322  0.5313 -2.0681 -0.5914
   72CHL1   C25 7799   0.714   0.941   8.525  0.4798  0.2142  0.3239
   72CHL1   H25 7800   0.649   1.026   8.497 -0.7327 -1.0860 -1.0505
   72CHL1   C26 7801   0.631   0.869   8.641  0.0345 -0.2265  0.3027
   72CHL1  H26A 7802   0.618   0.945   8.721  1.3289 -0.5967  0.8760
   72CHL1  H26B 7803   0.526   0.842   8.616 -2.0246  4.5921  2.5478
   72CHL1  H26C 7804   0.673   0.771   8.670 -1.1406 -1.1498 -0.9201
   72CHL1   C27 7805   0.849   0.999   8.555 -0.6262  1.1860 -0.3337
   72CHL1  H27A 7806   0.858   1.079   8.632  2.4694 -0.8283  1.6196
   72CHL1  H27B 7807   0.927   0.927   8.588 -1.2832  0.9077  0.6702
   72CHL1  H27C 7808   0.892   1.051   8.467  0.8528 -0.1543 -0.4591
   73CHL1    C3 7809   2.698   5.837   6.989 -0.3891  0.3559 -0.0014
   73CHL1    H3 7810   2.702   5.947   7.000  1.4448  0.4460 -1.1021
   73CHL1    O3 7811   2.698   5.814   6.849  0.3694  0.5736 -0.3322
   73CHL1   H3' 7812   2.684   5.721   6.832  0.5718  0.4987 -0.0938
   73CHL1    C4 7813   2.824   5.770   7.052  0.4345 -0.1505 -0.1211
   73CHL1   H4A 7814   2.820   5.664   7.019  0.1659 -0.1492 -0.1017
   73CHL1   H4B 7815   2.910   5.819   7.003  0.8829 -1.1443 -0.3391
   73CHL1    C5 7816   2.817   5.783   7.206 -0.5487  0.7880  0.5179
   73CHL1    C6 7817   2.916   5.852   7.269  0.2352 -0.5697  0.6114
   73CHL1    H6 7818   3.002   5.892   7.213  0.5606  1.5256  2.4565
   73CHL1    C7 7819   2.925   5.871   7.418  0.4536 -0.0897  0.0170
   73CHL1   H7A 7820   3.021   5.836   7.462  0.0602 -0.4483  0.5965
   73CHL1   H7B 7821   2.900   5.973   7.452 -1.7239  0.0560 -1.8022
   73CHL1    C8 7822   2.828   5.774   7.501 -0.3848  0.7638  0.0600
   73CHL1    H8 7823   2.869   5.670   7.499 -1.7681  0.1966 -0.5260
   73CHL1   C14 7824   2.812   5.817   7.641  0.5027  0.2028 -0.3742
   73CHL1   H14 7825   2.776   5.921   7.629 -0.3115 -0.1119 -0.6976
   73CHL1   C15 7826   2.946   5.833   7.723  0.1959 -0.0057 -0.1699
   73CHL1  H15A 7827   3.029   5.770   7.687  1.3733  1.5184 -0.2264
   73CHL1  H15B 7828   2.982   5.938   7.716  0.6981 -0.1217  0.5228
   73CHL1   C16 7829   2.897   5.809   7.869 -0.8376  1.0264 -0.3074
   73CHL1  H16A 7830   2.935   5.711   7.905 -0.9404  1.2064  0.2988
   73CHL1  H16B 7831   2.929   5.885   7.943 -0.8154  1.6271 -0.9279
   73CHL1   C17 7832   2.747   5.793   7.860 -0.3601 -0.4953 -0.0222
   73CHL1   H17 7833   2.705   5.892   7.832  3.9133  0.7725 -3.1414
   73CHL1   C13 7834   2.720   5.727   7.723  1.0463 -0.5948 -0.6003
   73CHL1   C18 7835   2.759   5.579   7.720  0.5442 -0.6008 -0.6956
   73CHL1  H18A 7836   2.851   5.576   7.781 -0.9253  0.9762  1.7593
   73CHL1  H18B 7837   2.684   5.531   7.786  2.5164  0.4974  2.5350
   73CHL1  H18C 7838   2.783   5.530   7.623  2.2191 -1.7376  0.2446
   73CHL1   C12 7839   2.580   5.740   7.659  0.8130 -0.5175 -0.2876
   73CHL1  H12A 7840   2.504   5.698   7.729 -0.5940  2.0494 -0.1180
   73CHL1  H12B 7841   2.542   5.845   7.653 -0.2005 -0.7930  0.8971
   73CHL1   C11 7842   2.579   5.688   7.514  0.2482  0.0299  0.6270
   73CHL1  H11A 7843   2.589   5.577   7.510 -0.4375 -0.0102 -0.9529
   73CHL1  H11B 7844   2.475   5.698   7.475 -0.4768 -3.3307  1.3725
   73CHL1    C9 7845   2.689   5.763   7.429 -0.2496  0.8969  0.3367
   73CHL1    H9 7846   2.657   5.869   7.427  0.7242  1.3265  3.1707
   73CHL1   C10 7847   2.694   5.720   7.278  0.1241  0.1718  0.6672
   73CHL1   C19 7848   2.722   5.568   7.266 -0.9579 -0.0785  0.0098
   73CHL1  H19A 7849   2.634   5.504   7.289  0.5036 -1.5383  1.9683
   73CHL1  H19B 7850   2.761   5.532   7.169  0.5009 -1.0493  0.9173
   73CHL1  H19C 7851   2.804   5.549   7.339 -0.2729  1.3406 -0.3548
   73CHL1    C1 7852   2.563   5.779   7.208 -1.1562 -0.4428 -0.3315
   73CHL1   H1A 7853   2.470   5.729   7.244 -0.9213 -1.8761 -1.6175
   73CHL1   H1B 7854   2.554   5.884   7.244 -0.3545 -0.4105 -0.2211
   73CHL1    C2 7855   2.564   5.782   7.054 -0.6327  0.5387 -0.0277
   73CHL1   H2A 7856   2.478   5.841   7.016 -0.7170  0.5771  0.2224
   73CHL1   H2B 7857   2.551   5.677   7.021  0.4031 -0.1758  1.6945
   73CHL1   C20 7858   2.666   5.736   7.972 -0.4505  0.0232 -0.3104
   73CHL1   H20 7859   2.568   5.703   7.932 -0.2821 -0.3450 -0.4274
   73CHL1   C21 7860   2.609   5.857   8.061  0.1665  0.1962 -0.5962
   73CHL1  H21A 7861   2.691   5.910   8.113  1.2346 -1.6774 -0.2559
   73CHL1  H21B 7862   2.548   5.805   8.138  0.0194  1.0063 -0.1609
   73CHL1  H21C 7863   2.543   5.906   7.986 -2.7524 -2.2585  0.1471
   73CHL1   C22 7864   2.742   5.630   8.055 -0.2547 -0.6268 -0.0975
   73CHL1  H22A 7865   2.798   5.573   7.978  1.4334  1.8747 -0.8519
   73CHL1  H22B 7866   2.826   5.675   8.112  0.6349 -0.3789 -1.5588
   73CHL1   C23 7867   2.664   5.544   8.147  0.9718  0.6042  0.0116
   73CHL1  H23A 7868   2.611   5.605   8.223 -0.2633 -0.4283  0.0188
   73CHL1  H23B 7869   2.582   5.489   8.095  0.3707  1.0846  0.4379
   73CHL1   C24 7870   2.739   5.438   8.233 -0.3052 -0.1704 -0.3606
   73CHL1  H24A 7871   2.680   5.364   8.291  2.2213 -0.5573  1.9427
   73CHL1  H24B 7872   2.796   5.383   8.155  1.0214  0.3050  0.2479
   73CHL1   C25 7873   2.852   5.494   8.328  0.2254  0.0721 -0.0378
   73CHL1   H25 7874   2.926   5.562   8.281  1.0147 -1.5131 -1.1802
   73CHL1   C26 7875   2.797   5.555   8.457  0.4591  0.2937  0.1554
   73CHL1  H26A 7876   2.875   5.577   8.533 -0.0373 -1.9115  1.3966
   73CHL1  H26B 7877   2.740   5.647   8.428 -3.8931 -2.6089 -1.6132
   73CHL1  H26C 7878   2.726   5.482   8.501 -0.2592  0.0670 -1.3077
   73CHL1   C27 7879   2.937   5.373   8.379 -0.3005 -0.0637  0.2274
   73CHL1  H27A 7880   3.027   5.405   8.436  1.5541 -1.8718 -1.5337
   73CHL1  H27B 7881   2.874   5.329   8.458 -0.7907  0.9639  0.4300
   73CHL1  H27C 7882   2.965   5.300   8.300  0.2649 -0.6889  0.9874
   74CHL1    C3 7883   0.360   1.914   7.157  0.0349 -0.0293 -0.3550
   74CHL1    H3 7884   0.337   2.023   7.160 -0.8977 -0.2188 -0.1789
   74CHL1    O3 7885   0.364   1.872   7.022  0.0534 -0.2383  0.9097
   74CHL1   H3' 7886   0.449   1.831   7.005  0.3191 -0.1443  1.9400
   74CHL1    C4 7887   0.499   1.891   7.212  0.0552  0.5537  0.5303
   74CHL1   H4A 7888   0.536   1.791   7.182 -0.4949  0.7871 -1.0737
   74CHL1   H4B 7889   0.549   1.970   7.152 -0.3805  1.4851  1.3615
   74CHL1    C5 7890   0.509   1.918   7.367 -0.8337  0.4569 -0.0516
   74CHL1    C6 7891   0.599   2.002   7.420  0.3097  0.4623  0.0736
   74CHL1    H6 7892   0.666   2.061   7.355  0.0436  2.2579  1.3424
   74CHL1    C7 7893   0.617   2.013   7.568  0.1281  0.2462 -0.6438
   74CHL1   H7A 7894   0.726   2.011   7.587  0.1165 -3.6320 -0.0010
   74CHL1   H7B 7895   0.574   2.107   7.609  0.6578  1.0341 -1.8477
   74CHL1    C8 7896   0.552   1.899   7.648 -0.2942 -0.0874  0.8292
   74CHL1    H8 7897   0.609   1.805   7.629  0.4504  0.6372 -0.6582
   74CHL1   C14 7898   0.567   1.936   7.797 -0.3017 -0.3917 -0.0492
   74CHL1   H14 7899   0.514   2.033   7.806  2.0204  1.2221 -2.5067
   74CHL1   C15 7900   0.705   1.947   7.861 -0.2651  0.1209  0.2322
   74CHL1  H15A 7901   0.783   1.875   7.828 -2.2122 -1.8707 -0.3037
   74CHL1  H15B 7902   0.754   2.040   7.826  0.3616 -0.3977 -0.2925
   74CHL1   C16 7903   0.680   1.954   8.007  0.3135  0.2101 -1.2694
   74CHL1  H16A 7904   0.746   1.886   8.065  1.6924  1.7441 -0.9865
   74CHL1  H16B 7905   0.701   2.056   8.046  1.5487 -0.8203  0.9744
   74CHL1   C17 7906   0.530   1.907   8.018 -0.7734  0.5769 -0.5485
   74CHL1   H17 7907   0.465   1.997   8.017 -2.4216 -0.5325  0.9094
   74CHL1   C13 7908   0.494   1.837   7.889 -0.3664  0.4692 -0.0226
   74CHL1   C18 7909   0.568   1.691   7.880  0.3996 -0.5681 -0.3255
   74CHL1  H18A 7910   0.509   1.625   7.946 -0.6766 -2.1883 -2.7638
   74CHL1  H18B 7911   0.554   1.644   7.781  0.1210 -2.7169  0.6906
   74CHL1  H18C 7912   0.672   1.694   7.921 -0.1488  1.1490  1.0590
   74CHL1   C12 7913   0.341   1.833   7.853 -0.4775  0.2224 -0.1085
   74CHL1  H12A 7914   0.300   1.752   7.917 -0.7161 -0.5952 -1.2608
   74CHL1  H12B 7915   0.286   1.924   7.883 -1.0172  0.1830 -0.9550
   74CHL1   C11 7916   0.308   1.806   7.704  0.1692  0.6546 -0.5130
   74CHL1  H11A 7917   0.324   1.699   7.681 -1.3396 -0.6633  3.6964
   74CHL1  H11B 7918   0.203   1.831   7.681 -0.8750 -0.1536  2.8916
   74CHL1    C9 7919   0.407   1.884   7.602  0.2288 -0.3864 -0.1612
   74CHL1    H9 7920   0.368   1.988   7.601 -1.0748 -0.8519  0.4720
   74CHL1   C10 7921   0.401   1.838   7.451 -0.3682 -0.0175 -0.1884
   74CHL1   C19 7922   0.436   1.693   7.434  0.3168  1.4123  0.2035
   74CHL1  H19A 7923   0.354   1.632   7.477  0.5882  1.6100  1.0053
   74CHL1  H19B 7924   0.453   1.643   7.336  0.4996 -1.3657  1.5545
   74CHL1  H19C 7925   0.530   1.669   7.488 -0.0311  0.4564  0.3877
   74CHL1    C1 7926   0.263   1.877   7.384 -0.1196  0.2893  0.2152
   74CHL1   H1A 7927   0.189   1.811   7.434 -0.8678  0.2657 -0.9021
   74CHL1   H1B 7928   0.232   1.983   7.401 -2.5644 -0.1883 -0.8209
   74CHL1    C2 7929   0.250   1.843   7.235  0.3966  0.3283  0.6506
   74CHL1   H2A 7930   0.151   1.875   7.196  0.9426  1.3399  0.0287
   74CHL1   H2B 7931   0.259   1.735   7.212 -2.8180  0.3110 -1.1260
   74CHL1   C20 7932   0.497   1.833   8.151 -0.4445  0.7494  0.6020
   74CHL1   H20 7933   0.408   1.767   8.135  0.6748 -1.0583  1.4830
   74CHL1   C21 7934   0.464   1.944   8.249 -0.0916 -0.1879 -1.2977
   74CHL1  H21A 7935   0.548   2.010   8.279 -0.9427  0.1618  0.4646
   74CHL1  H21B 7936   0.422   1.892   8.337 -1.4953  3.7740  0.6498
   74CHL1  H21C 7937   0.371   1.997   8.219 -1.7128 -0.8625  2.0809
   74CHL1   C22 7938   0.605   1.736   8.210 -0.2658 -0.5448 -0.3365
   74CHL1  H22A 7939   0.646   1.659   8.141  0.5822  0.1566 -0.6224
   74CHL1  H22B 7940   0.690   1.794   8.252 -0.0367  0.3677 -2.0166
   74CHL1   C23 7941   0.549   1.663   8.327 -0.2228  1.1839  0.6804
   74CHL1  H23A 7942   0.523   1.733   8.409  3.6458  2.8745  0.6670
   74CHL1  H23B 7943   0.460   1.605   8.294  0.4940  1.0540 -1.1378
   74CHL1   C24 7944   0.647   1.568   8.394  0.2874  0.0005  0.0753
   74CHL1  H24A 7945   0.699   1.500   8.323  0.4638 -1.3468  1.4409
   74CHL1  H24B 7946   0.718   1.631   8.451 -1.6283  2.0359  0.3529
   74CHL1   C25 7947   0.577   1.467   8.491 -0.2194  0.7314  0.6629
   74CHL1   H25 7948   0.489   1.419   8.443 -0.3455  0.4180  1.1925
   74CHL1   C26 7949   0.672   1.353   8.513 -0.2320 -0.6194 -0.1605
   74CHL1  H26A 7950   0.771   1.391   8.547 -0.1118 -1.8434  0.9083
   74CHL1  H26B 7951   0.631   1.293   8.596  1.0314 -1.9318 -0.4498
   74CHL1  H26C 7952   0.675   1.300   8.416  1.2690  3.2932 -2.5016
   74CHL1   C27 7953   0.529   1.539   8.617 -0.3212 -0.0006  0.1211
   74CHL1  H27A 7954   0.613   1.594   8.664  0.0990  1.7839 -2.4707
   74CHL1  H27B 7955   0.454   1.619   8.598 -1.9862 -1.2659  1.1037
   74CHL1  H27C 7956   0.477   1.472   8.689 -3.0321  1.8748  0.0565
   75CHL1    C3 7957   5.105   4.430   6.583  0.7723  0.5041  0.2053
   75CHL1    H3 7958   5.148   4.337   6.626 -1.8954  0.1103  2.2795
   75CHL1    O3 7959   5.118   4.426   6.442  0.0420  0.3077  0.1235
   75CHL1   H3' 7960   5.027   4.415   6.413 -0.3930  1.0136  1.1725
   75CHL1    C4 7961   4.952   4.441   6.611  0.5033  0.5586  0.7486
   75CHL1   H4A 7962   4.918   4.534   6.560  1.8024  2.1736  2.6931
   75CHL1   H4B 7963   4.895   4.358   6.564 -0.1647  0.5122  1.6171
   75CHL1    C5 7964   4.938   4.448   6.761 -0.1160 -0.0032 -0.5076
   75CHL1    C6 7965   4.854   4.368   6.827  0.5200 -0.1627 -0.5098
   75CHL1    H6 7966   4.792   4.295   6.773  0.8523 -0.5978 -0.3122
   75CHL1    C7 7967   4.832   4.380   6.981  0.0396 -0.3569 -0.2404
   75CHL1   H7A 7968   4.724   4.376   7.008 -0.5545 -1.6881 -2.5904
   75CHL1   H7B 7969   4.878   4.294   7.034  0.1642  0.4257  0.9613
   75CHL1    C8 7970   4.897   4.508   7.050 -0.4758 -0.1740  0.3632
   75CHL1    H8 7971   4.837   4.596   7.020 -0.4748 -0.7162 -1.3333
   75CHL1   C14 7972   4.904   4.491   7.197  0.5060 -0.0987 -0.1064
   75CHL1   H14 7973   4.976   4.408   7.215 -1.3415 -1.7887 -0.2169
   75CHL1   C15 7974   4.775   4.447   7.272  0.0921  0.4843 -0.4129
   75CHL1  H15A 7975   4.682   4.502   7.245 -0.9034 -1.0137 -0.1511
   75CHL1  H15B 7976   4.765   4.337   7.262  1.7185  0.2768  0.0071
   75CHL1   C16 7977   4.797   4.479   7.425  1.2794 -0.5399  0.7421
   75CHL1  H16A 7978   4.716   4.542   7.467  1.5099 -0.5715  1.2423
   75CHL1  H16B 7979   4.787   4.386   7.485 -2.1122  0.5467  2.0721
   75CHL1   C17 7980   4.933   4.544   7.427 -0.2587  0.5543 -0.2645
   75CHL1   H17 7981   5.000   4.456   7.439  0.4560  1.2952  1.5338
   75CHL1   C13 7982   4.960   4.604   7.286  0.0152 -0.3247 -0.4046
   75CHL1   C18 7983   4.873   4.733   7.263  0.0902  0.3684 -0.7299
   75CHL1  H18A 7984   4.768   4.708   7.290  0.3465 -0.8130 -0.7935
   75CHL1  H18B 7985   4.906   4.819   7.324 -0.2206 -1.6800  2.5563
   75CHL1  H18C 7986   4.880   4.771   7.159 -1.8524  0.3737 -0.8917
   75CHL1   C12 7987   5.104   4.637   7.227  0.2833  0.2176  0.1361
   75CHL1  H12A 7988   5.146   4.731   7.270 -0.2298 -0.8907  3.3529
   75CHL1  H12B 7989   5.171   4.549   7.242  0.1482 -0.1382 -1.2295
   75CHL1   C11 7990   5.096   4.654   7.067 -0.4235  0.1701  0.3420
   75CHL1  H11A 7991   5.039   4.748   7.049 -0.1868  0.1490 -0.6033
   75CHL1  H11B 7992   5.200   4.670   7.031 -0.1616  0.3294  1.1532
   75CHL1    C9 7993   5.035   4.530   6.996 -0.1162 -0.4312  0.3757
   75CHL1    H9 7994   5.099   4.441   7.013  1.4763  0.3739 -1.0349
   75CHL1   C10 7995   5.030   4.561   6.839 -0.4971  0.3040  0.0097
   75CHL1   C19 7996   4.964   4.692   6.799 -0.5281 -0.1788  0.3290
   75CHL1  H19A 7997   5.019   4.783   6.830 -2.8530  0.8877  1.6026
   75CHL1  H19B 7998   4.959   4.706   6.689  1.2573 -0.7637  0.1398
   75CHL1  H19C 7999   4.866   4.714   6.847  0.8139  0.8309  2.7972
   75CHL1    C1 8000   5.175   4.565   6.786 -0.1703  0.4849 -0.4997
   75CHL1   H1A 8001   5.229   4.656   6.819 -0.0185  0.0326  0.5551
   75CHL1   H1B 8002   5.230   4.479   6.830 -0.4974  1.8845  2.9793
   75CHL1    C2 8003   5.179   4.552   6.637  0.1276  0.2161  0.6292
   75CHL1   H2A 8004   5.286   4.549   6.607  0.3733  1.0595  1.3528
   75CHL1   H2B 8005   5.139   4.649   6.600  1.1036 -0.0401 -1.2251
   75CHL1   C20 8006   4.954   4.638   7.543 -0.1253  0.2848  0.0038
   75CHL1   H20 8007   4.895   4.729   7.522 -1.0499 -0.3692 -0.3078
   75CHL1   C21 8008   5.105   4.665   7.557  0.0072  0.2205  0.0202
   75CHL1  H21A 8009   5.160   4.709   7.471  3.1412  0.1688  1.8675
   75CHL1  H21B 8010   5.157   4.575   7.598  1.4019  0.8577 -0.3137
   75CHL1  H21C 8011   5.115   4.740   7.637  1.7105  0.3668 -0.2939
   75CHL1   C22 8012   4.892   4.601   7.676 -0.6122 -0.7474  0.7799
   75CHL1  H22A 8013   4.906   4.688   7.744 -3.5235  1.5494 -1.2874
   75CHL1  H22B 8014   4.782   4.592   7.666 -0.5950  0.1849 -0.5606
   75CHL1   C23 8015   4.939   4.478   7.746 -0.1534  0.2353 -0.4575
   75CHL1  H23A 8016   4.911   4.388   7.686  0.4683 -0.1280 -0.2136
   75CHL1  H23B 8017   5.049   4.471   7.736 -0.0903  0.1388  0.2660
   75CHL1   C24 8018   4.899   4.469   7.893 -0.0619 -0.1350  0.3477
   75CHL1  H24A 8019   4.796   4.507   7.910 -0.4824 -0.4511 -1.2741
   75CHL1  H24B 8020   4.884   4.364   7.924  1.7465 -0.1746  1.2237
   75CHL1   C25 8021   4.990   4.548   7.993  0.1484  0.1218  0.1972
   75CHL1   H25 8022   5.002   4.653   7.959  3.5179 -0.5653 -1.1470
   75CHL1   C26 8023   4.923   4.564   8.135 -0.0941  0.4041 -0.0844
   75CHL1  H26A 8024   4.841   4.638   8.123  0.0944  0.2250 -3.0639
   75CHL1  H26B 8025   4.894   4.459   8.159 -2.3180  1.0151  0.0787
   75CHL1  H26C 8026   4.990   4.604   8.214 -0.9117 -1.2008  1.5075
   75CHL1   C27 8027   5.122   4.485   8.002 -0.1221  0.2873 -0.9601
   75CHL1  H27A 8028   5.112   4.384   8.046 -2.2423  0.2432 -1.4392
   75CHL1  H27B 8029   5.170   4.475   7.902 -0.5432  1.3138 -1.2789
   75CHL1  H27C 8030   5.188   4.540   8.072 -0.8608  0.4958 -0.4105
   76CHL1    C3 8031   1.427   1.010   7.227  0.1527 -0.2470  0.3549
   76CHL1    H3 8032   1.324   0.985   7.262 -0.5749  2.9048  0.7061
   76CHL1    O3 8033   1.431   1.041   7.084  0.0542 -0.4694  0.2292
   76CHL1   H3' 8034   1.399   0.961   7.043 -0.8689  0.5574 -1.1240
   76CHL1    C4 8035   1.473   1.135   7.300  0.8182  0.0447 -0.7537
   76CHL1   H4A 8036   1.567   1.178   7.258  0.0059  1.6671 -0.9812
   76CHL1   H4B 8037   1.408   1.225   7.294  1.9230  1.0657  1.4237
   76CHL1    C5 8038   1.503   1.097   7.449 -0.7247 -0.0640  0.2030
   76CHL1    C6 8039   1.433   1.154   7.542  0.3768 -0.1556 -0.0159
   76CHL1    H6 8040   1.358   1.231   7.520  1.4656  1.1372  0.6114
   76CHL1    C7 8041   1.464   1.142   7.689 -0.6626 -0.1209 -0.9046
   76CHL1   H7A 8042   1.464   1.238   7.744 -0.8073  1.1596 -3.0335
   76CHL1   H7B 8043   1.383   1.088   7.743 -0.0556 -0.7211 -0.5740
   76CHL1    C8 8044   1.592   1.061   7.714  0.1231  0.2043  0.3696
   76CHL1    H8 8045   1.671   1.138   7.701  0.4895 -0.4207 -1.2457
   76CHL1   C14 8046   1.591   1.008   7.863  0.8849  0.2540  0.9875
   76CHL1   H14 8047   1.512   0.930   7.861  2.0561 -1.0426 -2.7342
   76CHL1   C15 8048   1.551   1.104   7.971 -0.7290  0.2120  0.7043
   76CHL1  H15A 8049   1.627   1.185   7.972  1.9071 -2.1063  1.0225
   76CHL1  H15B 8050   1.446   1.140   7.966 -0.5920  0.6055  0.5939
   76CHL1   C16 8051   1.589   1.026   8.101 -0.2903 -0.2642 -0.1120
   76CHL1  H16A 8052   1.642   1.097   8.168 -2.2164  1.9742 -0.8482
   76CHL1  H16B 8053   1.498   1.002   8.161  0.1014 -1.5659  0.0074
   76CHL1   C17 8054   1.671   0.900   8.052  0.2527  0.3052  0.7345
   76CHL1   H17 8055   1.601   0.814   8.044 -1.7675  1.9387 -0.2943
   76CHL1   C13 8056   1.715   0.933   7.909 -0.5024  1.0963 -0.3871
   76CHL1   C18 8057   1.840   1.020   7.909  0.5113 -0.1575  0.1610
   76CHL1  H18A 8058   1.928   0.954   7.923  0.1360 -0.8354 -0.5714
   76CHL1  H18B 8059   1.850   1.056   7.804  1.2510 -0.6386  0.0607
   76CHL1  H18C 8060   1.832   1.092   7.993  2.1207  0.6188 -0.3263
   76CHL1   C12 8061   1.738   0.805   7.820  0.3419  0.1402  0.5680
   76CHL1  H12A 8062   1.841   0.765   7.835 -0.6556 -3.1281 -0.3914
   76CHL1  H12B 8063   1.666   0.721   7.828  0.5031 -0.4125 -2.4602
   76CHL1   C11 8064   1.727   0.852   7.665  0.2679 -0.1314  1.1347
   76CHL1  H11A 8065   1.806   0.927   7.644 -1.7845  1.6195 -0.7434
   76CHL1  H11B 8066   1.722   0.763   7.599 -0.4707  0.9126 -0.2682
   76CHL1    C9 8067   1.604   0.942   7.625  1.0186 -0.1921  0.3717
   76CHL1    H9 8068   1.520   0.870   7.636  0.5221  0.6255  2.3659
   76CHL1   C10 8069   1.597   0.981   7.470 -0.2067  0.7713 -0.7674
   76CHL1   C19 8070   1.744   1.028   7.434 -0.4564 -0.4526  0.5070
   76CHL1  H19A 8071   1.817   0.944   7.424 -0.2787 -0.0930 -1.6006
   76CHL1  H19B 8072   1.731   1.068   7.332 -0.8700  0.2242  0.8223
   76CHL1  H19C 8073   1.776   1.107   7.505 -1.3509 -1.1746  1.7457
   76CHL1    C1 8074   1.541   0.856   7.393 -0.6281 -0.8082  0.1278
   76CHL1   H1A 8075   1.608   0.768   7.400 -0.1261 -0.8124 -3.1528
   76CHL1   H1B 8076   1.443   0.826   7.435 -0.3575 -1.4982  0.2845
   76CHL1    C2 8077   1.521   0.890   7.243  0.1424  0.2188 -0.5568
   76CHL1   H2A 8078   1.472   0.807   7.189 -0.0673  0.1947 -0.3333
   76CHL1   H2B 8079   1.623   0.918   7.208  0.6563 -0.5358  0.2866
   76CHL1   C20 8080   1.769   0.837   8.157 -0.4751 -0.6465 -0.0911
   76CHL1   H20 8081   1.851   0.911   8.171 -1.5006  0.6371 -0.6275
   76CHL1   C21 8082   1.849   0.715   8.102 -0.0642  0.3520 -0.2705
   76CHL1  H21A 8083   1.915   0.669   8.179  1.2965  1.3896 -0.7796
   76CHL1  H21B 8084   1.921   0.726   8.017  2.6902 -2.3386  1.4969
   76CHL1  H21C 8085   1.766   0.646   8.073 -0.2233  0.1786  0.5925
   76CHL1   C22 8086   1.713   0.796   8.291 -0.2203  0.0762  0.5278
   76CHL1  H22A 8087   1.650   0.883   8.321 -0.7215 -0.6913  1.7958
   76CHL1  H22B 8088   1.642   0.710   8.285 -0.6000  0.4349 -0.3200
   76CHL1   C23 8089   1.809   0.765   8.401  0.3036  0.2563 -0.6002
   76CHL1  H23A 8090   1.868   0.673   8.382 -1.1336 -0.6747 -0.6943
   76CHL1  H23B 8091   1.871   0.857   8.410 -0.8609  1.1168 -1.0575
   76CHL1   C24 8092   1.735   0.736   8.531 -0.0022  0.0807 -0.4797
   76CHL1  H24A 8093   1.689   0.833   8.562  0.6925  0.4579 -0.6107
   76CHL1  H24B 8094   1.666   0.650   8.515  1.8848 -1.7000  0.5082
   76CHL1   C25 8095   1.824   0.677   8.644  0.1004 -0.9061  0.9619
   76CHL1   H25 8096   1.861   0.581   8.602 -0.8910 -0.1278 -1.9853
   76CHL1   C26 8097   1.950   0.763   8.672  0.5860 -0.2732  0.2651
   76CHL1  H26A 8098   1.913   0.863   8.703  0.1664 -1.0186  2.3451
   76CHL1  H26B 8099   2.008   0.710   8.751 -0.4947  0.0378  1.2894
   76CHL1  H26C 8100   2.009   0.763   8.578 -2.3611  1.2589 -1.7355
   76CHL1   C27 8101   1.750   0.650   8.776  0.3663 -0.5692 -0.1709
   76CHL1  H27A 8102   1.712   0.747   8.816  0.5266 -0.6035  0.0672
   76CHL1  H27B 8103   1.664   0.581   8.762 -0.7075  0.5964  0.4815
   76CHL1  H27C 8104   1.824   0.611   8.849  0.6900  0.1467 -0.1093
   77CHL1    C3 8105   0.011   3.592   6.771  0.4751 -0.2582  0.0869
   77CHL1    H3 8106  -0.087   3.560   6.813 -0.9993  3.1628 -0.4109
   77CHL1    O3 8107   0.013   3.584   6.631 -0.0490 -0.2871  0.1492
   77CHL1   H3' 8108  -0.073   3.617   6.603  0.7842  0.3924 -1.7916
   77CHL1    C4 8109   0.023   3.742   6.813 -0.1696  1.1185  0.7962
   77CHL1   H4A 8110   0.120   3.781   6.776 -0.5169 -0.9902 -2.8211
   77CHL1   H4B 8111  -0.065   3.793   6.768 -0.2784  0.5623  0.3735
   77CHL1    C5 8112   0.029   3.761   6.963 -0.3708  0.1123  0.6563
   77CHL1    C6 8113  -0.057   3.840   7.026 -0.1230  0.2861 -0.2684
   77CHL1    H6 8114  -0.130   3.890   6.960  0.0412 -2.6568 -2.9428
   77CHL1    C7 8115  -0.067   3.860   7.178 -0.1493  0.1744 -0.1294
   77CHL1   H7A 8116  -0.076   3.968   7.203 -0.7249 -0.1424  1.1180
   77CHL1   H7B 8117  -0.160   3.815   7.218  0.3692  0.1479  1.1060
   77CHL1    C8 8118   0.055   3.799   7.260 -0.0605  0.7971  0.6472
   77CHL1    H8 8119   0.137   3.874   7.251 -0.8215  1.5113 -0.9558
   77CHL1   C14 8120   0.010   3.778   7.406 -0.3596  0.2344  0.3673
   77CHL1   H14 8121  -0.065   3.697   7.393 -0.9235  1.0926 -2.5356
   77CHL1   C15 8122  -0.063   3.887   7.485 -0.3301 -0.6903  0.4496
   77CHL1  H15A 8123  -0.020   3.989   7.482 -1.5311 -0.1200  1.4663
   77CHL1  H15B 8124  -0.170   3.892   7.455 -0.5697 -1.5604  1.1155
   77CHL1   C16 8125  -0.050   3.836   7.630 -0.5080 -0.6609 -0.2816
   77CHL1  H16A 8126  -0.011   3.921   7.689 -2.2062  0.7466 -1.0662
   77CHL1  H16B 8127  -0.151   3.812   7.669 -0.3128 -1.8228 -0.4667
   77CHL1   C17 8128   0.051   3.714   7.639  0.7493 -0.6492  0.1156
   77CHL1   H17 8129  -0.011   3.622   7.633  0.6785 -0.5449 -0.9687
   77CHL1   C13 8130   0.121   3.729   7.495  0.1840  0.4441 -0.6469
   77CHL1   C18 8131   0.234   3.838   7.500  0.8701  0.0145  0.3377
   77CHL1  H18A 8132   0.206   3.937   7.543  2.6726  1.2762 -1.2127
   77CHL1  H18B 8133   0.322   3.790   7.548  1.2006 -3.2484 -3.0296
   77CHL1  H18C 8134   0.265   3.865   7.397 -0.8347  1.6479  0.2097
   77CHL1   C12 8135   0.184   3.595   7.435  0.2727  0.6554  1.0035
   77CHL1  H12A 8136   0.276   3.573   7.493 -0.4516 -1.1197  1.5406
   77CHL1  H12B 8137   0.115   3.509   7.446  1.2390 -0.6668 -2.2128
   77CHL1   C11 8138   0.220   3.617   7.290  0.7076  0.3666  0.0078
   77CHL1  H11A 8139   0.312   3.678   7.278 -0.0294  1.1056 -2.3791
   77CHL1  H11B 8140   0.262   3.519   7.258 -0.5140 -1.3338  3.1855
   77CHL1    C9 8141   0.104   3.670   7.193 -0.3456 -0.2132  0.6377
   77CHL1    H9 8142   0.016   3.603   7.203  1.6591 -3.0559  0.4178
   77CHL1   C10 8143   0.134   3.675   7.040 -0.1709  0.4711  0.5259
   77CHL1   C19 8144   0.275   3.740   7.009 -0.0241  0.4194  0.0340
   77CHL1  H19A 8145   0.368   3.681   7.028  1.7299  2.4165 -1.7615
   77CHL1  H19B 8146   0.283   3.781   6.906  1.2948  0.0953 -0.0180
   77CHL1  H19C 8147   0.283   3.828   7.077  1.0921  0.6866 -0.4133
   77CHL1    C1 8148   0.125   3.526   6.985 -0.4362 -0.0114  0.3091
   77CHL1   H1A 8149   0.221   3.482   7.019 -0.3010 -2.3500 -2.6739
   77CHL1   H1B 8150   0.038   3.477   7.033  0.7044 -0.4789  1.9803
   77CHL1    C2 8151   0.116   3.509   6.828  0.1582 -0.6345 -0.3890
   77CHL1   H2A 8152   0.087   3.402   6.819  1.1620 -1.0327  0.7669
   77CHL1   H2B 8153   0.215   3.527   6.781  0.0402 -1.1008 -0.8203
   77CHL1   C20 8154   0.135   3.716   7.763 -0.2829  0.0653  0.2269
   77CHL1   H20 8155   0.210   3.798   7.765 -1.9406  1.6515  1.3031
   77CHL1   C21 8156   0.219   3.586   7.767 -0.2609  0.6405 -0.1947
   77CHL1  H21A 8157   0.272   3.590   7.865  0.7517 -0.1183 -0.6985
   77CHL1  H21B 8158   0.295   3.594   7.686  1.1180 -3.5041  0.4492
   77CHL1  H21C 8159   0.158   3.494   7.759  0.6821  0.0282 -0.5224
   77CHL1   C22 8160   0.061   3.734   7.900 -0.7066 -0.2992 -0.0377
   77CHL1  H22A 8161   0.136   3.768   7.974 -0.7994  2.0282 -0.9599
   77CHL1  H22B 8162  -0.009   3.818   7.882 -0.1896  0.4152  1.1860
   77CHL1   C23 8163  -0.004   3.612   7.950  0.6672 -0.1630  0.4904
   77CHL1  H23A 8164  -0.042   3.552   7.864  1.6383 -1.9443  1.2406
   77CHL1  H23B 8165   0.073   3.547   7.998  2.5044  0.8289 -1.0046
   77CHL1   C24 8166  -0.120   3.646   8.042  0.0109 -0.2775 -1.3245
   77CHL1  H24A 8167  -0.089   3.723   8.116 -0.6774  0.5006 -1.8201
   77CHL1  H24B 8168  -0.187   3.703   7.974 -0.2496  0.0193 -0.8247
   77CHL1   C25 8169  -0.188   3.530   8.100 -0.4424  0.0086 -0.2773
   77CHL1   H25 8170  -0.203   3.458   8.017  0.0888 -1.1645  0.6153
   77CHL1   C26 8171  -0.105   3.476   8.210 -0.2872  0.1799  0.3689
   77CHL1  H26A 8172  -0.004   3.446   8.176 -0.2209 -1.1237  1.5905
   77CHL1  H26B 8173  -0.084   3.553   8.287  0.6519 -2.2076  2.6641
   77CHL1  H26C 8174  -0.150   3.396   8.274 -0.5830  0.9054  1.0888
   77CHL1   C27 8175  -0.333   3.574   8.137 -0.2914  0.2190 -0.9067
   77CHL1  H27A 8176  -0.392   3.592   8.045 -0.4154  2.1052 -0.4875
   77CHL1  H27B 8177  -0.379   3.487   8.190 -0.2519  0.2277 -0.8583
   77CHL1  H27C 8178  -0.328   3.666   8.198  1.1522  1.2056 -2.4322
   78CHL1    C3 8179   4.101   2.189   6.912  0.1250  0.0491 -0.0600
   78CHL1    H3 8180   4.182   2.177   6.986  0.3406 -0.0123 -0.3025
   78CHL1    O3 8181   4.139   2.162   6.780  0.0511  0.2216  0.8891
   78CHL1   H3' 8182   4.059   2.175   6.729 -0.3373 -0.1797  1.3803
   78CHL1    C4 8183   3.983   2.105   6.954 -0.0060 -0.4060 -0.8660
   78CHL1   H4A 8184   3.910   2.124   6.872 -1.1414  1.9155  0.5804
   78CHL1   H4B 8185   4.021   2.001   6.944 -1.0612 -0.7855 -1.0564
   78CHL1    C5 8186   3.915   2.141   7.084  0.1077 -0.2375  0.0469
   78CHL1    C6 8187   3.902   2.057   7.189  0.2654 -0.3373 -0.0850
   78CHL1    H6 8188   3.932   1.952   7.173 -2.6675 -1.1968 -0.4393
   78CHL1    C7 8189   3.840   2.088   7.328 -0.5918  0.3436  0.3031
   78CHL1   H7A 8190   3.781   2.001   7.364 -0.6511  1.0211  1.9478
   78CHL1   H7B 8191   3.914   2.111   7.408  0.9273 -0.8842 -0.6951
   78CHL1    C8 8192   3.758   2.216   7.313 -0.2247 -0.3687 -0.3546
   78CHL1    H8 8193   3.667   2.191   7.253 -0.1332 -1.5857 -0.0210
   78CHL1   C14 8194   3.714   2.272   7.449  0.5365 -0.0694  0.2184
   78CHL1   H14 8195   3.812   2.283   7.500  0.5338  1.1525 -0.0133
   78CHL1   C15 8196   3.635   2.190   7.551  0.8018 -0.2375  0.1540
   78CHL1  H15A 8197   3.537   2.153   7.513  1.8648 -2.3666 -0.6556
   78CHL1  H15B 8198   3.701   2.105   7.576 -0.2800 -0.9113  0.7958
   78CHL1   C16 8199   3.589   2.290   7.662 -0.4811  0.5984  0.0450
   78CHL1  H16A 8200   3.478   2.288   7.665 -0.4866  0.4774 -0.2213
   78CHL1  H16B 8201   3.632   2.265   7.762 -0.3430  1.2833  0.1575
   78CHL1   C17 8202   3.632   2.433   7.620  0.5270 -0.4537 -0.5751
   78CHL1   H17 8203   3.727   2.456   7.673 -0.1553  0.3425  0.3364
   78CHL1   C13 8204   3.655   2.416   7.462  0.6133  0.4905  0.0652
   78CHL1   C18 8205   3.515   2.412   7.385 -0.4238  0.6206  0.1939
   78CHL1  H18A 8206   3.512   2.387   7.277 -3.6530 -2.8823  0.8989
   78CHL1  H18B 8207   3.436   2.354   7.437  0.0947  0.5366  0.9130
   78CHL1  H18C 8208   3.476   2.516   7.383 -2.9822 -0.3001 -1.7258
   78CHL1   C12 8209   3.750   2.513   7.391 -0.1668  0.0721  0.4500
   78CHL1  H12A 8210   3.709   2.616   7.387  0.3295  0.2375 -0.6622
   78CHL1  H12B 8211   3.847   2.514   7.446  0.6399  0.7395 -0.9267
   78CHL1   C11 8212   3.770   2.468   7.243 -0.1237  0.0085  0.1754
   78CHL1  H11A 8213   3.672   2.471   7.189 -1.1710  0.7658  2.0241
   78CHL1  H11B 8214   3.833   2.549   7.200 -0.6199 -0.8782 -2.4335
   78CHL1    C9 8215   3.838   2.331   7.235 -0.3286  0.2273 -0.0012
   78CHL1    H9 8216   3.932   2.339   7.295 -0.7130 -0.4523  0.7122
   78CHL1   C10 8217   3.873   2.285   7.093  0.3660  0.5399 -0.3941
   78CHL1   C19 8218   3.747   2.308   7.002 -0.3642  0.2500  0.0701
   78CHL1  H19A 8219   3.740   2.253   6.905  0.5796 -0.0503  0.1630
   78CHL1  H19B 8220   3.650   2.282   7.051 -0.3478 -0.3645 -0.2185
   78CHL1  H19C 8221   3.737   2.416   6.978  0.5828  0.5948  1.1437
   78CHL1    C1 8222   3.992   2.369   7.038 -0.1986 -0.2086  0.4613
   78CHL1   H1A 8223   3.966   2.477   7.039  1.9961  0.4000 -0.8080
   78CHL1   H1B 8224   4.074   2.359   7.112  2.2085  2.0511 -1.7042
   78CHL1    C2 8225   4.052   2.338   6.899 -0.0490  0.1482 -0.7894
   78CHL1   H2A 8226   4.147   2.392   6.877 -0.8954  1.7990 -0.4616
   78CHL1   H2B 8227   3.980   2.351   6.816  0.2155 -3.1295 -1.6681
   78CHL1   C20 8228   3.528   2.538   7.662  0.3022  0.0152 -0.5785
   78CHL1   H20 8229   3.429   2.522   7.613 -0.5883  2.3258  0.3044
   78CHL1   C21 8230   3.566   2.678   7.619  0.2774 -0.1030  0.3145
   78CHL1  H21A 8231   3.565   2.678   7.508 -0.7035  0.4909  0.3139
   78CHL1  H21B 8232   3.662   2.718   7.657  0.4920  0.0432 -0.3788
   78CHL1  H21C 8233   3.478   2.740   7.645 -1.1610 -1.7474 -0.4083
   78CHL1   C22 8234   3.490   2.536   7.814 -0.2087 -0.3917  0.1932
   78CHL1  H22A 8235   3.412   2.613   7.832 -0.6608 -1.4468  3.5629
   78CHL1  H22B 8236   3.450   2.437   7.843  0.8988 -0.7577  0.5474
   78CHL1   C23 8237   3.612   2.569   7.908  0.5539  0.4986 -0.2498
   78CHL1  H23A 8238   3.697   2.502   7.882  1.0504  0.6866  0.8431
   78CHL1  H23B 8239   3.644   2.670   7.875 -0.3656  0.3772 -1.5716
   78CHL1   C24 8240   3.563   2.543   8.047  0.4204 -0.4050 -0.1272
   78CHL1  H24A 8241   3.481   2.615   8.067  1.5147  0.6502  0.6562
   78CHL1  H24B 8242   3.516   2.446   8.075 -0.2067 -0.1744 -0.3661
   78CHL1   C25 8243   3.668   2.573   8.149 -0.6515 -0.1028  0.1935
   78CHL1   H25 8244   3.717   2.670   8.125 -0.7081  0.1704  1.1708
   78CHL1   C26 8245   3.614   2.578   8.286  0.3339 -0.3939  0.2797
   78CHL1  H26A 8246   3.694   2.612   8.355  0.7501 -1.6444  0.4288
   78CHL1  H26B 8247   3.520   2.637   8.298 -0.7813 -1.6505 -1.6859
   78CHL1  H26C 8248   3.583   2.475   8.315  0.5473  0.0007  2.0397
   78CHL1   C27 8249   3.775   2.466   8.150  0.3251  0.5873 -0.0937
   78CHL1  H27A 8250   3.742   2.371   8.197 -0.0583  0.7842  0.0410
   78CHL1  H27B 8251   3.811   2.454   8.046 -0.3467  0.0481 -0.2660
   78CHL1  H27C 8252   3.868   2.492   8.207  1.0974 -0.8340 -0.6514
   79CHL1    C3 8253   3.790   5.656   7.040  0.4099 -0.6399  0.8898
   79CHL1    H3 8254   3.823   5.556   7.004  0.0220  0.1114 -1.7765
   79CHL1    O3 8255   3.737   5.734   6.933  0.2868 -0.2542 -0.1634
   79CHL1   H3' 8256   3.805   5.738   6.865  0.0177 -1.9057 -0.5742
   79CHL1    C4 8257   3.689   5.634   7.151 -0.0915 -0.6680  0.4166
   79CHL1   H4A 8258   3.625   5.724   7.166 -0.8191 -1.0758 -0.1578
   79CHL1   H4B 8259   3.621   5.557   7.108  0.2803 -0.4908 -0.5062
   79CHL1    C5 8260   3.753   5.584   7.281 -0.2110 -0.3866 -0.4026
   79CHL1    C6 8261   3.711   5.467   7.335  1.0023 -0.1308  0.4365
   79CHL1    H6 8262   3.630   5.412   7.284  0.7747  0.8332 -0.2698
   79CHL1    C7 8263   3.763   5.415   7.460  0.9095  0.2516  0.0895
   79CHL1   H7A 8264   3.681   5.385   7.527  1.2318  0.0205  0.3791
   79CHL1   H7B 8265   3.825   5.324   7.448  1.1100  0.4142 -0.1317
   79CHL1    C8 8266   3.843   5.524   7.542 -0.0798 -0.0038 -0.5441
   79CHL1    H8 8267   3.773   5.596   7.590  0.8108  1.2967 -1.1300
   79CHL1   C14 8268   3.929   5.454   7.655  0.0370 -0.7868 -0.0634
   79CHL1   H14 8269   4.008   5.399   7.600  1.2911 -1.0305  1.8828
   79CHL1   C15 8270   3.853   5.362   7.754  1.1309 -0.1153 -0.6901
   79CHL1  H15A 8271   3.753   5.408   7.768  1.3169  0.6290 -1.7257
   79CHL1  H15B 8272   3.824   5.269   7.701 -3.8781  0.5782  0.3436
   79CHL1   C16 8273   3.933   5.345   7.879 -0.5801 -0.0622  0.2310
   79CHL1  H16A 8274   3.877   5.377   7.969 -1.5104 -0.3511 -0.2388
   79CHL1  H16B 8275   3.973   5.243   7.897  1.8458  0.7542 -0.1254
   79CHL1   C17 8276   4.057   5.444   7.853 -0.8053 -0.6713 -0.4966
   79CHL1   H17 8277   4.132   5.382   7.798 -0.0682 -1.7174  1.5678
   79CHL1   C13 8278   4.010   5.547   7.746  0.3001  0.0649  0.7567
   79CHL1   C18 8279   3.910   5.640   7.822 -0.8369  0.2434 -0.1461
   79CHL1  H18A 8280   3.824   5.587   7.866 -2.3026  1.2583 -1.6559
   79CHL1  H18B 8281   3.966   5.704   7.894  1.3355 -1.0888 -0.5682
   79CHL1  H18C 8282   3.858   5.714   7.757 -0.3699 -0.2906 -1.1597
   79CHL1   C12 8283   4.110   5.624   7.653  0.0024  1.4599 -0.1593
   79CHL1  H12A 8284   4.183   5.692   7.702  0.2166  0.4720  0.9207
   79CHL1  H12B 8285   4.173   5.555   7.593  1.1222  1.0652  1.4233
   79CHL1   C11 8286   4.036   5.700   7.552  0.0074 -0.8148  0.1826
   79CHL1  H11A 8287   3.968   5.778   7.591  1.3415  1.2902 -1.5031
   79CHL1  H11B 8288   4.113   5.745   7.486 -0.4167  0.7391  0.7159
   79CHL1    C9 8289   3.942   5.609   7.461  0.5925  0.1549  0.3741
   79CHL1    H9 8290   4.002   5.530   7.413  1.2905  0.4088  0.8172
   79CHL1   C10 8291   3.872   5.671   7.334  1.2158 -0.3702 -0.6425
   79CHL1   C19 8292   3.809   5.800   7.377  0.1088  0.0722 -0.9444
   79CHL1  H19A 8293   3.747   5.848   7.298  1.3093 -0.1788 -2.0903
   79CHL1  H19B 8294   3.748   5.806   7.469  1.7773  0.7306  0.1775
   79CHL1  H19C 8295   3.888   5.876   7.397 -2.5183  2.3344  1.7324
   79CHL1    C1 8296   3.970   5.683   7.216 -0.5149  0.0064  0.1637
   79CHL1   H1A 8297   4.052   5.751   7.246  0.8069 -1.2272 -0.5498
   79CHL1   H1B 8298   4.008   5.581   7.196 -1.3250 -0.0276 -1.3438
   79CHL1    C2 8299   3.910   5.742   7.085  0.4106  0.3709 -0.0256
   79CHL1   H2A 8300   3.977   5.748   6.998 -1.0655 -1.4588 -1.3699
   79CHL1   H2B 8301   3.868   5.842   7.109  0.4894  0.9203 -2.0200
   79CHL1   C20 8302   4.118   5.488   7.985 -0.3648  0.0295  0.0760
   79CHL1   H20 8303   4.047   5.555   8.037  1.5680 -0.5884  3.9551
   79CHL1   C21 8304   4.254   5.561   7.962 -0.8189 -0.7409 -0.2079
   79CHL1  H21A 8305   4.300   5.590   8.058  1.6718  0.1048 -1.5672
   79CHL1  H21B 8306   4.224   5.650   7.902 -1.1947 -2.4619 -2.7788
   79CHL1  H21C 8307   4.333   5.498   7.916  0.4181  0.3921  0.3403
   79CHL1   C22 8308   4.138   5.373   8.085 -0.7048 -0.8218  0.1783
   79CHL1  H22A 8309   4.052   5.302   8.089  0.2336 -2.3940 -3.2805
   79CHL1  H22B 8310   4.224   5.311   8.050  0.1134  0.0050  0.6939
   79CHL1   C23 8311   4.160   5.430   8.227  0.0797 -0.1692  1.1297
   79CHL1  H23A 8312   4.239   5.507   8.239  1.5513 -1.0111 -2.2102
   79CHL1  H23B 8313   4.066   5.478   8.263 -0.7534 -1.2311  0.4474
   79CHL1   C24 8314   4.192   5.318   8.328  0.0281  0.7043  0.1540
   79CHL1  H24A 8315   4.190   5.359   8.431  1.7885 -0.1432  0.5585
   79CHL1  H24B 8316   4.112   5.241   8.335 -1.4664  2.2956  1.4324
   79CHL1   C25 8317   4.327   5.245   8.311 -0.3503 -0.1600 -0.3214
   79CHL1   H25 8318   4.339   5.178   8.223  1.6087 -1.5064  0.8770
   79CHL1   C26 8319   4.438   5.350   8.289 -0.9969 -0.1726  0.2310
   79CHL1  H26A 8320   4.419   5.425   8.209  0.7992  0.7295  0.6003
   79CHL1  H26B 8321   4.468   5.397   8.385  0.6039 -0.8944  0.1266
   79CHL1  H26C 8322   4.526   5.288   8.261 -0.1160  1.4309 -0.6269
   79CHL1   C27 8323   4.354   5.151   8.433  0.6071  1.0339 -0.0676
   79CHL1  H27A 8324   4.268   5.082   8.432  1.1685  0.3256 -0.0224
   79CHL1  H27B 8325   4.444   5.086   8.426 -0.3290 -0.8112  3.1370
   79CHL1  H27C 8326   4.357   5.216   8.523  0.6979  3.7866 -1.9019
   80CHL1    C3 8327   6.066   3.988   6.901 -0.4766  0.0879 -0.3266
   80CHL1    H3 8328   6.122   4.070   6.952  0.9319 -0.6366 -0.6552
   80CHL1    O3 8329   6.080   3.982   6.762  0.7133  0.0734 -0.1613
   80CHL1   H3' 8330   6.021   4.048   6.724 -0.2617 -0.1932  0.8436
   80CHL1    C4 8331   6.111   3.844   6.958  0.2310 -0.1517 -0.2339
   80CHL1   H4A 8332   6.043   3.784   6.892  0.1875  1.3185 -1.5907
   80CHL1   H4B 8333   6.216   3.835   6.922  0.9900  1.5237  1.4492
   80CHL1    C5 8334   6.085   3.817   7.105  0.0051 -0.0372 -0.1399
   80CHL1    C6 8335   6.187   3.775   7.183 -0.0359 -0.0056 -0.5512
   80CHL1    H6 8336   6.285   3.763   7.134  0.8602  0.0117  1.1821
   80CHL1    C7 8337   6.172   3.754   7.330 -0.0750  0.1929 -0.3903
   80CHL1   H7A 8338   6.212   3.652   7.350 -0.3130 -0.2069 -1.8107
   80CHL1   H7B 8339   6.233   3.833   7.379 -0.2808 -0.9062  1.7515
   80CHL1    C8 8340   6.029   3.769   7.377 -0.6547 -0.2477 -0.1511
   80CHL1    H8 8341   5.988   3.670   7.348 -0.5909 -0.0037 -1.1408
   80CHL1   C14 8342   6.025   3.777   7.530  0.0203  0.7091 -0.1074
   80CHL1   H14 8343   6.070   3.874   7.561  1.4616 -0.7518  2.6858
   80CHL1   C15 8344   6.091   3.664   7.605  0.5314 -0.3739 -0.1006
   80CHL1  H15A 8345   6.055   3.567   7.565 -0.3266  0.3064 -1.0144
   80CHL1  H15B 8346   6.202   3.670   7.614  0.5718 -1.0381 -0.0879
   80CHL1   C16 8347   6.030   3.679   7.749  0.4173 -0.3235  1.1435
   80CHL1  H16A 8348   5.997   3.583   7.792  2.4407 -0.0917  3.4632
   80CHL1  H16B 8349   6.106   3.719   7.820  1.7504  0.3156 -0.5601
   80CHL1   C17 8350   5.901   3.778   7.733  0.1762 -0.0263  0.3161
   80CHL1   H17 8351   5.947   3.872   7.770 -0.3798  0.1706  0.5250
   80CHL1   C13 8352   5.878   3.779   7.585  0.1813  0.3551 -0.2404
   80CHL1   C18 8353   5.804   3.649   7.549  0.7143  0.1422 -0.6269
   80CHL1  H18A 8354   5.699   3.658   7.585  0.6870  2.6295 -1.1649
   80CHL1  H18B 8355   5.802   3.651   7.438  1.1298  1.4215 -0.6267
   80CHL1  H18C 8356   5.859   3.559   7.583  0.8775  0.7994  0.9104
   80CHL1   C12 8357   5.816   3.912   7.534  0.1177 -0.2573  0.6183
   80CHL1  H12A 8358   5.716   3.930   7.580 -0.3355  1.9420 -1.0662
   80CHL1  H12B 8359   5.872   4.002   7.566 -0.4208  1.1470 -2.0952
   80CHL1   C11 8360   5.809   3.910   7.378 -0.7044  0.5539 -0.1145
   80CHL1  H11A 8361   5.725   3.842   7.354 -0.0533  0.1122 -1.2085
   80CHL1  H11B 8362   5.770   4.008   7.342  0.4463  0.2019 -2.5338
   80CHL1    C9 8363   5.947   3.882   7.313  0.3770  0.4895  0.9603
   80CHL1    H9 8364   6.009   3.970   7.341 -0.0094  0.8482  0.7089
   80CHL1   C10 8365   5.943   3.863   7.153 -0.4703  0.8313 -1.2445
   80CHL1   C19 8366   5.836   3.754   7.122  0.1741  0.5045  0.1890
   80CHL1  H19A 8367   5.868   3.653   7.156 -0.2513  0.2484 -0.1514
   80CHL1  H19B 8368   5.740   3.787   7.166  0.6507 -0.7743  2.3271
   80CHL1  H19C 8369   5.827   3.749   7.011 -2.5409 -1.0713  0.3857
   80CHL1    C1 8370   5.902   4.007   7.093  0.4074  0.5007 -0.8140
   80CHL1   H1A 8371   5.794   4.017   7.118  0.4084 -0.9699 -0.1550
   80CHL1   H1B 8372   5.963   4.087   7.140  2.0685 -1.6178  0.8814
   80CHL1    C2 8373   5.921   4.008   6.938  0.0887 -0.2884 -0.5274
   80CHL1   H2A 8374   5.873   4.098   6.894 -2.7190 -1.4128  0.0468
   80CHL1   H2B 8375   5.863   3.926   6.891  1.4934 -1.8114  0.2639
   80CHL1   C20 8376   5.796   3.727   7.833 -0.0223  0.8348 -0.1732
   80CHL1   H20 8377   5.769   3.621   7.814  2.3049  0.2662 -0.6538
   80CHL1   C21 8378   5.670   3.816   7.826  0.0523 -0.9545 -0.1723
   80CHL1  H21A 8379   5.601   3.784   7.907  0.1252 -2.1882 -0.5733
   80CHL1  H21B 8380   5.615   3.809   7.730 -1.0960 -0.0999  0.3923
   80CHL1  H21C 8381   5.695   3.924   7.834 -0.6494 -0.8412  0.6397
   80CHL1   C22 8382   5.852   3.730   7.976 -0.0856 -0.2483 -0.0977
   80CHL1  H22A 8383   5.934   3.655   7.982  0.1313 -0.0038  0.0129
   80CHL1  H22B 8384   5.883   3.834   8.000  0.5343 -0.5997  0.6520
   80CHL1   C23 8385   5.764   3.674   8.091  0.0858  0.1794  0.0594
   80CHL1  H23A 8386   5.669   3.732   8.099 -0.7728 -0.7873 -2.3670
   80CHL1  H23B 8387   5.750   3.565   8.075  2.4372 -0.4071  1.4848
   80CHL1   C24 8388   5.840   3.696   8.225 -0.5869  0.3575 -0.5241
   80CHL1  H24A 8389   5.943   3.657   8.216  0.1458  2.2383 -0.7645
   80CHL1  H24B 8390   5.846   3.807   8.229  0.3081  0.2733  2.0921
   80CHL1   C25 8391   5.778   3.631   8.352  0.5495 -1.0908  0.3172
   80CHL1   H25 8392   5.762   3.523   8.331  2.2028 -1.3674  0.3282
   80CHL1   C26 8393   5.874   3.657   8.472  0.0422 -0.4220 -0.0020
   80CHL1  H26A 8394   5.976   3.616   8.460  0.2471  0.5955 -2.2910
   80CHL1  H26B 8395   5.874   3.765   8.496  2.9031 -0.4548  0.4409
   80CHL1  H26C 8396   5.817   3.599   8.548 -2.0562  1.4419 -0.0416
   80CHL1   C27 8397   5.638   3.697   8.387  0.4589 -0.8856  0.6554
   80CHL1  H27A 8398   5.654   3.806   8.404 -0.8152 -0.4403 -0.7073
   80CHL1  H27B 8399   5.567   3.693   8.301  2.8092 -1.0294 -1.3888
   80CHL1  H27C 8400   5.614   3.643   8.480  3.1538  1.2542  2.7692
   81CHL1    C3 8401   4.656   2.896   6.970 -0.2364 -0.3172  0.4434
   81CHL1    H3 8402   4.603   2.799   6.979 -1.6904  0.4181  0.0828
   81CHL1    O3 8403   4.679   2.928   6.831  0.7439  1.0191  0.6415
   81CHL1   H3' 8404   4.595   2.942   6.788  1.6316 -1.1727 -2.0973
   81CHL1    C4 8405   4.569   3.005   7.033  0.0342  0.3679  0.0845
   81CHL1   H4A 8406   4.620   3.104   7.027  0.3127  0.2147 -0.0967
   81CHL1   H4B 8407   4.473   3.009   6.977  0.2701  0.8179 -0.3027
   81CHL1    C5 8408   4.545   2.989   7.184 -0.0790  0.2039 -0.6236
   81CHL1    C6 8409   4.423   3.003   7.244 -0.0131 -0.2407  0.0987
   81CHL1    H6 8410   4.333   3.019   7.183  0.4427  2.0027 -0.0680
   81CHL1    C7 8411   4.404   2.975   7.390 -0.1025 -0.7399 -0.0370
   81CHL1   H7A 8412   4.318   3.036   7.427 -1.0355 -1.8042 -0.3980
   81CHL1   H7B 8413   4.389   2.866   7.399  0.8528 -1.3246 -3.7751
   81CHL1    C8 8414   4.526   2.995   7.475  0.1423 -0.1742 -0.1870
   81CHL1    H8 8415   4.556   3.102   7.475 -1.0415  0.1891 -1.1187
   81CHL1   C14 8416   4.497   2.938   7.615 -0.1341  0.3769 -0.1614
   81CHL1   H14 8417   4.483   2.829   7.597  0.2797  0.2741  0.1287
   81CHL1   C15 8418   4.376   2.995   7.697 -0.6711 -0.5059  0.2946
   81CHL1  H15A 8419   4.363   3.102   7.670 -1.9856 -0.9696 -1.0599
   81CHL1  H15B 8420   4.288   2.933   7.671  1.8418 -3.3911 -2.1640
   81CHL1   C16 8421   4.416   2.958   7.842  0.2562  0.2472 -0.3248
   81CHL1  H16A 8422   4.425   3.057   7.893  1.3913  0.5833 -1.1377
   81CHL1  H16B 8423   4.331   2.902   7.886  0.7099  0.2196  0.5455
   81CHL1   C17 8424   4.547   2.884   7.842  0.0566 -0.0581  0.5049
   81CHL1   H17 8425   4.516   2.781   7.816 -0.1379  0.4303 -1.3809
   81CHL1   C13 8426   4.621   2.933   7.713  0.4024  0.2608  0.2755
   81CHL1   C18 8427   4.655   3.080   7.739 -0.4909 -1.0716  0.1379
   81CHL1  H18A 8428   4.573   3.146   7.777 -0.6138 -1.2093  0.1133
   81CHL1  H18B 8429   4.740   3.084   7.810  0.2314  1.4549 -0.7661
   81CHL1  H18C 8430   4.688   3.139   7.651  0.5419  0.5786  1.5775
   81CHL1   C12 8431   4.738   2.857   7.650 -0.1988  0.8870  0.0708
   81CHL1  H12A 8432   4.831   2.861   7.711  0.6523  1.4141 -1.2219
   81CHL1  H12B 8433   4.725   2.747   7.638 -1.1586  0.9674  0.3059
   81CHL1   C11 8434   4.769   2.908   7.509  0.3053  0.2911  0.1747
   81CHL1  H11A 8435   4.821   3.006   7.522  0.4882 -0.1764  4.1149
   81CHL1  H11B 8436   4.842   2.843   7.456 -1.8298 -0.8900 -1.4812
   81CHL1    C9 8437   4.644   2.910   7.417 -0.6476  0.5218 -0.5212
   81CHL1    H9 8438   4.608   2.805   7.410 -1.5603  0.8692 -1.2682
   81CHL1   C10 8439   4.675   2.961   7.270  0.0131  0.2281  0.7324
   81CHL1   C19 8440   4.750   3.094   7.276  0.1575 -0.1275  0.1359
   81CHL1  H19A 8441   4.775   3.135   7.175  0.3958 -0.2319  0.1523
   81CHL1  H19B 8442   4.714   3.174   7.344 -1.0563 -0.9915  0.5357
   81CHL1  H19C 8443   4.854   3.076   7.312  0.7383  0.1590 -1.3244
   81CHL1    C1 8444   4.759   2.854   7.193  0.5763 -0.4350 -0.2341
   81CHL1   H1A 8445   4.857   2.845   7.245  0.5256  0.9664  0.1288
   81CHL1   H1B 8446   4.712   2.753   7.199  2.3793 -1.2414  1.4569
   81CHL1    C2 8447   4.794   2.875   7.048  0.3578  0.1036  0.4682
   81CHL1   H2A 8448   4.853   2.796   6.997 -1.3920 -2.0315  1.5850
   81CHL1   H2B 8449   4.855   2.965   7.027  1.3539 -0.8777 -1.0055
   81CHL1   C20 8450   4.619   2.885   7.975  0.1807 -1.0268 -0.3292
   81CHL1   H20 8451   4.665   2.982   8.003  0.4593 -1.0940 -0.5492
   81CHL1   C21 8452   4.732   2.781   7.980  0.8145 -0.4679 -0.2401
   81CHL1  H21A 8453   4.781   2.780   7.880 -1.5869 -0.8734 -1.4690
   81CHL1  H21B 8454   4.680   2.684   7.997 -0.9361  0.1394 -1.7514
   81CHL1  H21C 8455   4.809   2.778   8.059  0.6562 -3.8285 -0.0646
   81CHL1   C22 8456   4.535   2.860   8.094  0.3851 -0.6038  0.1279
   81CHL1  H22A 8457   4.458   2.939   8.102  0.3214 -0.7262  0.7949
   81CHL1  H22B 8458   4.476   2.766   8.107  0.6308 -0.5625  1.6747
   81CHL1   C23 8459   4.613   2.884   8.233  0.7368 -0.1892  0.2087
   81CHL1  H23A 8460   4.708   2.826   8.234 -0.1361 -1.6841  2.0142
   81CHL1  H23B 8461   4.640   2.992   8.234 -1.8974  0.6344 -2.5997
   81CHL1   C24 8462   4.528   2.843   8.350 -0.3242 -0.3754 -0.1418
   81CHL1  H24A 8463   4.440   2.908   8.368  1.0172  0.9477  1.9455
   81CHL1  H24B 8464   4.484   2.745   8.321 -1.2167 -0.2018  0.6096
   81CHL1   C25 8465   4.608   2.837   8.480 -0.4934 -0.4514  0.1012
   81CHL1   H25 8466   4.703   2.786   8.453 -0.0472 -0.9480  2.4559
   81CHL1   C26 8467   4.647   2.981   8.525 -0.0900  0.3757  0.1768
   81CHL1  H26A 8468   4.701   3.036   8.445  0.4432 -0.8968 -0.3570
   81CHL1  H26B 8469   4.560   3.035   8.569 -0.3158 -0.1722  0.4114
   81CHL1  H26C 8470   4.722   2.974   8.606  0.1774  0.9810 -0.0149
   81CHL1   C27 8471   4.543   2.756   8.589 -0.9224  0.4691  0.1110
   81CHL1  H27A 8472   4.595   2.762   8.687  0.2022 -2.9085 -0.1553
   81CHL1  H27B 8473   4.440   2.795   8.603 -0.4692  1.2344  1.4720
   81CHL1  H27C 8474   4.534   2.648   8.562 -2.1352  0.4714  0.4525
   82CHL1    C3 8475   0.263   4.253   7.229 -0.2984 -0.0328 -0.5251
   82CHL1    H3 8476   0.224   4.149   7.224  0.9092 -0.4816 -0.9210
   82CHL1    O3 8477   0.287   4.285   7.094 -0.4124 -0.3700 -0.3579
   82CHL1   H3' 8478   0.323   4.208   7.050  2.2831  0.7664 -0.3271
   82CHL1    C4 8479   0.166   4.353   7.292 -0.2892  0.2294  0.2857
   82CHL1   H4A 8480   0.221   4.449   7.278 -0.1049  0.2152  0.8763
   82CHL1   H4B 8481   0.071   4.355   7.236 -0.2112  1.0108  0.1678
   82CHL1    C5 8482   0.138   4.326   7.438 -0.3901 -0.5021  0.5276
   82CHL1    C6 8483   0.016   4.309   7.484 -0.3590  0.0679  0.0145
   82CHL1    H6 8484  -0.058   4.318   7.402  0.0547 -0.1667 -0.3856
   82CHL1    C7 8485  -0.028   4.277   7.626 -0.8317 -0.8289  0.2281
   82CHL1   H7A 8486  -0.100   4.358   7.652 -1.0707 -0.7286 -0.7118
   82CHL1   H7B 8487  -0.081   4.180   7.640  1.5301 -2.1618  0.4324
   82CHL1    C8 8488   0.096   4.284   7.718 -0.0392 -0.3653  0.1198
   82CHL1    H8 8489   0.111   4.391   7.740 -3.1659  0.5731 -1.5724
   82CHL1   C14 8490   0.072   4.208   7.843  0.3050 -0.4426  0.4194
   82CHL1   H14 8491   0.066   4.100   7.820 -0.6101 -0.2573 -0.2740
   82CHL1   C15 8492  -0.056   4.240   7.920  0.2894  0.4338  0.8625
   82CHL1  H15A 8493  -0.063   4.349   7.939 -1.3160  0.2128  1.7402
   82CHL1  H15B 8494  -0.147   4.199   7.871  1.5228 -2.3081  0.6864
   82CHL1   C16 8495  -0.026   4.176   8.056  0.7715 -0.0992  0.4017
   82CHL1  H16A 8496  -0.031   4.256   8.133  3.1084 -0.7009  1.2701
   82CHL1  H16B 8497  -0.107   4.101   8.065  1.4690 -1.0793 -1.1255
   82CHL1   C17 8498   0.113   4.116   8.061  0.7285 -0.1009 -0.3033
   82CHL1   H17 8499   0.102   4.014   8.018 -0.8618 -0.2433  0.3705
   82CHL1   C13 8500   0.182   4.202   7.950  0.0712 -0.1758 -0.0377
   82CHL1   C18 8501   0.196   4.343   8.005 -0.1779  0.0797 -0.0115
   82CHL1  H18A 8502   0.217   4.410   7.919 -0.2113 -0.0933 -0.1552
   82CHL1  H18B 8503   0.107   4.372   8.065 -0.5882 -0.5100 -0.3236
   82CHL1  H18C 8504   0.282   4.349   8.075  1.3035 -0.0199 -1.7601
   82CHL1   C12 8505   0.318   4.156   7.893  0.4198  0.2866  0.9988
   82CHL1  H12A 8506   0.400   4.159   7.967  1.2345 -0.7580  0.1779
   82CHL1  H12B 8507   0.300   4.049   7.869  1.3752 -0.2460  2.5719
   82CHL1   C11 8508   0.352   4.234   7.762 -0.6714  0.6609 -0.1995
   82CHL1  H11A 8509   0.385   4.338   7.784  0.5282  0.3266 -0.3358
   82CHL1  H11B 8510   0.437   4.183   7.712 -2.5301 -1.5011 -1.2908
   82CHL1    C9 8511   0.231   4.234   7.655 -0.1644 -0.1264  0.2518
   82CHL1    H9 8512   0.225   4.126   7.630  0.4216 -0.4838  1.5693
   82CHL1   C10 8513   0.262   4.312   7.523 -0.0879  0.0239  0.3206
   82CHL1   C19 8514   0.312   4.452   7.546  0.6000 -0.8579  0.2938
   82CHL1  H19A 8515   0.402   4.445   7.609  1.0463  1.0826 -0.0526
   82CHL1  H19B 8516   0.336   4.511   7.455  0.2585 -0.6514  0.3361
   82CHL1  H19C 8517   0.232   4.509   7.598  0.6163 -1.3460  0.8692
   82CHL1    C1 8518   0.369   4.236   7.451 -0.6263  0.0668  0.3761
   82CHL1   H1A 8519   0.465   4.258   7.502  0.1302 -0.5929 -0.7295
   82CHL1   H1B 8520   0.360   4.125   7.456 -1.8654  0.0850 -0.7668
   82CHL1    C2 8521   0.396   4.270   7.307  0.2950 -0.2289  0.3201
   82CHL1   H2A 8522   0.469   4.198   7.262 -0.9774 -1.6188  0.3829
   82CHL1   H2B 8523   0.443   4.370   7.305  2.1803 -1.0523  1.1288
   82CHL1   C20 8524   0.170   4.110   8.200 -0.3355 -0.1979 -0.3434
   82CHL1   H20 8525   0.187   4.212   8.242 -1.2146  0.4470 -1.5223
   82CHL1   C21 8526   0.311   4.043   8.199 -0.2013  0.1291  0.3267
   82CHL1  H21A 8527   0.300   3.968   8.117 -2.7780  0.6864  0.0723
   82CHL1  H21B 8528   0.330   3.994   8.297 -0.3371 -1.0147 -0.1991
   82CHL1  H21C 8529   0.393   4.112   8.172  0.5711 -1.0972 -0.5374
   82CHL1   C22 8530   0.075   4.021   8.292 -0.0886 -0.5836 -0.0202
   82CHL1  H22A 8531  -0.026   4.069   8.290  0.5715  0.8594 -0.8170
   82CHL1  H22B 8532   0.086   3.917   8.255  0.3304 -0.3917 -0.4520
   82CHL1   C23 8533   0.112   4.009   8.441  0.0059  0.3768 -0.1312
   82CHL1  H23A 8534   0.220   3.985   8.450  0.1363  0.8631 -0.3762
   82CHL1  H23B 8535   0.093   4.104   8.494 -0.3857  0.9539 -1.2854
   82CHL1   C24 8536   0.031   3.907   8.528 -0.2736 -0.2538 -0.0996
   82CHL1  H24A 8537   0.039   3.809   8.475 -0.6223 -0.2155 -0.2211
   82CHL1  H24B 8538   0.069   3.898   8.632 -2.2524  1.3905  0.8179
   82CHL1   C25 8539  -0.122   3.939   8.526  0.1248  0.5063  0.7099
   82CHL1   H25 8540  -0.149   3.962   8.421 -1.2386  1.6171  1.2763
   82CHL1   C26 8541  -0.201   3.823   8.588  0.4086  0.0563 -0.2012
   82CHL1  H26A 8542  -0.308   3.849   8.582  0.6657  1.0242 -0.8342
   82CHL1  H26B 8543  -0.176   3.739   8.520  1.1028 -0.1080  0.2462
   82CHL1  H26C 8544  -0.167   3.802   8.692 -1.4579 -4.0290 -0.2105
   82CHL1   C27 8545  -0.152   4.077   8.595 -0.1674 -0.1546 -0.5918
   82CHL1  H27A 8546  -0.103   4.164   8.546 -2.8479  0.5774 -2.2047
   82CHL1  H27B 8547  -0.261   4.096   8.603 -0.1517 -0.4184  0.4189
   82CHL1  H27C 8548  -0.109   4.072   8.697  1.4928  1.6077 -1.1473
   83CHL1    C3 8549   2.618   6.380   7.067 -1.1579  0.1962 -0.5111
   83CHL1    H3 8550   2.725   6.352   7.082 -1.4360 -0.9211 -0.5818
   83CHL1    O3 8551   2.589   6.371   6.929  0.2840  0.2799  0.2588
   83CHL1   H3' 8552   2.568   6.458   6.894  0.3867 -0.6413 -2.2933
   83CHL1    C4 8553   2.534   6.276   7.141  0.0858  0.1992  0.3221
   83CHL1   H4A 8554   2.426   6.298   7.124 -0.8080 -3.4609  0.4793
   83CHL1   H4B 8555   2.557   6.178   7.096  0.4070  0.6016 -0.4045
   83CHL1    C5 8556   2.555   6.282   7.295 -0.6990  0.1087  0.2560
   83CHL1    C6 8557   2.597   6.171   7.360 -0.1272  0.1958  0.1815
   83CHL1    H6 8558   2.613   6.079   7.302 -2.4652  1.1501 -2.2070
   83CHL1    C7 8559   2.610   6.152   7.505 -0.2610 -0.6526 -0.2368
   83CHL1   H7A 8560   2.562   6.060   7.544 -2.3352  0.2166 -0.6073
   83CHL1   H7B 8561   2.716   6.133   7.530 -0.1663 -1.3380 -1.1027
   83CHL1    C8 8562   2.569   6.276   7.587 -0.8401  0.3475  0.9999
   83CHL1    H8 8563   2.460   6.271   7.607 -0.8088  0.2496  1.1510
   83CHL1   C14 8564   2.646   6.284   7.717 -0.1404  0.6935 -0.0730
   83CHL1   H14 8565   2.752   6.303   7.689  0.1722  1.5556  1.5482
   83CHL1   C15 8566   2.662   6.156   7.803 -0.2928  0.4677  0.4640
   83CHL1  H15A 8567   2.568   6.097   7.800  0.0968 -0.1443 -0.0583
   83CHL1  H15B 8568   2.750   6.099   7.767  0.2944  0.8858  1.2064
   83CHL1   C16 8569   2.701   6.210   7.936  1.2319 -0.0244 -0.3380
   83CHL1  H16A 8570   2.639   6.157   8.012  0.5147  1.0258 -0.1743
   83CHL1  H16B 8571   2.806   6.181   7.958  1.1577 -0.4800 -0.5597
   83CHL1   C17 8572   2.707   6.369   7.935  0.3718 -0.1755 -0.5194
   83CHL1   H17 8573   2.809   6.397   7.900  0.4329  0.1004 -0.1389
   83CHL1   C13 8574   2.604   6.394   7.816  0.2375  0.2790 -0.2102
   83CHL1   C18 8575   2.458   6.364   7.852 -0.4030  0.2096 -0.2889
   83CHL1  H18A 8576   2.385   6.355   7.768 -0.9054  1.1088  0.0402
   83CHL1  H18B 8577   2.452   6.279   7.923  0.8517  2.0047  2.0841
   83CHL1  H18C 8578   2.417   6.457   7.897 -0.3018  0.1299 -0.0301
   83CHL1   C12 8579   2.596   6.533   7.748 -0.1594  0.4274  0.3020
   83CHL1  H12A 8580   2.535   6.608   7.803 -1.2124  0.7377 -1.2345
   83CHL1  H12B 8581   2.699   6.572   7.736 -0.1512  0.0270 -1.0634
   83CHL1   C11 8582   2.527   6.526   7.607  0.2317 -0.2058  0.3196
   83CHL1  H11A 8583   2.420   6.530   7.638  0.4900  2.5272  1.0961
   83CHL1  H11B 8584   2.550   6.629   7.575  2.0070 -1.1179 -1.5524
   83CHL1    C9 8585   2.583   6.413   7.514 -0.2391  0.1591 -0.4195
   83CHL1    H9 8586   2.689   6.448   7.510 -0.6348  1.6108  0.8703
   83CHL1   C10 8587   2.534   6.416   7.368 -0.8747  0.7729  0.1971
   83CHL1   C19 8588   2.381   6.439   7.370  0.2744 -0.6706 -0.5557
   83CHL1  H19A 8589   2.338   6.473   7.274 -1.0798  1.1170  0.6167
   83CHL1  H19B 8590   2.327   6.351   7.411  2.7478 -2.4483 -0.8549
   83CHL1  H19C 8591   2.360   6.529   7.432  2.6621 -0.1097 -0.4611
   83CHL1    C1 8592   2.614   6.525   7.287  0.8351 -0.3746  0.7211
   83CHL1   H1A 8593   2.587   6.629   7.317  0.4320 -0.4233  0.5267
   83CHL1   H1B 8594   2.723   6.518   7.309  1.0351  0.6250  0.1276
   83CHL1    C2 8595   2.595   6.522   7.133  0.1460  0.7290 -0.4111
   83CHL1   H2A 8596   2.649   6.605   7.082  1.2733  0.5828  0.5149
   83CHL1   H2B 8597   2.488   6.547   7.115  0.0460 -0.2863 -1.3729
   83CHL1   C20 8598   2.672   6.443   8.063 -0.5411  0.3413 -0.2262
   83CHL1   H20 8599   2.567   6.415   8.085  0.0546 -0.6805  1.5255
   83CHL1   C21 8600   2.690   6.594   8.055 -0.6324 -0.7548 -0.3761
   83CHL1  H21A 8601   2.794   6.618   8.024 -0.6229 -1.4102 -0.8597
   83CHL1  H21B 8602   2.661   6.653   8.145  0.0514 -0.9027 -0.0500
   83CHL1  H21C 8603   2.627   6.643   7.978  0.9531  1.8826 -0.1194
   83CHL1   C22 8604   2.733   6.370   8.190  0.7786 -0.1719 -0.5791
   83CHL1  H22A 8605   2.689   6.269   8.201  0.1833  0.3430  2.9009
   83CHL1  H22B 8606   2.844   6.361   8.182  0.8968  0.6613 -0.0417
   83CHL1   C23 8607   2.702   6.446   8.325  1.0866 -0.1039  0.1019
   83CHL1  H23A 8608   2.749   6.547   8.325  2.3919 -0.6889 -0.6300
   83CHL1  H23B 8609   2.593   6.469   8.326  1.0611 -0.1454 -0.7653
   83CHL1   C24 8610   2.744   6.361   8.449  0.6216  0.5066 -0.8926
   83CHL1  H24A 8611   2.677   6.397   8.530 -0.8390 -1.8979 -0.9392
   83CHL1  H24B 8612   2.698   6.262   8.427  2.8309 -1.0669  1.0749
   83CHL1   C25 8613   2.889   6.335   8.483 -0.1302  0.4025  0.6901
   83CHL1   H25 8614   2.928   6.286   8.391 -0.2875 -1.0668  1.3767
   83CHL1   C26 8615   2.975   6.460   8.501 -0.0313 -0.1528 -0.3670
   83CHL1  H26A 8616   3.082   6.438   8.523 -0.0667  1.0148  1.1213
   83CHL1  H26B 8617   2.962   6.529   8.415 -4.0359 -1.7011 -1.2053
   83CHL1  H26C 8618   2.939   6.515   8.590  1.0191 -2.2432  1.4272
   83CHL1   C27 8619   2.911   6.237   8.595 -0.2341  0.1689 -0.3009
   83CHL1  H27A 8620   2.825   6.168   8.583 -0.3840  0.4707 -0.9501
   83CHL1  H27B 8621   3.006   6.179   8.584  0.4493  1.3195 -0.6897
   83CHL1  H27C 8622   2.908   6.267   8.702 -1.2703  0.6384 -0.4500
   84CHL1    C3 8623   2.462   2.307   7.084 -0.6337 -0.8105 -0.0244
   84CHL1    H3 8624   2.562   2.355   7.088  1.9098 -5.2108 -2.1910
   84CHL1    O3 8625   2.404   2.334   6.957 -0.2519 -0.3698  0.0858
   84CHL1   H3' 8626   2.321   2.286   6.953 -0.4854 -0.0151  0.5904
   84CHL1    C4 8627   2.481   2.157   7.097 -0.3462  0.9302 -0.3138
   84CHL1   H4A 8628   2.378   2.114   7.102  0.1080 -0.1281  0.1866
   84CHL1   H4B 8629   2.531   2.100   7.016  0.9207 -1.8771  2.2754
   84CHL1    C5 8630   2.544   2.117   7.226  0.5893  0.4537  1.0122
   84CHL1    C6 8631   2.666   2.064   7.233  0.1253 -0.6133  0.0374
   84CHL1    H6 8632   2.719   2.045   7.139  0.7530 -1.2383  0.5104
   84CHL1    C7 8633   2.745   2.024   7.355 -0.2141  0.0427 -0.5315
   84CHL1   H7A 8634   2.760   1.914   7.352 -0.6638 -0.0168 -2.5119
   84CHL1   H7B 8635   2.840   2.081   7.354 -2.2074  3.7076 -1.3554
   84CHL1    C8 8636   2.652   2.046   7.483  0.7775  0.2600  0.3525
   84CHL1    H8 8637   2.584   1.958   7.475  0.2600  0.7343 -0.7430
   84CHL1   C14 8638   2.734   2.035   7.615  0.5914  0.1866 -0.0210
   84CHL1   H14 8639   2.811   2.116   7.608 -0.5426  1.2591 -0.4717
   84CHL1   C15 8640   2.822   1.912   7.632  0.8998 -0.1908  0.4348
   84CHL1  H15A 8641   2.755   1.826   7.612 -0.8582  1.2162 -0.0035
   84CHL1  H15B 8642   2.903   1.922   7.557  0.9636  1.1514  0.6490
   84CHL1   C16 8643   2.862   1.920   7.779  0.1611 -0.3658  0.3848
   84CHL1  H16A 8644   2.849   1.820   7.826  2.0587 -0.3904  0.9421
   84CHL1  H16B 8645   2.966   1.959   7.790 -0.3194  0.8557  0.7545
   84CHL1   C17 8646   2.764   2.028   7.843  0.1768  0.5051  0.3769
   84CHL1   H17 8647   2.835   2.114   7.845 -0.9972  1.4849  0.5741
   84CHL1   C13 8648   2.657   2.054   7.736 -0.3049  0.0648 -0.7815
   84CHL1   C18 8649   2.544   1.947   7.745 -0.9735  0.0491  0.4473
   84CHL1  H18A 8650   2.478   1.961   7.657 -0.6386  1.6490  0.4281
   84CHL1  H18B 8651   2.583   1.843   7.756 -0.6761 -0.1838 -2.1294
   84CHL1  H18C 8652   2.479   1.969   7.832  0.8829  3.2277  1.1867
   84CHL1   C12 8653   2.589   2.195   7.726 -0.6365 -0.0368 -0.5301
   84CHL1  H12A 8654   2.528   2.224   7.814  0.5690  2.2967 -0.3802
   84CHL1  H12B 8655   2.677   2.263   7.731  0.2673 -1.1118 -1.1670
   84CHL1   C11 8656   2.497   2.202   7.610 -0.9060 -0.2016  0.2469
   84CHL1  H11A 8657   2.407   2.140   7.629 -0.9679 -0.7836 -1.7209
   84CHL1  H11B 8658   2.459   2.306   7.609  0.9827  0.5345  0.1395
   84CHL1    C9 8659   2.558   2.166   7.474 -0.3734 -0.3668  0.2365
   84CHL1    H9 8660   2.631   2.248   7.458 -0.2674  0.0176  2.3736
   84CHL1   C10 8661   2.466   2.170   7.348  0.4137 -0.1868 -0.5774
   84CHL1   C19 8662   2.344   2.082   7.365 -0.3419  0.2929 -0.1024
   84CHL1  H19A 8663   2.273   2.083   7.280 -3.6922  1.4660  2.5207
   84CHL1  H19B 8664   2.377   1.976   7.355  0.0684  0.5506 -1.9568
   84CHL1  H19C 8665   2.287   2.100   7.458  1.7003  0.4167  1.1805
   84CHL1    C1 8666   2.419   2.318   7.331  0.4542 -0.3159  0.4615
   84CHL1   H1A 8667   2.337   2.338   7.403 -1.7084  0.8655 -2.1701
   84CHL1   H1B 8668   2.507   2.378   7.362  0.5193 -0.1720  0.0158
   84CHL1    C2 8669   2.366   2.357   7.192 -0.7578 -0.3419  0.5927
   84CHL1   H2A 8670   2.364   2.466   7.170  1.6170 -0.0960  1.3418
   84CHL1   H2B 8671   2.271   2.305   7.165 -1.2447  1.5481 -1.6134
   84CHL1   C20 8672   2.718   1.991   7.988 -0.0817  0.3312  0.6840
   84CHL1   H20 8673   2.647   1.905   7.987  2.1206 -1.6066 -0.6171
   84CHL1   C21 8674   2.648   2.110   8.060 -0.3097  0.5342  0.0236
   84CHL1  H21A 8675   2.611   2.087   8.162  0.0672 -1.1273 -0.1983
   84CHL1  H21B 8676   2.552   2.124   8.007 -1.0194 -0.8176  0.8981
   84CHL1  H21C 8677   2.706   2.205   8.052  0.3537  0.2852  1.4035
   84CHL1   C22 8678   2.844   1.950   8.070 -0.1801 -0.3063 -0.5851
   84CHL1  H22A 8679   2.887   1.853   8.037  1.8189  0.9043 -1.7199
   84CHL1  H22B 8680   2.927   2.022   8.057  1.0594 -1.4717  0.5888
   84CHL1   C23 8681   2.832   1.941   8.222 -0.3614 -0.5821  0.7444
   84CHL1  H23A 8682   2.798   2.031   8.279 -4.8958 -1.9293  0.5613
   84CHL1  H23B 8683   2.748   1.873   8.245  0.4877 -2.3218 -0.9847
   84CHL1   C24 8684   2.954   1.898   8.285  0.2029 -0.0393  0.1182
   84CHL1  H24A 8685   2.985   1.801   8.239  0.3615  1.1017 -2.3617
   84CHL1  H24B 8686   3.042   1.960   8.257  0.7639 -0.5595  0.6952
   84CHL1   C25 8687   2.933   1.880   8.439 -0.2417  0.2841 -0.4082
   84CHL1   H25 8688   2.844   1.943   8.461 -0.4434  0.1360 -0.7771
   84CHL1   C26 8689   2.901   1.733   8.479 -0.2436 -0.3282  0.0348
   84CHL1  H26A 8690   2.803   1.701   8.439 -0.8871  0.8264  0.6263
   84CHL1  H26B 8691   2.986   1.672   8.441  0.3588  0.1297  0.6109
   84CHL1  H26C 8692   2.896   1.728   8.590 -0.1491 -0.5641  0.0295
   84CHL1   C27 8693   3.058   1.921   8.516  0.2144  0.0884  0.5601
   84CHL1  H27A 8694   3.142   1.851   8.493  0.0931  0.2545 -0.4363
   84CHL1  H27B 8695   3.092   2.026   8.500 -1.1239  0.4468 -0.0485
   84CHL1  H27C 8696   3.041   1.918   8.626  0.9908  3.6209  0.9154
   85CHL1    C3 8697   4.352   4.256   6.666 -0.6062 -0.3279  0.3431
   85CHL1    H3 8698   4.400   4.161   6.696  2.5448  1.6142  2.0385
   85CHL1    O3 8699   4.386   4.289   6.533 -0.3022 -0.3127 -0.1173
   85CHL1   H3' 8700   4.371   4.383   6.530  0.5967 -0.1981 -1.4640
   85CHL1    C4 8701   4.196   4.266   6.685 -0.2419 -0.5774  0.2432
   85CHL1   H4A 8702   4.172   4.372   6.661  0.7375 -0.5738 -0.7520
   85CHL1   H4B 8703   4.157   4.192   6.612  1.0620  1.6363 -2.8908
   85CHL1    C5 8704   4.169   4.233   6.837 -0.6243  0.8822  0.0913
   85CHL1    C6 8705   4.076   4.144   6.862 -0.1999  0.3623 -0.2225
   85CHL1    H6 8706   4.026   4.088   6.782  1.1673  1.5999 -2.0100
   85CHL1    C7 8707   4.014   4.128   6.997  0.2113  0.4787 -0.2331
   85CHL1   H7A 8708   3.904   4.120   6.984  0.3889 -0.2754 -1.5331
   85CHL1   H7B 8709   4.039   4.033   7.049  0.0965 -0.6712 -2.1773
   85CHL1    C8 8710   4.063   4.236   7.103 -0.2194 -0.1525 -0.5390
   85CHL1    H8 8711   4.001   4.327   7.088  1.2007  1.1851  1.2855
   85CHL1   C14 8712   4.048   4.194   7.250  0.2473 -0.8034 -0.1549
   85CHL1   H14 8713   4.108   4.100   7.259 -0.6767 -1.2244  2.2612
   85CHL1   C15 8714   3.910   4.148   7.297  0.1867  0.7441 -0.0565
   85CHL1  H15A 8715   3.837   4.225   7.262  1.5330  2.6989  1.2655
   85CHL1  H15B 8716   3.877   4.045   7.271  0.1468  0.4827  0.9850
   85CHL1   C16 8717   3.917   4.155   7.449  0.6683 -0.0970 -0.4192
   85CHL1  H16A 8718   3.835   4.208   7.502  0.1797 -2.9876  1.9964
   85CHL1  H16B 8719   3.919   4.053   7.493 -0.4499 -0.9497 -2.2066
   85CHL1   C17 8720   4.052   4.213   7.488 -0.4242 -0.5492  0.1622
   85CHL1   H17 8721   4.123   4.129   7.504  1.2290  0.3555 -1.7929
   85CHL1   C13 8722   4.113   4.289   7.359 -0.5605  0.8713  0.0705
   85CHL1   C18 8723   4.044   4.434   7.352  0.1764 -0.2474 -0.6673
   85CHL1  H18A 8724   3.946   4.430   7.404  0.6784  0.1193  0.3221
   85CHL1  H18B 8725   4.104   4.500   7.417 -1.7776 -1.2234  2.3279
   85CHL1  H18C 8726   4.032   4.469   7.247  1.4696  0.0790 -0.7236
   85CHL1   C12 8727   4.256   4.296   7.334  0.1453  0.4494 -0.5485
   85CHL1  H12A 8728   4.311   4.366   7.400 -1.0310  0.5023  0.4174
   85CHL1  H12B 8729   4.306   4.198   7.349  0.6182  0.7856  0.1171
   85CHL1   C11 8730   4.284   4.345   7.194 -0.0774 -0.3232 -0.5634
   85CHL1  H11A 8731   4.255   4.451   7.181 -0.1142 -0.5793 -3.0965
   85CHL1  H11B 8732   4.394   4.353   7.177 -0.3573 -2.1886 -4.2141
   85CHL1    C9 8733   4.212   4.268   7.084 -0.0858  0.1482 -0.0047
   85CHL1    H9 8734   4.255   4.166   7.092 -2.5407 -1.1947 -2.5029
   85CHL1   C10 8735   4.241   4.317   6.940 -0.6155 -0.3920  0.1930
   85CHL1   C19 8736   4.170   4.452   6.928 -1.1314 -0.0077  0.1994
   85CHL1  H19A 8737   4.198   4.517   6.842 -0.0570 -0.4186  0.2195
   85CHL1  H19B 8738   4.060   4.440   6.932 -1.1807  0.5819  3.2844
   85CHL1  H19C 8739   4.195   4.514   7.017 -1.1603 -0.6823  0.6859
   85CHL1    C1 8740   4.400   4.326   6.910  0.0499 -0.8818 -0.3094
   85CHL1   H1A 8741   4.451   4.409   6.964  0.5405  0.3986 -2.6009
   85CHL1   H1B 8742   4.448   4.229   6.935  0.3973 -0.1974  1.9154
   85CHL1    C2 8743   4.418   4.357   6.761 -0.9187 -0.4806 -0.0033
   85CHL1   H2A 8744   4.527   4.366   6.738 -0.6563  0.9947  1.5243
   85CHL1   H2B 8745   4.377   4.459   6.743  0.9260  0.1986 -0.6730
   85CHL1   C20 8746   4.044   4.282   7.619  0.8983  0.0357 -0.2207
   85CHL1   H20 8747   3.991   4.380   7.617  0.1689 -0.3625 -0.6249
   85CHL1   C21 8748   4.192   4.311   7.657 -0.5110 -0.6768 -0.4070
   85CHL1  H21A 8749   4.256   4.226   7.626 -1.4902 -1.0537 -1.4811
   85CHL1  H21B 8750   4.206   4.326   7.766 -1.3034  1.3685 -0.5464
   85CHL1  H21C 8751   4.233   4.401   7.606 -0.1075 -0.3688  0.4438
   85CHL1   C22 8752   3.977   4.200   7.727  0.3617  0.0936 -0.0207
   85CHL1  H22A 8753   3.874   4.171   7.697  1.1581 -0.4833 -2.3941
   85CHL1  H22B 8754   4.025   4.101   7.738  1.2342  0.4499 -0.5596
   85CHL1   C23 8755   3.961   4.260   7.866  0.2475  0.2984 -0.8702
   85CHL1  H23A 8756   4.062   4.274   7.912  0.3803  1.0820 -1.3855
   85CHL1  H23B 8757   3.919   4.360   7.842  1.1867  1.0340  0.4201
   85CHL1   C24 8758   3.876   4.192   7.966 -0.1023 -0.1378 -0.0998
   85CHL1  H24A 8759   3.774   4.185   7.923  0.6474 -0.4527 -1.8950
   85CHL1  H24B 8760   3.906   4.088   7.988 -2.0659 -0.8164 -0.4219
   85CHL1   C25 8761   3.859   4.266   8.100  0.1256 -1.0387  0.3021
   85CHL1   H25 8762   3.850   4.371   8.066  1.8224 -1.0892 -0.4143
   85CHL1   C26 8763   3.736   4.227   8.183 -0.4451  0.0295  0.5702
   85CHL1  H26A 8764   3.773   4.126   8.210 -0.8908  0.0659  1.3302
   85CHL1  H26B 8765   3.724   4.284   8.277  1.4944 -1.8152  2.0158
   85CHL1  H26C 8766   3.639   4.223   8.129  0.1749  0.7224 -0.6421
   85CHL1   C27 8767   3.986   4.261   8.188 -0.0272  0.0315 -0.5325
   85CHL1  H27A 8768   3.977   4.314   8.285  2.0686 -0.5558  0.0306
   85CHL1  H27B 8769   4.008   4.156   8.219 -0.3708  0.2151  0.3515
   85CHL1  H27C 8770   4.078   4.297   8.137 -0.0577  0.0234 -0.5937
   86CHL1    C3 8771   5.934   2.650   6.980 -0.1226 -0.0756  1.0641
   86CHL1    H3 8772   5.884   2.561   6.935  0.4104 -0.2617  0.8418
   86CHL1    O3 8773   5.989   2.727   6.876  0.1307  0.0825  0.7510
   86CHL1   H3' 8774   6.002   2.665   6.804  1.3560  0.2590  0.7844
   86CHL1    C4 8775   5.842   2.739   7.066 -0.1290 -0.4556  0.9642
   86CHL1   H4A 8776   5.888   2.840   7.076 -1.6295  0.6484 -2.1723
   86CHL1   H4B 8777   5.756   2.764   7.001 -1.4041 -2.1689  1.9028
   86CHL1    C5 8778   5.803   2.670   7.190 -0.0032 -0.0141  0.5986
   86CHL1    C6 8779   5.676   2.647   7.220  0.2230 -0.1977 -0.7181
   86CHL1    H6 8780   5.601   2.677   7.146 -1.0105 -0.9924  0.1481
   86CHL1    C7 8781   5.623   2.588   7.353  0.4917  0.4790  0.2986
   86CHL1   H7A 8782   5.538   2.646   7.394 -0.2760  0.3035 -0.9664
   86CHL1   H7B 8783   5.592   2.481   7.345  1.8080  0.0800  0.3731
   86CHL1    C8 8784   5.730   2.592   7.470  0.5776 -0.3219 -0.3980
   86CHL1    H8 8785   5.729   2.699   7.497  2.0702 -0.0758 -1.2314
   86CHL1   C14 8786   5.677   2.521   7.592 -0.2476 -0.5797  0.1497
   86CHL1   H14 8787   5.661   2.416   7.559 -0.8338 -0.7461  0.9213
   86CHL1   C15 8788   5.541   2.558   7.656 -0.5520  0.5166  0.3337
   86CHL1  H15A 8789   5.537   2.668   7.677 -0.9415  0.5302  0.1987
   86CHL1  H15B 8790   5.462   2.524   7.586 -1.5988  1.5837  0.9636
   86CHL1   C16 8791   5.547   2.482   7.787  0.2323  0.2794 -0.3558
   86CHL1  H16A 8792   5.521   2.553   7.868  0.8820 -0.1000  0.1890
   86CHL1  H16B 8793   5.486   2.389   7.797  0.0428  0.6077  1.9772
   86CHL1   C17 8794   5.691   2.421   7.805 -0.1669 -0.3966 -0.0831
   86CHL1   H17 8795   5.679   2.317   7.766 -3.0430  1.1281 -3.9884
   86CHL1   C13 8796   5.785   2.498   7.704  0.8276 -0.0496  0.9099
   86CHL1   C18 8797   5.820   2.628   7.780  0.8172  0.5793  0.9310
   86CHL1  H18A 8798   5.900   2.612   7.855  0.8522  2.0122  1.2255
   86CHL1  H18B 8799   5.847   2.707   7.706  0.2507 -0.8096 -0.8359
   86CHL1  H18C 8800   5.730   2.674   7.824 -1.0368 -1.1565 -0.8429
   86CHL1   C12 8801   5.901   2.421   7.649  0.1422 -0.3815  0.3963
   86CHL1  H12A 8802   5.979   2.415   7.728 -0.2043 -0.2905  0.7480
   86CHL1  H12B 8803   5.868   2.327   7.600 -1.4518  0.1711  0.3255
   86CHL1   C11 8804   5.971   2.507   7.536  0.1287 -0.4613 -0.2076
   86CHL1  H11A 8805   6.027   2.596   7.572  0.3166  0.6238 -2.9270
   86CHL1  H11B 8806   6.058   2.455   7.491  1.1509 -0.6021  1.8187
   86CHL1    C9 8807   5.867   2.547   7.423  0.2637  0.0505 -0.1970
   86CHL1    H9 8808   5.844   2.447   7.382 -0.7155  0.1970 -0.0308
   86CHL1   C10 8809   5.913   2.627   7.293 -0.1636  0.0697 -0.1130
   86CHL1   C19 8810   5.983   2.755   7.346 -0.1032  0.1990 -0.0857
   86CHL1  H19A 8811   6.082   2.718   7.383 -0.3627 -1.2348 -0.7730
   86CHL1  H19B 8812   6.015   2.819   7.260  2.3329  0.2001  0.7269
   86CHL1  H19C 8813   5.924   2.818   7.416 -0.8687 -0.9660  0.3352
   86CHL1    C1 8814   6.010   2.542   7.208  0.5999 -0.4786  0.2399
   86CHL1   H1A 8815   6.088   2.495   7.272 -0.7433 -0.4908  1.9254
   86CHL1   H1B 8816   5.957   2.458   7.159  0.7751 -0.3180 -0.2335
   86CHL1    C2 8817   6.055   2.605   7.074 -0.0243 -0.2646  0.4399
   86CHL1   H2A 8818   6.097   2.516   7.023  1.3397 -0.6881  2.2137
   86CHL1   H2B 8819   6.126   2.690   7.086  0.9327 -0.3676 -3.2987
   86CHL1   C20 8820   5.730   2.416   7.955  0.1405 -0.0740  0.1936
   86CHL1   H20 8821   5.773   2.515   7.980 -1.3932  0.8936 -0.8644
   86CHL1   C21 8822   5.845   2.315   7.964  0.1664  0.5785  0.1215
   86CHL1  H21A 8823   5.919   2.308   7.881  1.2264  0.8303  1.0113
   86CHL1  H21B 8824   5.811   2.215   7.996 -0.5251 -0.2257 -2.8294
   86CHL1  H21C 8825   5.914   2.348   8.045  1.1134 -0.6702 -0.1307
   86CHL1   C22 8826   5.617   2.392   8.065  0.1525  0.4254 -0.3059
   86CHL1  H22A 8827   5.530   2.454   8.036 -2.1812 -3.2756 -1.9477
   86CHL1  H22B 8828   5.578   2.289   8.055  1.5121 -0.0067 -1.4856
   86CHL1   C23 8829   5.675   2.413   8.203 -0.5592 -0.2864  0.5426
   86CHL1  H23A 8830   5.756   2.336   8.207 -0.3647 -0.5255 -3.7547
   86CHL1  H23B 8831   5.722   2.514   8.208 -2.3441  0.5917  0.3739
   86CHL1   C24 8832   5.576   2.397   8.312  0.1771 -0.1868 -0.7622
   86CHL1  H24A 8833   5.489   2.464   8.292  0.3985 -0.1493 -1.6290
   86CHL1  H24B 8834   5.537   2.293   8.318  0.5782 -0.2495  2.5347
   86CHL1   C25 8835   5.627   2.408   8.452  0.3843  0.0108 -0.6615
   86CHL1   H25 8836   5.688   2.501   8.450  1.7342 -0.8337 -0.2023
   86CHL1   C26 8837   5.523   2.426   8.560  0.7288 -0.2724  0.4247
   86CHL1  H26A 8838   5.562   2.453   8.660 -0.4120  1.1857  0.5180
   86CHL1  H26B 8839   5.450   2.505   8.532  0.9466  0.3862  1.6475
   86CHL1  H26C 8840   5.461   2.335   8.575 -0.6312  0.5314 -0.1097
   86CHL1   C27 8841   5.718   2.295   8.495 -0.2003 -0.3448  0.0401
   86CHL1  H27A 8842   5.677   2.197   8.464 -0.5024  0.1472 -1.1612
   86CHL1  H27B 8843   5.821   2.314   8.458  0.0255  0.8458  1.1922
   86CHL1  H27C 8844   5.723   2.302   8.606  0.4411 -0.1025 -0.0016
   87CHL1    C3 8845   3.543   1.147   7.108  0.1601 -1.0081 -0.1037
   87CHL1    H3 8846   3.653   1.140   7.091  0.2339  0.6998 -0.5214
   87CHL1    O3 8847   3.476   1.059   7.019  0.6448 -0.9156 -0.2971
   87CHL1   H3' 8848   3.483   1.104   6.935  0.3949 -1.3237 -0.5371
   87CHL1    C4 8849   3.504   1.110   7.245  0.3571 -0.0188  0.3051
   87CHL1   H4A 8850   3.393   1.117   7.246  0.4454  2.1170  1.1976
   87CHL1   H4B 8851   3.532   1.004   7.260 -1.3870 -1.0442 -2.8686
   87CHL1    C5 8852   3.572   1.198   7.348 -0.4523  0.1831 -0.0569
   87CHL1    C6 8853   3.648   1.142   7.448 -0.4414 -0.1066  0.5293
   87CHL1    H6 8854   3.677   1.037   7.440  0.0177  0.0092  0.6723
   87CHL1    C7 8855   3.714   1.211   7.568  0.2160 -0.4765 -0.2934
   87CHL1   H7A 8856   3.683   1.168   7.666  3.5143  2.2963  2.1766
   87CHL1   H7B 8857   3.824   1.198   7.560  0.6448  0.5682  2.8681
   87CHL1    C8 8858   3.677   1.364   7.571  0.0018 -0.0743 -0.2166
   87CHL1    H8 8859   3.574   1.370   7.612 -0.7956  0.1836 -2.1151
   87CHL1   C14 8860   3.768   1.450   7.651 -0.2846  0.0496  0.8492
   87CHL1   H14 8861   3.862   1.446   7.591 -1.0240  0.5336 -0.3807
   87CHL1   C15 8862   3.813   1.392   7.780 -0.9440  0.4178  0.4271
   87CHL1  H15A 8863   3.724   1.344   7.826 -0.3427 -1.2120 -0.0591
   87CHL1  H15B 8864   3.886   1.308   7.773 -1.5164  0.0522 -1.8908
   87CHL1   C16 8865   3.853   1.511   7.860  0.5719 -0.2152  0.6374
   87CHL1  H16A 8866   3.791   1.515   7.952  1.6489 -1.1535  1.4389
   87CHL1  H16B 8867   3.961   1.511   7.886  0.4189 -1.4752  1.3343
   87CHL1   C17 8868   3.840   1.633   7.767 -0.4127 -0.4666  0.8979
   87CHL1   H17 8869   3.938   1.640   7.714 -0.2735  1.4851  1.3471
   87CHL1   C13 8870   3.732   1.597   7.667  0.9036 -0.0085  0.3619
   87CHL1   C18 8871   3.596   1.607   7.736  0.3256 -0.6757 -0.0590
   87CHL1  H18A 8872   3.588   1.557   7.835  1.5917  0.1841  0.5094
   87CHL1  H18B 8873   3.568   1.714   7.742 -0.8507 -0.9231 -0.8781
   87CHL1  H18C 8874   3.521   1.571   7.663  0.6837  3.0494 -2.5709
   87CHL1   C12 8875   3.734   1.656   7.527 -0.5969 -0.0612  0.3913
   87CHL1  H12A 8876   3.722   1.767   7.524 -1.2653 -0.1404  0.1259
   87CHL1  H12B 8877   3.838   1.638   7.491 -0.6716  1.7467 -0.8697
   87CHL1   C11 8878   3.649   1.582   7.425 -0.4595  0.2605 -0.2491
   87CHL1  H11A 8879   3.545   1.610   7.453 -1.4018 -0.3814 -2.8035
   87CHL1  H11B 8880   3.682   1.625   7.328  2.1489 -1.2252 -0.0990
   87CHL1    C9 8881   3.657   1.426   7.426 -0.1832 -0.6086  1.0246
   87CHL1    H9 8882   3.752   1.414   7.370 -0.8775  0.1482 -0.3882
   87CHL1   C10 8883   3.550   1.356   7.339 -0.4019  0.1204 -0.0940
   87CHL1   C19 8884   3.408   1.403   7.377 -0.0479  0.5620  0.7739
   87CHL1  H19A 8885   3.334   1.335   7.331 -0.1496 -0.7756  2.7945
   87CHL1  H19B 8886   3.402   1.398   7.488  0.7572  0.9562  0.8484
   87CHL1  H19C 8887   3.383   1.506   7.344 -1.0092 -0.5555 -2.2682
   87CHL1    C1 8888   3.574   1.389   7.189  0.6352  0.0131 -0.0143
   87CHL1   H1A 8889   3.540   1.492   7.164  2.4600  0.7516  0.4611
   87CHL1   H1B 8890   3.682   1.394   7.165  0.1035  1.4205 -2.4903
   87CHL1    C2 8891   3.503   1.299   7.085 -0.4941 -0.4253 -0.2144
   87CHL1   H2A 8892   3.521   1.339   6.983 -0.0824  1.2399  0.4800
   87CHL1   H2B 8893   3.393   1.294   7.096 -0.5352 -0.7147 -0.7339
   87CHL1   C20 8894   3.821   1.768   7.856  0.9172  0.2681 -0.1305
   87CHL1   H20 8895   3.725   1.751   7.910  0.8620  1.4684  0.1866
   87CHL1   C21 8896   3.823   1.887   7.748  0.2469  1.0437 -0.1776
   87CHL1  H21A 8897   3.912   1.878   7.683 -0.2489  1.1378 -0.8838
   87CHL1  H21B 8898   3.812   1.979   7.808 -1.8402  0.1801  0.8923
   87CHL1  H21C 8899   3.735   1.893   7.679 -1.9226  0.0624  2.3146
   87CHL1   C22 8900   3.940   1.785   7.956  0.2294 -0.9389 -0.3870
   87CHL1  H22A 8901   3.971   1.691   8.006  0.9311 -0.5491 -0.0679
   87CHL1  H22B 8902   4.032   1.809   7.897 -0.2701 -2.0279 -1.6676
   87CHL1   C23 8903   3.926   1.891   8.071 -0.7579  0.1232 -0.2341
   87CHL1  H23A 8904   3.934   1.993   8.028  1.1121 -0.2361 -0.8519
   87CHL1  H23B 8905   3.827   1.878   8.120 -0.6593 -0.2591 -0.1306
   87CHL1   C24 8906   4.048   1.872   8.168 -0.3284 -0.0760 -0.2709
   87CHL1  H24A 8907   4.049   1.768   8.207  1.9070  0.4560  1.3103
   87CHL1  H24B 8908   4.143   1.896   8.117 -0.8336 -0.2445 -1.3064
   87CHL1   C25 8909   4.023   1.961   8.294  0.0494  0.1129  0.0181
   87CHL1   H25 8910   3.927   1.929   8.339  0.5211 -0.4878  0.6184
   87CHL1   C26 8911   4.126   1.929   8.399  0.3762  0.3017 -0.3277
   87CHL1  H26A 8912   4.110   1.979   8.496  1.2113 -1.5786  0.8317
   87CHL1  H26B 8913   4.124   1.820   8.421  1.8217  0.4509  0.6670
   87CHL1  H26C 8914   4.227   1.951   8.357  0.3854  0.6564 -0.1198
   87CHL1   C27 8915   4.025   2.116   8.265  0.2521 -0.0825 -0.2256
   87CHL1  H27A 8916   4.129   2.154   8.251  0.5782 -0.7018  0.4716
   87CHL1  H27B 8917   3.973   2.148   8.172 -2.1482  1.3229  1.4764
   87CHL1  H27C 8918   3.979   2.166   8.352 -0.2279 -1.1666  0.1619
   88CHL1    C3 8919   0.904   0.657   7.108  0.2574  0.5746  0.2580
   88CHL1    H3 8920   0.830   0.575   7.123 -0.9489  1.7158  0.6580
   88CHL1    O3 8921   0.912   0.680   6.968 -0.1758 -0.4316  0.0157
   88CHL1   H3' 8922   0.958   0.762   6.952 -0.3070 -0.0531  1.4847
   88CHL1    C4 8923   0.854   0.786   7.179 -0.4205 -0.1294 -0.1671
   88CHL1   H4A 8924   0.913   0.869   7.136 -0.4805  1.3785  2.4005
   88CHL1   H4B 8925   0.751   0.803   7.140  0.3272  0.6662 -1.8967
   88CHL1    C5 8926   0.860   0.789   7.331 -0.0125  0.4423  0.5418
   88CHL1    C6 8927   0.757   0.818   7.406 -0.6594 -0.3747 -0.2147
   88CHL1    H6 8928   0.660   0.840   7.359 -1.2636  0.1231  1.2143
   88CHL1    C7 8929   0.768   0.827   7.559  0.4489  0.6868  0.5925
   88CHL1   H7A 8930   0.719   0.922   7.588 -2.0661  0.2275 -1.7180
   88CHL1   H7B 8931   0.718   0.738   7.601  1.7879 -0.2373  0.2965
   88CHL1    C8 8932   0.907   0.833   7.619 -0.9368 -0.1415 -0.5496
   88CHL1    H8 8933   0.945   0.935   7.595  0.1807 -0.7827 -1.6126
   88CHL1   C14 8934   0.923   0.806   7.767 -0.0757 -0.3099 -0.4880
   88CHL1   H14 8935   0.902   0.701   7.797  1.1453 -0.3664  0.2563
   88CHL1   C15 8936   0.842   0.897   7.865 -0.4965 -0.7288  0.7318
   88CHL1  H15A 8937   0.845   0.999   7.822 -0.5243 -0.4596  1.3723
   88CHL1  H15B 8938   0.736   0.869   7.878 -1.1955  0.5196 -1.7058
   88CHL1   C16 8939   0.915   0.896   7.998 -0.4842  0.5318  0.0057
   88CHL1  H16A 8940   0.934   0.996   8.043 -0.2394  0.9049 -0.9049
   88CHL1  H16B 8941   0.853   0.829   8.061  1.0144 -0.1580  0.8098
   88CHL1   C17 8942   1.047   0.811   7.971  0.5560 -0.2122 -0.5094
   88CHL1   H17 8943   1.014   0.706   7.987 -0.4404 -0.0727 -1.4887
   88CHL1   C13 8944   1.070   0.820   7.820  0.2517  0.9051 -0.4830
   88CHL1   C18 8945   1.135   0.960   7.780 -0.6607  0.4689  0.1682
   88CHL1  H18A 8946   1.156   0.968   7.672 -0.2331 -1.7924  0.0267
   88CHL1  H18B 8947   1.068   1.045   7.804 -1.8691 -0.5898  0.7146
   88CHL1  H18C 8948   1.229   0.968   7.839  1.5430 -2.9108 -2.5232
   88CHL1   C12 8949   1.144   0.713   7.756 -0.4335  0.0769  0.0187
   88CHL1  H12A 8950   1.250   0.704   7.787 -1.2575 -0.5468  2.8781
   88CHL1  H12B 8951   1.090   0.621   7.786  2.3461 -1.1185  1.7630
   88CHL1   C11 8952   1.135   0.726   7.603  0.1290 -0.4074 -1.0389
   88CHL1  H11A 8953   1.194   0.817   7.580 -1.2498  0.4044 -1.4495
   88CHL1  H11B 8954   1.196   0.638   7.571  2.0329 -0.5081  2.3144
   88CHL1    C9 8955   1.000   0.736   7.545 -0.6655 -0.1850  0.4354
   88CHL1    H9 8956   0.958   0.634   7.559 -1.5720  0.1227  0.0786
   88CHL1   C10 8957   0.997   0.747   7.386  0.2795 -0.4811 -0.7040
   88CHL1   C19 8958   1.104   0.847   7.352 -0.4623  0.3408  0.1495
   88CHL1  H19A 8959   1.200   0.792   7.343 -0.3351  0.1998  1.9013
   88CHL1  H19B 8960   1.089   0.900   7.256 -1.5236  2.0406  1.1978
   88CHL1  H19C 8961   1.118   0.931   7.424  1.5155  0.6475 -0.5190
   88CHL1    C1 8962   1.044   0.611   7.319  0.3529  0.1549  0.9751
   88CHL1   H1A 8963   1.148   0.583   7.347  0.4749 -1.1707 -0.5899
   88CHL1   H1B 8964   0.973   0.528   7.341  1.7662 -2.0128 -1.8906
   88CHL1    C2 8965   1.048   0.614   7.162  0.3789 -0.7582  0.4215
   88CHL1   H2A 8966   1.089   0.517   7.127  4.3274  0.1967  1.8479
   88CHL1   H2B 8967   1.112   0.700   7.132  0.0949 -0.3017  1.0979
   88CHL1   C20 8968   1.149   0.842   8.077 -0.6648 -0.6753  0.3259
   88CHL1   H20 8969   1.168   0.951   8.079  1.5498 -1.0314  1.7440
   88CHL1   C21 8970   1.282   0.773   8.049 -0.3120 -0.3847  0.2625
   88CHL1  H21A 8971   1.316   0.815   7.952  1.0839  0.3121  1.0271
   88CHL1  H21B 8972   1.261   0.665   8.040 -0.6452 -0.4612  1.6806
   88CHL1  H21C 8973   1.352   0.800   8.130 -0.0713  1.0636 -0.3883
   88CHL1   C22 8974   1.103   0.817   8.225 -0.0866 -0.2566  0.4052
   88CHL1  H22A 8975   1.013   0.881   8.235 -0.4700 -0.6117 -0.5633
   88CHL1  H22B 8976   1.068   0.712   8.236 -0.5839  0.0601  2.1901
   88CHL1   C23 8977   1.208   0.848   8.328 -0.5555 -0.3396 -0.3373
   88CHL1  H23A 8978   1.276   0.760   8.328  0.0771  0.1452 -0.9847
   88CHL1  H23B 8979   1.282   0.928   8.306 -2.4281  1.5427 -0.0989
   88CHL1   C24 8980   1.159   0.882   8.469 -0.5723  0.1184  0.6652
   88CHL1  H24A 8981   1.146   0.992   8.481  1.1386  0.3475  0.6847
   88CHL1  H24B 8982   1.072   0.819   8.494  1.0214 -2.2286  0.6151
   88CHL1   C25 8983   1.263   0.863   8.579  0.3882  0.5654 -0.2623
   88CHL1   H25 8984   1.292   0.756   8.576  0.1062  0.4690  0.4563
   88CHL1   C26 8985   1.399   0.940   8.565 -0.2879 -0.0034  0.0456
   88CHL1  H26A 8986   1.396   1.042   8.608 -1.7055  0.1184 -0.3176
   88CHL1  H26B 8987   1.479   0.880   8.614  0.7928  0.8204 -0.6312
   88CHL1  H26C 8988   1.419   0.953   8.456 -0.3993  3.2026  0.3156
   88CHL1   C27 8989   1.209   0.900   8.718 -0.2409  0.0862 -0.4611
   88CHL1  H27A 8990   1.297   0.884   8.785  0.2575 -1.6538 -1.4709
   88CHL1  H27B 8991   1.171   1.004   8.728 -0.1728  0.0327  0.4823
   88CHL1  H27C 8992   1.122   0.833   8.734 -1.6812  2.3343  1.8415
   89CHL1    C3 8993   0.135   0.021   7.064 -0.5199  0.5619 -0.5731
   89CHL1    H3 8994   0.037  -0.023   7.091 -0.1472 -0.3971 -0.7629
   89CHL1    O3 8995   0.119   0.065   6.934 -0.1045 -0.4653 -0.4043
   89CHL1   H3' 8996   0.198   0.120   6.928 -0.0402 -0.5141 -0.0038
   89CHL1    C4 8997   0.153   0.131   7.163 -0.2644 -0.2639  0.3155
   89CHL1   H4A 8998   0.242   0.189   7.131  0.8812  0.2901  4.0292
   89CHL1   H4B 8999   0.060   0.191   7.151  0.1474  0.4982  0.8444
   89CHL1    C5 9000   0.183   0.097   7.308 -0.1076 -0.3041 -0.2876
   89CHL1    C6 9001   0.108   0.146   7.413 -0.3100  0.5952 -0.0264
   89CHL1    H6 9002   0.031   0.221   7.389  0.1915  0.9556 -0.5290
   89CHL1    C7 9003   0.144   0.113   7.561  0.2502 -0.2709  0.0497
   89CHL1   H7A 9004   0.129   0.210   7.614 -0.7107  0.6740 -1.8339
   89CHL1   H7B 9005   0.075   0.038   7.603  0.6895  0.4188  2.1392
   89CHL1    C8 9006   0.288   0.052   7.560  0.1559 -0.1557 -0.2006
   89CHL1    H8 9007   0.358   0.136   7.543  1.6087 -0.7778  2.3201
   89CHL1   C14 9008   0.315   0.009   7.697 -0.4234 -0.3851 -0.3942
   89CHL1   H14 9009   0.240  -0.070   7.720  0.1821 -0.6896  0.6075
   89CHL1   C15 9010   0.307   0.117   7.811  0.0715  1.3217  0.0916
   89CHL1  H15A 9011   0.333   0.211   7.757 -0.4947  1.0567 -0.6597
   89CHL1  H15B 9012   0.206   0.100   7.853  0.8278 -2.0356  0.8746
   89CHL1   C16 9013   0.412   0.064   7.912 -0.2055  0.0372 -0.5376
   89CHL1  H16A 9014   0.496   0.137   7.919  0.7702 -1.0808 -0.1955
   89CHL1  H16B 9015   0.362   0.062   8.011 -0.4192  1.4129 -0.5999
   89CHL1   C17 9016   0.448  -0.077   7.871  0.3810  0.2236 -0.0468
   89CHL1   H17 9017   0.359  -0.140   7.889 -3.4778  4.7963 -0.9101
   89CHL1   C13 9018   0.452  -0.065   7.713  0.4086 -0.5702  0.1740
   89CHL1   C18 9019   0.576   0.020   7.670  0.7509 -0.7351 -0.1628
   89CHL1  H18A 9020   0.659  -0.054   7.677 -0.0377 -1.8134 -1.6261
   89CHL1  H18B 9021   0.548   0.055   7.568 -0.5957 -1.2066  0.0223
   89CHL1  H18C 9022   0.596   0.113   7.727 -1.5446  2.5024 -4.1085
   89CHL1   C12 9023   0.447  -0.200   7.634 -0.3586 -0.4618  0.0604
   89CHL1  H12A 9024   0.542  -0.257   7.642  0.6646  1.2085  0.2571
   89CHL1  H12B 9025   0.362  -0.260   7.674  0.1038 -1.2683 -0.1296
   89CHL1   C11 9026   0.423  -0.162   7.482 -0.0939  0.2025 -0.9827
   89CHL1  H11A 9027   0.511  -0.105   7.447  0.0783  0.5878  0.0536
   89CHL1  H11B 9028   0.404  -0.257   7.428  1.0229 -1.0145  0.6412
   89CHL1    C9 9029   0.300  -0.069   7.462  0.5693 -0.1680  0.0753
   89CHL1    H9 9030   0.210  -0.130   7.482  0.8853 -1.0032 -0.9748
   89CHL1   C10 9031   0.289  -0.009   7.318  0.3679 -0.1771  0.9124
   89CHL1   C19 9032   0.425   0.055   7.278  0.2450 -0.1303  0.2291
   89CHL1  H19A 9033   0.417   0.088   7.172  0.4365  3.0210  1.1041
   89CHL1  H19B 9034   0.458   0.128   7.354 -1.0253  1.6752 -0.8757
   89CHL1  H19C 9035   0.502  -0.025   7.276 -0.1909 -0.5471 -0.0675
   89CHL1    C1 9036   0.258  -0.124   7.220 -0.1234  1.2102  0.5056
   89CHL1   H1A 9037   0.325  -0.210   7.237 -1.5390  0.2675  1.5744
   89CHL1   H1B 9038   0.161  -0.172   7.247 -0.2521  0.3379 -1.3380
   89CHL1    C2 9039   0.240  -0.089   7.074 -0.4239 -0.1049  0.1551
   89CHL1   H2A 9040   0.208  -0.174   7.009  0.0770  0.3788 -0.7438
   89CHL1   H2B 9041   0.338  -0.048   7.039 -0.2198  0.7549  1.6638
   89CHL1   C20 9042   0.583  -0.126   7.942 -0.5576  0.3400  0.3143
   89CHL1   H20 9043   0.672  -0.108   7.878 -2.2070  0.7333 -2.0101
   89CHL1   C21 9044   0.572  -0.281   7.961  0.2998 -0.3236  0.2785
   89CHL1  H21A 9045   0.598  -0.329   7.865  2.7900 -0.5477  1.0055
   89CHL1  H21B 9046   0.471  -0.310   7.997 -1.0783  0.2118 -2.8263
   89CHL1  H21C 9047   0.657  -0.303   8.028  1.3242  2.5952  0.0945
   89CHL1   C22 9048   0.616  -0.060   8.084  0.0430  0.3641 -0.2012
   89CHL1  H22A 9049   0.718  -0.094   8.112 -0.4713 -1.1013 -0.0295
   89CHL1  H22B 9050   0.619   0.051   8.079  0.2504  0.4440  1.1907
   89CHL1   C23 9051   0.521  -0.087   8.205 -0.0587 -0.2043 -0.8824
   89CHL1  H23A 9052   0.412  -0.082   8.187 -0.1285  1.0673 -0.2244
   89CHL1  H23B 9053   0.535  -0.195   8.228 -1.7815 -0.5797 -1.4063
   89CHL1   C24 9054   0.563  -0.006   8.325  0.0994  0.6250  0.0303
   89CHL1  H24A 9055   0.673  -0.020   8.329  0.0699  0.1969 -0.7169
   89CHL1  H24B 9056   0.551   0.104   8.311  1.0560  1.0302  1.9806
   89CHL1   C25 9057   0.501  -0.047   8.461  0.0812  0.7507  0.5928
   89CHL1   H25 9058   0.393  -0.073   8.449 -0.0802  1.1706  1.1289
   89CHL1   C26 9059   0.550  -0.177   8.535 -0.0641  0.7911  0.1599
   89CHL1  H26A 9060   0.497  -0.205   8.628 -0.7009  0.2419 -0.3599
   89CHL1  H26B 9061   0.540  -0.256   8.457  0.3268  0.4900  0.4118
   89CHL1  H26C 9062   0.660  -0.168   8.549  0.1620  0.0227 -0.9548
   89CHL1   C27 9063   0.510   0.064   8.560  0.8781 -0.3709 -0.2789
   89CHL1  H27A 9064   0.618   0.085   8.577  0.8892 -1.2279  0.8555
   89CHL1  H27B 9065   0.450   0.153   8.532 -0.1170 -0.2497  2.0451
   89CHL1  H27C 9066   0.471   0.027   8.657  1.6580 -2.0090 -0.5534
   90CHL1    C3 9067   5.309   4.032   6.785 -0.2466 -0.0234  0.2703
   90CHL1    H3 9068   5.266   3.929   6.780 -2.6230  0.9644 -1.3168
   90CHL1    O3 9069   5.344   4.068   6.653 -0.6858 -0.0663 -0.2060
   90CHL1   H3' 9070   5.381   4.157   6.652  2.7885 -1.3692 -0.6398
   90CHL1    C4 9071   5.198   4.121   6.853 -0.5929  0.4586  0.0336
   90CHL1   H4A 9072   5.225   4.225   6.822 -0.9557  0.8262  0.9137
   90CHL1   H4B 9073   5.100   4.095   6.808 -0.5549  0.7193 -0.2060
   90CHL1    C5 9074   5.185   4.119   7.004  0.6896 -0.4146  0.0823
   90CHL1    C6 9075   5.067   4.106   7.061  0.7108 -0.2619 -0.3994
   90CHL1    H6 9076   4.979   4.095   6.996  0.4974  1.5624 -0.4558
   90CHL1    C7 9077   5.055   4.097   7.207  0.3305 -0.4429  0.2420
   90CHL1   H7A 9078   4.958   4.135   7.247  0.0427 -2.5403  1.7029
   90CHL1   H7B 9079   5.027   3.992   7.231 -1.3143  0.1123  0.9900
   90CHL1    C8 9080   5.175   4.147   7.292 -0.1022  0.2217 -0.7490
   90CHL1    H8 9081   5.176   4.258   7.290  3.7779  0.3031 -0.8486
   90CHL1   C14 9082   5.184   4.096   7.437  0.4618  0.8134  0.6851
   90CHL1   H14 9083   5.207   3.989   7.417 -1.3697  0.8179 -1.8955
   90CHL1   C15 9084   5.060   4.111   7.523 -0.4141 -0.2640  0.0020
   90CHL1  H15A 9085   5.006   4.207   7.507 -1.4478 -0.7317  0.6082
   90CHL1  H15B 9086   4.983   4.033   7.504  0.3054 -0.9091 -0.3209
   90CHL1   C16 9087   5.116   4.104   7.669  0.7031 -0.3705  0.4474
   90CHL1  H16A 9088   5.080   4.194   7.724 -0.1236 -1.0037  0.9712
   90CHL1  H16B 9089   5.084   4.013   7.725 -1.2958  0.4817  0.7915
   90CHL1   C17 9090   5.266   4.093   7.665 -0.1183  0.2413 -0.5516
   90CHL1   H17 9091   5.290   3.986   7.649 -0.4960  0.2104 -0.9395
   90CHL1   C13 9092   5.294   4.153   7.531 -0.1877  0.2744  0.1364
   90CHL1   C18 9093   5.272   4.307   7.547 -1.1726 -0.5109 -0.6420
   90CHL1  H18A 9094   5.295   4.368   7.457  1.5629 -0.2043  0.1650
   90CHL1  H18B 9095   5.168   4.333   7.577 -1.4645 -0.6898 -1.4637
   90CHL1  H18C 9096   5.343   4.345   7.623  0.2325  0.0314 -2.1813
   90CHL1   C12 9097   5.425   4.115   7.466 -0.6388  0.1168 -0.1449
   90CHL1  H12A 9098   5.517   4.157   7.513 -0.9716 -1.5321  2.1548
   90CHL1  H12B 9099   5.434   4.005   7.477  1.2199  0.1029 -1.3580
   90CHL1   C11 9100   5.433   4.154   7.320 -0.2407 -0.4576 -0.0296
   90CHL1  H11A 9101   5.434   4.265   7.309  0.8493 -0.5731 -1.2423
   90CHL1  H11B 9102   5.525   4.112   7.276 -0.8785 -0.4445 -1.4207
   90CHL1    C9 9103   5.306   4.100   7.237 -0.4242 -0.3022 -0.0185
   90CHL1    H9 9104   5.299   3.989   7.233  0.0776 -0.3336 -0.1768
   90CHL1   C10 9105   5.320   4.134   7.086  0.4120  0.1507  0.0972
   90CHL1   C19 9106   5.377   4.275   7.061 -0.2308  0.0408  0.3642
   90CHL1  H19A 9107   5.337   4.352   7.130 -0.5039  0.2688 -0.0506
   90CHL1  H19B 9108   5.487   4.278   7.078 -0.4895  0.0363  2.2885
   90CHL1  H19C 9109   5.358   4.311   6.958  3.0919 -0.7685 -0.6693
   90CHL1    C1 9110   5.403   4.017   7.022 -0.2313 -0.4947 -0.0419
   90CHL1   H1A 9111   5.502   4.005   7.069  0.5031  1.9980 -0.8077
   90CHL1   H1B 9112   5.343   3.925   7.039 -2.1625  0.2832 -1.9794
   90CHL1    C2 9113   5.431   4.030   6.870 -0.0388  0.6712  0.0621
   90CHL1   H2A 9114   5.494   3.945   6.834  0.4527  1.0498  0.0222
   90CHL1   H2B 9115   5.487   4.124   6.851 -0.0201  0.3938 -1.3702
   90CHL1   C20 9116   5.339   4.127   7.794  0.0716 -0.0313 -0.1558
   90CHL1   H20 9117   5.305   4.227   7.827  0.8622 -0.8143  3.4903
   90CHL1   C21 9118   5.491   4.132   7.780 -0.3403 -0.5813  0.2077
   90CHL1  H21A 9119   5.524   4.231   7.742 -0.9218 -0.5010 -0.1063
   90CHL1  H21B 9120   5.528   4.050   7.715 -0.5970  0.0890 -0.8145
   90CHL1  H21C 9121   5.532   4.117   7.882  0.0692 -1.0010 -0.0127
   90CHL1   C22 9122   5.309   4.018   7.911 -0.1707 -0.1597 -0.2903
   90CHL1  H22A 9123   5.203   3.984   7.901 -0.7573  1.8649 -1.6723
   90CHL1  H22B 9124   5.378   3.934   7.890 -0.0785 -0.1110 -0.1819
   90CHL1   C23 9125   5.313   4.058   8.061  0.0566 -0.3302  0.3089
   90CHL1  H23A 9126   5.418   4.066   8.096  1.0697 -2.4998 -1.8981
   90CHL1  H23B 9127   5.259   4.155   8.064  2.0746  0.9225 -1.4367
   90CHL1   C24 9128   5.250   3.952   8.155 -0.3031 -0.0905  0.1949
   90CHL1  H24A 9129   5.142   3.936   8.131 -0.2894  1.6591 -1.3406
   90CHL1  H24B 9130   5.307   3.860   8.131 -1.8198 -0.4743 -2.3545
   90CHL1   C25 9131   5.254   4.003   8.303 -0.8387  0.0681  0.0898
   90CHL1   H25 9132   5.197   4.098   8.300  0.4346  0.8343 -0.3606
   90CHL1   C26 9133   5.183   3.902   8.403 -0.0386 -0.0054 -0.0445
   90CHL1  H26A 9134   5.257   3.835   8.452 -1.1934 -3.6367 -2.7892
   90CHL1  H26B 9135   5.122   3.955   8.480  0.3042 -1.5376  1.3323
   90CHL1  H26C 9136   5.118   3.837   8.341 -1.0364  0.3552  0.6056
   90CHL1   C27 9137   5.387   4.050   8.366  0.2305  0.0277  0.3388
   90CHL1  H27A 9138   5.451   3.960   8.362  0.9006  0.5305 -1.2625
   90CHL1  H27B 9139   5.421   4.131   8.298 -2.9946  0.0132 -1.5014
   90CHL1  H27C 9140   5.381   4.097   8.466  1.6810 -1.7533  1.3109
   91CHL1    C3 9141   6.721   6.506   7.171  0.1499 -0.6041  1.0758
   91CHL1    H3 9142   6.818   6.559   7.173 -0.8090  1.2098  1.4306
   91CHL1    O3 9143   6.691   6.452   7.044  0.4194 -0.4621  0.5213
   91CHL1   H3' 9144   6.612   6.491   7.005  2.0661  0.2509 -2.4250
   91CHL1    C4 9145   6.722   6.388   7.273 -0.4315  0.4142 -0.0618
   91CHL1   H4A 9146   6.623   6.339   7.266 -0.9041  1.2246  0.6818
   91CHL1   H4B 9147   6.802   6.316   7.248 -0.9659 -0.5729  0.9716
   91CHL1    C5 9148   6.741   6.438   7.409 -0.0826 -0.9890  0.0053
   91CHL1    C6 9149   6.843   6.388   7.486 -0.0119  0.1254 -0.3275
   91CHL1    H6 9150   6.907   6.305   7.453  0.2169 -0.5846  1.7702
   91CHL1    C7 9151   6.849   6.433   7.632 -0.1663 -0.3148 -0.0563
   91CHL1   H7A 9152   6.845   6.335   7.684  1.3535  0.1863  1.0879
   91CHL1   H7B 9153   6.946   6.483   7.655  0.3245 -1.1069 -0.3235
   91CHL1    C8 9154   6.740   6.529   7.689 -1.1033  0.2403 -0.3663
   91CHL1    H8 9155   6.657   6.466   7.728  0.5224 -1.4520  0.5356
   91CHL1   C14 9156   6.791   6.614   7.808  0.2727  0.3019  0.4973
   91CHL1   H14 9157   6.862   6.680   7.753  0.7022  0.3185  1.0685
   91CHL1   C15 9158   6.873   6.540   7.915 -0.2165  0.3502  0.1088
   91CHL1  H15A 9159   6.833   6.443   7.950  1.3442  0.3846  2.1815
   91CHL1  H15B 9160   6.976   6.510   7.886  0.7364  0.8465  2.6975
   91CHL1   C16 9161   6.866   6.635   8.031  0.6627 -0.2244 -0.4471
   91CHL1  H16A 9162   6.843   6.576   8.123 -1.5291 -0.2934 -0.9659
   91CHL1  H16B 9163   6.965   6.678   8.054 -0.8312  3.1036  0.2945
   91CHL1   C17 9164   6.765   6.747   7.995  0.2431  0.2733 -0.4816
   91CHL1   H17 9165   6.825   6.828   7.949  1.5324 -1.8641 -2.8486
   91CHL1   C13 9166   6.677   6.696   7.876 -0.0525  0.3042 -0.0559
   91CHL1   C18 9167   6.567   6.596   7.930 -0.6537  0.5785 -0.5503
   91CHL1  H18A 9168   6.514   6.545   7.846  0.4330 -0.6977 -0.4981
   91CHL1  H18B 9169   6.605   6.522   8.003 -1.0365  0.1183 -0.8083
   91CHL1  H18C 9170   6.487   6.651   7.984 -2.1376 -1.6936 -0.2765
   91CHL1   C12 9171   6.625   6.796   7.772  0.9114  0.0117  0.4983
   91CHL1  H12A 9172   6.528   6.841   7.800  0.8955  0.7612 -0.6918
   91CHL1  H12B 9173   6.703   6.875   7.762  1.6502 -0.8833 -1.1158
   91CHL1   C11 9174   6.591   6.734   7.634 -0.2149 -0.0965 -0.6076
   91CHL1  H11A 9175   6.493   6.684   7.648  0.0697 -0.9161 -1.4699
   91CHL1  H11B 9176   6.588   6.819   7.563  0.3693  0.4888  0.0466
   91CHL1    C9 9177   6.698   6.625   7.577  0.2684 -0.3854 -0.1573
   91CHL1    H9 9178   6.789   6.681   7.549 -1.3169  2.2105 -0.3715
   91CHL1   C10 9179   6.654   6.554   7.451  0.1189  0.5247 -0.4872
   91CHL1   C19 9180   6.509   6.496   7.478 -0.7168  0.2618 -0.0299
   91CHL1  H19A 9181   6.432   6.575   7.480 -0.4011  0.7126 -2.3665
   91CHL1  H19B 9182   6.480   6.422   7.400 -1.7523 -0.3674  0.9276
   91CHL1  H19C 9183   6.516   6.431   7.568 -0.8156 -0.4120 -0.5031
   91CHL1    C1 9184   6.649   6.666   7.347  0.1727  1.1376  0.1056
   91CHL1   H1A 9185   6.575   6.744   7.376 -0.5000  0.2112  0.9417
   91CHL1   H1B 9186   6.747   6.719   7.349  0.6966  0.3281 -1.8452
   91CHL1    C2 9187   6.621   6.614   7.202 -0.0048  0.7256  0.7632
   91CHL1   H2A 9188   6.631   6.693   7.125  0.6377 -0.4111 -0.3536
   91CHL1   H2B 9189   6.521   6.565   7.200 -0.5938  1.9283  0.1272
   91CHL1   C20 9190   6.692   6.812   8.113 -0.0004  0.0703 -1.4289
   91CHL1   H20 9191   6.619   6.739   8.155 -0.8383  2.2306  1.1529
   91CHL1   C21 9192   6.600   6.918   8.057 -0.7356 -0.1000 -0.2204
   91CHL1  H21A 9193   6.513   6.881   7.997 -1.8966  2.1051 -0.0018
   91CHL1  H21B 9194   6.656   6.998   8.005 -0.2737 -1.0800 -1.2782
   91CHL1  H21C 9195   6.557   6.971   8.145 -0.9217  0.1988 -0.4902
   91CHL1   C22 9196   6.790   6.862   8.231  0.4916 -0.5900  0.9857
   91CHL1  H22A 9197   6.731   6.896   8.319  0.1559  0.9121  0.2046
   91CHL1  H22B 9198   6.846   6.770   8.259  0.9049 -0.7223 -0.2136
   91CHL1   C23 9199   6.889   6.973   8.197 -0.1297  0.6551  0.1881
   91CHL1  H23A 9200   6.964   6.938   8.123  0.0617  0.1521  0.6136
   91CHL1  H23B 9201   6.831   7.051   8.143 -1.9811 -1.1561 -0.5619
   91CHL1   C24 9202   6.962   7.042   8.314 -0.3038 -0.1114  0.2261
   91CHL1  H24A 9203   6.885   7.071   8.388 -0.3215 -0.7421  0.4550
   91CHL1  H24B 9204   7.034   6.977   8.368 -0.6858 -1.8790 -1.2974
   91CHL1   C25 9205   7.037   7.169   8.272  0.4887  1.0569  0.1843
   91CHL1   H25 9206   6.966   7.224   8.206 -0.4598 -0.5152 -0.1679
   91CHL1   C26 9207   7.076   7.257   8.386 -0.0739 -0.1148 -0.1529
   91CHL1  H26A 9208   6.990   7.295   8.446 -0.2427  1.0767 -1.1104
   91CHL1  H26B 9209   7.155   7.206   8.445 -0.3279 -0.3924 -0.0516
   91CHL1  H26C 9210   7.139   7.339   8.345  4.2206 -2.6936  0.6813
   91CHL1   C27 9211   7.169   7.129   8.187 -0.0228 -0.4893  0.0640
   91CHL1  H27A 9212   7.157   7.034   8.131 -4.9914 -0.3299  0.4010
   91CHL1  H27B 9213   7.198   7.209   8.116 -0.2849 -0.1807  0.3052
   91CHL1  H27C 9214   7.256   7.118   8.256  0.7955  0.5044 -0.7904
   92CHL1    C3 9215   2.188   1.500   6.727 -0.0122 -0.2054 -0.4158
   92CHL1    H3 9216   2.116   1.566   6.780 -1.4658 -2.1972  0.1931
   92CHL1    O3 9217   2.162   1.505   6.593  0.2687 -0.0108  1.1492
   92CHL1   H3' 9218   2.178   1.596   6.568  0.7939 -0.3463  0.2500
   92CHL1    C4 9219   2.328   1.567   6.748  0.2423  0.6241 -0.1066
   92CHL1   H4A 9220   2.399   1.508   6.686 -2.3260 -2.1978 -0.5915
   92CHL1   H4B 9221   2.320   1.668   6.702 -0.1665  1.3904  1.5481
   92CHL1    C5 9222   2.365   1.569   6.896 -0.6457  0.1625  0.1280
   92CHL1    C6 9223   2.394   1.684   6.951  0.1362  0.1182  0.1979
   92CHL1    H6 9224   2.401   1.773   6.885  1.4449  1.1507  1.6684
   92CHL1    C7 9225   2.441   1.693   7.094 -0.5449  0.4916 -0.3985
   92CHL1   H7A 9226   2.536   1.750   7.095  0.2975 -0.8471  1.1886
   92CHL1   H7B 9227   2.369   1.760   7.145 -2.5364 -1.7874 -0.0163
   92CHL1    C8 9228   2.445   1.564   7.169 -0.3002 -0.1473 -0.0644
   92CHL1    H8 9229   2.548   1.523   7.160  0.9104  1.6790  3.6285
   92CHL1   C14 9230   2.431   1.595   7.322  0.1318 -0.0422 -0.0833
   92CHL1   H14 9231   2.330   1.638   7.340  0.6777  1.0770  0.3938
   92CHL1   C15 9232   2.523   1.698   7.396  0.2681 -0.2900  0.4428
   92CHL1  H15A 9233   2.630   1.686   7.372  0.1651 -1.1946  0.3691
   92CHL1  H15B 9234   2.480   1.795   7.364 -1.4741 -0.8624  0.8978
   92CHL1   C16 9235   2.497   1.666   7.541  0.1645 -0.1152  0.3783
   92CHL1  H16A 9236   2.593   1.666   7.597  0.8317 -1.0766 -0.7193
   92CHL1  H16B 9237   2.434   1.734   7.602 -0.6117 -1.5412  1.2245
   92CHL1   C17 9238   2.426   1.524   7.552 -0.2740  0.1768  0.4899
   92CHL1   H17 9239   2.318   1.534   7.574 -0.5550 -2.1578  0.4607
   92CHL1   C13 9240   2.440   1.467   7.411  0.1912  0.3618  0.5759
   92CHL1   C18 9241   2.575   1.398   7.395 -0.6722 -0.3177  0.3378
   92CHL1  H18A 9242   2.581   1.302   7.450 -0.4268 -0.5637 -0.1081
   92CHL1  H18B 9243   2.590   1.374   7.287 -1.2607 -1.4289  0.4904
   92CHL1  H18C 9244   2.655   1.466   7.431 -1.5392  0.5218  0.7151
   92CHL1   C12 9245   2.327   1.364   7.370 -0.8371  0.4811  0.1885
   92CHL1  H12A 9246   2.334   1.266   7.422 -0.9346  1.2596  1.7082
   92CHL1  H12B 9247   2.228   1.408   7.394 -0.0118  3.8292 -1.8624
   92CHL1   C11 9248   2.331   1.341   7.213 -0.2382  0.5083  0.1227
   92CHL1  H11A 9249   2.413   1.267   7.200 -1.0646 -1.0010  2.8580
   92CHL1  H11B 9250   2.234   1.293   7.187  0.9330 -0.5437 -2.7654
   92CHL1    C9 9251   2.338   1.465   7.125 -0.4164 -0.2073  0.1026
   92CHL1    H9 9252   2.243   1.519   7.144  0.4376  1.9534 -1.3621
   92CHL1   C10 9253   2.337   1.438   6.971 -0.7193  0.1238 -0.9902
   92CHL1   C19 9254   2.452   1.340   6.947 -0.2758  0.2376  0.0112
   92CHL1  H19A 9255   2.547   1.388   6.977  0.1448 -0.5247 -0.0816
   92CHL1  H19B 9256   2.441   1.237   6.988 -1.1059 -0.5415 -2.0219
   92CHL1  H19C 9257   2.459   1.321   6.837 -0.8189  0.7607 -0.1180
   92CHL1    C1 9258   2.204   1.367   6.930 -0.3284 -0.1477  0.0978
   92CHL1   H1A 9259   2.197   1.267   6.980 -0.4764  0.9372  2.3836
   92CHL1   H1B 9260   2.121   1.426   6.976 -0.1862 -1.1553  1.7338
   92CHL1    C2 9261   2.179   1.357   6.783  0.0766 -0.1016  0.0031
   92CHL1   H2A 9262   2.078   1.312   6.780 -0.8570  1.9429 -1.7289
   92CHL1   H2B 9263   2.258   1.298   6.730  0.5803  2.0706 -1.8364
   92CHL1   C20 9264   2.480   1.440   7.675 -0.8885 -0.0538  0.1375
   92CHL1   H20 9265   2.587   1.418   7.654 -0.2984 -2.6058  4.5553
   92CHL1   C21 9266   2.400   1.306   7.704  0.0790 -0.0560  0.1966
   92CHL1  H21A 9267   2.429   1.264   7.803 -2.1901 -0.8157  0.5960
   92CHL1  H21B 9268   2.418   1.236   7.620 -0.8999 -0.5326  0.3618
   92CHL1  H21C 9269   2.296   1.345   7.704  1.0515  2.8017  0.9135
   92CHL1   C22 9270   2.480   1.517   7.805 -0.7405  0.3194  0.4695
   92CHL1  H22A 9271   2.520   1.620   7.795 -1.7991  0.6855 -0.0882
   92CHL1  H22B 9272   2.375   1.536   7.835 -1.8725 -1.0122 -2.2789
   92CHL1   C23 9273   2.560   1.435   7.911 -0.4123  0.1747 -0.1249
   92CHL1  H23A 9274   2.494   1.358   7.957 -0.9164  0.9053  0.4011
   92CHL1  H23B 9275   2.647   1.390   7.859  1.7969  1.4752  2.2116
   92CHL1   C24 9276   2.619   1.529   8.015 -0.0022 -0.6027 -0.0852
   92CHL1  H24A 9277   2.682   1.601   7.958  0.1447 -0.9988 -0.4287
   92CHL1  H24B 9278   2.543   1.583   8.077  0.2687  0.3604 -0.5709
   92CHL1   C25 9279   2.716   1.462   8.118 -0.3453 -0.2664  0.5981
   92CHL1   H25 9280   2.791   1.406   8.058  1.8458  1.8678  1.1658
   92CHL1   C26 9281   2.791   1.579   8.189  0.1312  0.3126 -0.1579
   92CHL1  H26A 9282   2.862   1.533   8.261  1.4253  1.3736 -0.7234
   92CHL1  H26B 9283   2.846   1.641   8.116  0.4336 -1.5851 -1.6130
   92CHL1  H26C 9284   2.711   1.635   8.243 -1.7325 -2.9956  0.8075
   92CHL1   C27 9285   2.644   1.376   8.217 -0.3172 -0.8171  0.1549
   92CHL1  H27A 9286   2.713   1.337   8.294  0.1178 -1.0669 -0.3524
   92CHL1  H27B 9287   2.559   1.430   8.263  0.2812  1.8076 -1.6518
   92CHL1  H27C 9288   2.605   1.293   8.153  1.2742 -0.7275 -0.9890
   93CHL1    C3 9289   4.208   6.524   6.957  0.3576 -0.1523 -0.3164
   93CHL1    H3 9290   4.123   6.461   6.992 -0.7080  0.9900 -0.7840
   93CHL1    O3 9291   4.214   6.501   6.816  0.0703  0.6076  0.3687
   93CHL1   H3' 9292   4.258   6.577   6.778  0.5143  0.3479  0.3555
   93CHL1    C4 9293   4.161   6.671   6.990 -0.3104  0.4251 -0.0042
   93CHL1   H4A 9294   4.240   6.732   6.943  0.7753 -2.0233 -1.5748
   93CHL1   H4B 9295   4.065   6.686   6.935 -1.6166 -0.8612  1.8119
   93CHL1    C5 9296   4.151   6.698   7.141 -0.9529  0.4608  0.0479
   93CHL1    C6 9297   4.033   6.732   7.196  0.2062  0.1530  0.1735
   93CHL1    H6 9298   3.948   6.741   7.127 -1.3950  2.0348  2.2609
   93CHL1    C7 9299   4.004   6.759   7.340  0.1046 -0.3020 -0.0958
   93CHL1   H7A 9300   3.975   6.866   7.348  0.3263 -0.2837  0.5045
   93CHL1   H7B 9301   3.917   6.696   7.367  0.8847 -1.3953 -0.0466
   93CHL1    C8 9302   4.133   6.744   7.428  1.2316  0.6170  0.1055
   93CHL1    H8 9303   4.191   6.839   7.428 -0.2557  1.5893  1.9258
   93CHL1   C14 9304   4.090   6.714   7.579 -0.1575  0.3558  0.1341
   93CHL1   H14 9305   4.024   6.625   7.569 -1.2321  1.2762 -1.4354
   93CHL1   C15 9306   4.018   6.822   7.657  0.0620  0.4549 -0.5520
   93CHL1  H15A 9307   4.072   6.917   7.636  0.3740  0.5150  0.4908
   93CHL1  H15B 9308   3.910   6.828   7.630 -0.5299  0.1221  1.5833
   93CHL1   C16 9309   4.034   6.788   7.802  0.4291  0.1847  0.1044
   93CHL1  H16A 9310   4.063   6.869   7.872  1.5895  1.2817 -1.5948
   93CHL1  H16B 9311   3.937   6.738   7.824 -0.0773 -0.1393 -2.5483
   93CHL1   C17 9312   4.137   6.673   7.808  0.2890  0.1665  0.2754
   93CHL1   H17 9313   4.083   6.577   7.799  0.9026 -0.0233 -2.0567
   93CHL1   C13 9314   4.210   6.678   7.671  0.5414  0.0653 -0.3099
   93CHL1   C18 9315   4.309   6.794   7.681 -0.0126  0.1578  0.0245
   93CHL1  H18A 9316   4.397   6.754   7.737 -0.9897 -1.6446  0.3628
   93CHL1  H18B 9317   4.328   6.824   7.576 -3.0950  0.1893 -0.6242
   93CHL1  H18C 9318   4.271   6.879   7.741 -0.6238 -0.3730  0.4128
   93CHL1   C12 9319   4.285   6.560   7.612  0.5231 -0.4768  0.1529
   93CHL1  H12A 9320   4.375   6.529   7.670  1.5678  0.2816 -1.0024
   93CHL1  H12B 9321   4.213   6.475   7.607 -1.8510  1.1110  3.5949
   93CHL1   C11 9322   4.337   6.583   7.466 -0.3040  0.5742  0.0132
   93CHL1  H11A 9323   4.419   6.658   7.472  1.5259 -1.3973  1.1510
   93CHL1  H11B 9324   4.376   6.493   7.414 -0.8621 -0.5125  1.4491
   93CHL1    C9 9325   4.225   6.632   7.370 -0.1295 -0.4485  0.2955
   93CHL1    H9 9326   4.162   6.540   7.363  0.2279 -0.7266  0.6689
   93CHL1   C10 9327   4.266   6.658   7.226 -0.4393  0.1924  0.3904
   93CHL1   C19 9328   4.351   6.791   7.218 -0.3045  0.7437  0.4004
   93CHL1  H19A 9329   4.380   6.810   7.113 -0.1612 -0.3843  0.2198
   93CHL1  H19B 9330   4.309   6.887   7.254  0.8659  0.9877  1.1833
   93CHL1  H19C 9331   4.442   6.763   7.275  0.5526 -3.4271 -2.4909
   93CHL1    C1 9332   4.347   6.527   7.174  0.5515  0.4323  0.2950
   93CHL1   H1A 9333   4.452   6.518   7.210  0.6111 -0.5021 -0.0722
   93CHL1   H1B 9334   4.295   6.434   7.206  2.5007 -0.2111  1.8945
   93CHL1    C2 9335   4.341   6.503   7.022  0.0510  0.2100 -0.3094
   93CHL1   H2A 9336   4.384   6.402   7.006  1.9093  0.8659  0.1853
   93CHL1   H2B 9337   4.412   6.572   6.971 -2.6850  2.7312 -1.0038
   93CHL1   C20 9338   4.211   6.672   7.943 -0.4566 -0.3195 -0.2805
   93CHL1   H20 9339   4.256   6.772   7.963  1.8627 -1.4054  0.3151
   93CHL1   C21 9340   4.335   6.578   7.927 -0.6306 -0.0777 -0.1589
   93CHL1  H21A 9341   4.381   6.553   8.025  3.0620 -0.3845 -1.7925
   93CHL1  H21B 9342   4.419   6.633   7.879 -0.1863  0.5760  1.3103
   93CHL1  H21C 9343   4.303   6.484   7.878  2.0684 -0.9257 -0.4695
   93CHL1   C22 9344   4.120   6.641   8.069 -0.3375 -0.9752  1.1655
   93CHL1  H22A 9345   4.024   6.685   8.036  0.3216 -1.9665 -2.5525
   93CHL1  H22B 9346   4.102   6.533   8.086  0.9485 -0.9632  2.8637
   93CHL1   C23 9347   4.151   6.700   8.208 -0.6018 -0.7516  0.3884
   93CHL1  H23A 9348   4.256   6.665   8.222 -0.0994 -0.3844 -2.0936
   93CHL1  H23B 9349   4.167   6.809   8.204 -2.5211 -0.4371  0.1408
   93CHL1   C24 9350   4.070   6.650   8.325  0.1917  0.3533  0.2858
   93CHL1  H24A 9351   3.963   6.680   8.321 -0.5570 -1.7535  2.6330
   93CHL1  H24B 9352   4.078   6.540   8.323 -3.2440 -0.0220  0.5896
   93CHL1   C25 9353   4.123   6.692   8.463  0.4156  0.4040  0.5687
   93CHL1   H25 9354   4.230   6.663   8.455  0.1685  0.0570 -3.2077
   93CHL1   C26 9355   4.133   6.840   8.470  0.2573 -0.3721  0.1480
   93CHL1  H26A 9356   4.223   6.874   8.415  2.6003 -1.9100  2.7832
   93CHL1  H26B 9357   4.048   6.899   8.429  0.0187 -1.1727 -0.5264
   93CHL1  H26C 9358   4.159   6.873   8.573 -0.6142  0.1317  0.2243
   93CHL1   C27 9359   4.060   6.622   8.582 -0.2475 -0.3572  0.4019
   93CHL1  H27A 9360   4.126   6.627   8.672 -0.1773 -2.5976  0.5315
   93CHL1  H27B 9361   3.965   6.674   8.608 -0.4009 -0.7844  0.7186
   93CHL1  H27C 9362   4.044   6.515   8.557 -0.7478  0.0292 -1.0074
   94CHL1    C3 9363   4.167   1.672   6.867  1.2744 -0.2828 -0.0135
   94CHL1    H3 9364   4.099   1.755   6.836  0.1961 -1.3961 -0.6980
   94CHL1    O3 9365   4.167   1.597   6.743 -0.6192  0.6766 -0.6820
   94CHL1   H3' 9366   4.213   1.518   6.775  0.2796  2.0059  1.5358
   94CHL1    C4 9367   4.306   1.724   6.892  0.4910  0.5911 -0.1113
   94CHL1   H4A 9368   4.374   1.638   6.912  0.8441  0.7761 -0.5232
   94CHL1   H4B 9369   4.352   1.768   6.802 -0.2243 -1.1410 -1.3673
   94CHL1    C5 9370   4.315   1.812   7.015 -0.2976  0.6148 -0.0035
   94CHL1    C6 9371   4.359   1.941   7.016 -0.6431 -0.6249 -0.3325
   94CHL1    H6 9372   4.387   1.992   6.923 -2.3661 -0.0447 -0.5748
   94CHL1    C7 9373   4.378   2.016   7.143 -0.6367  0.0415 -0.7001
   94CHL1   H7A 9374   4.477   2.067   7.140 -0.1200 -0.9786 -1.8214
   94CHL1   H7B 9375   4.299   2.094   7.146 -0.4051  0.2971 -1.1198
   94CHL1    C8 9376   4.362   1.930   7.270  0.4612  0.0723  0.7750
   94CHL1    H8 9377   4.458   1.874   7.277  0.5427 -0.1301 -1.4373
   94CHL1   C14 9378   4.333   2.019   7.390 -0.3843 -0.0736 -0.7648
   94CHL1   H14 9379   4.246   2.085   7.372  1.2653  2.5823  0.3635
   94CHL1   C15 9380   4.448   2.120   7.429 -0.2129 -0.1295  0.4517
   94CHL1  H15A 9381   4.547   2.073   7.415  0.4170  1.0783  0.6609
   94CHL1  H15B 9382   4.453   2.216   7.373  1.5155 -0.2200  0.4072
   94CHL1   C16 9383   4.416   2.155   7.579 -0.3096 -0.1001 -0.0482
   94CHL1  H16A 9384   4.513   2.134   7.628  0.0116  1.4258  0.0119
   94CHL1  H16B 9385   4.398   2.264   7.581  1.9832  0.3764 -1.7363
   94CHL1   C17 9386   4.297   2.064   7.621 -0.0336  0.3053  0.3180
   94CHL1   H17 9387   4.203   2.113   7.591  0.4417  1.0267 -0.0068
   94CHL1   C13 9388   4.307   1.944   7.521  0.2355 -0.4722  0.1520
   94CHL1   C18 9389   4.421   1.860   7.560 -0.3005 -0.1685  0.1417
   94CHL1  H18A 9390   4.506   1.911   7.609 -0.1699  0.6059 -0.8375
   94CHL1  H18B 9391   4.390   1.793   7.642  3.0294 -0.4964  1.2766
   94CHL1  H18C 9392   4.454   1.799   7.473  0.2227  0.6063 -0.2273
   94CHL1   C12 9393   4.178   1.868   7.507  0.2826 -0.0674 -0.2792
   94CHL1  H12A 9394   4.151   1.814   7.600  2.9004 -0.7346  0.1789
   94CHL1  H12B 9395   4.098   1.939   7.477  0.8392  0.0731 -1.4894
   94CHL1   C11 9396   4.195   1.768   7.398 -0.5419 -0.3217  0.4855
   94CHL1  H11A 9397   4.265   1.692   7.439  1.4766  2.1792  1.9923
   94CHL1  H11B 9398   4.089   1.736   7.391 -2.4336  4.7360  1.7558
   94CHL1    C9 9399   4.245   1.833   7.265 -0.0577 -0.1628 -0.3919
   94CHL1    H9 9400   4.162   1.902   7.238 -0.5265  0.0558  1.5191
   94CHL1   C10 9401   4.268   1.735   7.145 -0.0450 -0.2295  0.3419
   94CHL1   C19 9402   4.373   1.627   7.192 -0.1639 -0.4954 -0.0330
   94CHL1  H19A 9403   4.369   1.533   7.133 -0.7280 -0.3222 -0.2774
   94CHL1  H19B 9404   4.476   1.666   7.173 -0.0598 -0.8304 -0.1706
   94CHL1  H19C 9405   4.349   1.597   7.296 -0.9961 -2.1301 -0.6567
   94CHL1    C1 9406   4.131   1.677   7.114 -0.0445  0.1652 -0.9285
   94CHL1   H1A 9407   4.097   1.606   7.193 -1.3124  3.6508  1.9831
   94CHL1   H1B 9408   4.051   1.754   7.111 -2.1445 -1.9123 -2.1421
   94CHL1    C2 9409   4.108   1.593   6.983  0.5504 -0.4867 -0.1856
   94CHL1   H2A 9410   3.999   1.583   6.965  0.5869 -0.3154 -0.5099
   94CHL1   H2B 9411   4.147   1.489   6.981 -1.7041 -1.4117  0.3616
   94CHL1   C20 9412   4.282   2.029   7.768  0.3404  0.0339 -0.0391
   94CHL1   H20 9413   4.276   1.918   7.776  4.0545 -0.2164  2.5871
   94CHL1   C21 9414   4.155   2.098   7.817 -0.0697 -0.1571 -0.2932
   94CHL1  H21A 9415   4.068   2.054   7.764 -0.7373 -0.4016  0.9733
   94CHL1  H21B 9416   4.146   2.208   7.805  0.2015 -0.3996 -3.8272
   94CHL1  H21C 9417   4.148   2.067   7.923  0.4772 -1.1406 -0.5379
   94CHL1   C22 9418   4.407   2.060   7.863  1.1566  0.4012  0.3716
   94CHL1  H22A 9419   4.499   2.019   7.816  1.0950  0.9948 -0.2823
   94CHL1  H22B 9420   4.423   2.169   7.872  1.4277  0.3048  1.1644
   94CHL1   C23 9421   4.388   1.994   8.006 -0.0786 -0.3120  0.4383
   94CHL1  H23A 9422   4.307   2.049   8.060  0.1791 -1.4198  2.0047
   94CHL1  H23B 9423   4.363   1.887   7.993  4.2978 -1.1998 -3.6183
   94CHL1   C24 9424   4.511   2.010   8.082 -0.5810  0.8599 -0.2666
   94CHL1  H24A 9425   4.591   1.951   8.034  0.7982  3.6155 -1.6084
   94CHL1  H24B 9426   4.550   2.114   8.072 -1.3981  1.0529 -1.9197
   94CHL1   C25 9427   4.507   1.950   8.228  0.5471 -0.1739 -0.7708
   94CHL1   H25 9428   4.435   2.013   8.285  3.0179  0.1307  2.3243
   94CHL1   C26 9429   4.456   1.801   8.231 -0.3983 -0.4308  0.8283
   94CHL1  H26A 9430   4.523   1.737   8.170 -1.2269 -0.3883 -0.1428
   94CHL1  H26B 9431   4.448   1.774   8.338  2.0879  0.5389  1.3253
   94CHL1  H26C 9432   4.348   1.798   8.205 -0.4181 -1.9944  0.9833
   94CHL1   C27 9433   4.635   1.962   8.297 -0.5481  0.1556 -0.3885
   94CHL1  H27A 9434   4.708   1.888   8.259 -0.3382  0.8563 -1.3820
   94CHL1  H27B 9435   4.671   2.064   8.272  4.0547 -1.2664 -0.4467
   94CHL1  H27C 9436   4.612   1.947   8.405 -0.1246 -0.2045 -0.3484
   95CHL1    C3 9437   4.716   1.412   6.715  0.5239 -0.9205 -0.0517
   95CHL1    H3 9438   4.766   1.510   6.731 -0.2770 -0.1938 -1.7639
   95CHL1    O3 9439   4.696   1.393   6.575  0.3135 -0.5332 -0.0993
   95CHL1   H3' 9440   4.687   1.300   6.555 -0.0790  0.1215 -3.4914
   95CHL1    C4 9441   4.821   1.305   6.764 -0.4434 -0.7361  0.3898
   95CHL1   H4A 9442   4.791   1.206   6.724  1.8640 -0.6727 -1.7247
   95CHL1   H4B 9443   4.913   1.334   6.709 -1.4999  1.6795 -0.2286
   95CHL1    C5 9444   4.831   1.310   6.912  0.1858  0.9530 -0.0676
   95CHL1    C6 9445   4.950   1.310   6.968 -0.9323  0.6664  0.3426
   95CHL1    H6 9446   5.030   1.295   6.895 -2.3127  2.3439 -1.6351
   95CHL1    C7 9447   4.987   1.295   7.114 -1.0286  0.3779  1.0287
   95CHL1   H7A 9448   5.067   1.220   7.129  2.1736  2.3910 -3.6890
   95CHL1   H7B 9449   5.028   1.389   7.156  3.7918 -1.4060  0.8559
   95CHL1    C8 9450   4.865   1.272   7.208 -0.3413  0.2373 -0.0701
   95CHL1    H8 9451   4.848   1.162   7.217  1.1225 -0.1925 -1.8890
   95CHL1   C14 9452   4.898   1.322   7.353 -0.3573 -0.0560  0.1534
   95CHL1   H14 9453   4.914   1.431   7.344  0.2148 -0.0171  1.4633
   95CHL1   C15 9454   5.022   1.278   7.436  0.1272  0.1699  0.3988
   95CHL1  H15A 9455   5.030   1.171   7.408 -0.2129 -0.0929  1.2655
   95CHL1  H15B 9456   5.112   1.332   7.399  0.0486 -0.6457 -1.0586
   95CHL1   C16 9457   4.988   1.300   7.583 -0.1096 -0.6112  0.8357
   95CHL1  H16A 9458   4.997   1.198   7.624 -2.4300 -1.3008 -0.1747
   95CHL1  H16B 9459   5.054   1.374   7.633  0.5753  0.1093 -1.0312
   95CHL1   C17 9460   4.845   1.354   7.583  0.5005  0.3697  0.4774
   95CHL1   H17 9461   4.858   1.464   7.573  2.5669  0.0361 -1.2249
   95CHL1   C13 9462   4.780   1.298   7.453 -0.7080  0.0610  0.1626
   95CHL1   C18 9463   4.754   1.143   7.468 -0.7359 -0.2566 -0.1985
   95CHL1  H18A 9464   4.842   1.094   7.515  1.6959  4.1295  0.3974
   95CHL1  H18B 9465   4.669   1.115   7.534  0.2298 -2.2942  0.2431
   95CHL1  H18C 9466   4.753   1.097   7.367 -0.8952  0.9333 -0.7624
   95CHL1   C12 9467   4.660   1.377   7.391 -0.3602  0.8905 -0.0520
   95CHL1  H12A 9468   4.570   1.358   7.453 -1.1929  1.5812 -1.0083
   95CHL1  H12B 9469   4.677   1.487   7.383  0.6751  0.7319 -0.1295
   95CHL1   C11 9470   4.623   1.332   7.251 -0.1908 -0.4697  0.2873
   95CHL1  H11A 9471   4.584   1.229   7.262 -0.1733 -0.3663  1.3505
   95CHL1  H11B 9472   4.542   1.401   7.220  1.3105  0.7136 -1.2337
   95CHL1    C9 9473   4.740   1.343   7.150 -0.0680  0.4103  0.2695
   95CHL1    H9 9474   4.773   1.449   7.155 -1.1716  0.8221 -0.7623
   95CHL1   C10 9475   4.708   1.308   6.999 -0.1480 -0.3443 -0.0243
   95CHL1   C19 9476   4.630   1.173   6.992 -0.0302 -0.1878 -0.3135
   95CHL1  H19A 9477   4.695   1.090   7.026 -0.9905 -2.0786 -2.7129
   95CHL1  H19B 9478   4.545   1.185   7.062 -1.0499 -0.0905 -1.5334
   95CHL1  H19C 9479   4.589   1.150   6.891  0.2408 -1.4010 -0.1618
   95CHL1    C1 9480   4.606   1.413   6.943  0.1866 -0.7737  0.3608
   95CHL1   H1A 9481   4.509   1.392   6.993  0.6309 -1.8822  0.7940
   95CHL1   H1B 9482   4.634   1.515   6.978 -0.5071 -1.0356  1.7834
   95CHL1    C2 9483   4.588   1.403   6.789  0.3502  0.1946 -0.6036
   95CHL1   H2A 9484   4.524   1.490   6.762  0.5448  0.6184  0.2609
   95CHL1   H2B 9485   4.538   1.308   6.761 -1.6096  0.6420  1.0811
   95CHL1   C20 9486   4.767   1.330   7.713 -0.2968  0.1943 -0.3807
   95CHL1   H20 9487   4.726   1.227   7.719 -0.7662  0.3619 -0.6585
   95CHL1   C21 9488   4.647   1.430   7.713 -0.4268  0.2810  0.7197
   95CHL1  H21A 9489   4.690   1.531   7.695  3.2393 -1.1617  0.5380
   95CHL1  H21B 9490   4.593   1.431   7.810 -1.2871 -2.2995  0.3332
   95CHL1  H21C 9491   4.570   1.406   7.637  0.5303 -0.4107 -0.0535
   95CHL1   C22 9492   4.859   1.354   7.835  0.2092  0.2157  0.1908
   95CHL1  H22A 9493   4.951   1.293   7.833  1.8924  2.6454 -0.6216
   95CHL1  H22B 9494   4.884   1.462   7.836  1.6740 -0.1028  0.4129
   95CHL1   C23 9495   4.810   1.333   7.979  0.2442 -0.1257 -0.4771
   95CHL1  H23A 9496   4.730   1.409   7.995  1.7275  1.2009  1.0388
   95CHL1  H23B 9497   4.767   1.231   7.990 -2.0746  0.3993 -3.3605
   95CHL1   C24 9498   4.918   1.346   8.085  0.2547  0.1928 -1.0223
   95CHL1  H24A 9499   5.002   1.275   8.068 -1.5912 -2.7706  1.2038
   95CHL1  H24B 9500   4.963   1.446   8.104 -2.7771  1.1312  2.5650
   95CHL1   C25 9501   4.875   1.304   8.225 -0.4934  0.5776 -0.5172
   95CHL1   H25 9502   4.959   1.328   8.293 -1.1098  3.2284 -0.6046
   95CHL1   C26 9503   4.751   1.371   8.276  0.3614  0.1926  0.4561
   95CHL1  H26A 9504   4.741   1.352   8.385 -1.3022  0.3072  0.3471
   95CHL1  H26B 9505   4.741   1.481   8.263 -0.2578  0.2198  1.0487
   95CHL1  H26C 9506   4.657   1.329   8.236 -0.5719  0.1151  2.5578
   95CHL1   C27 9507   4.858   1.150   8.236  0.7431  0.2049 -0.0670
   95CHL1  H27A 9508   4.956   1.103   8.213 -0.2700 -0.8167 -2.7223
   95CHL1  H27B 9509   4.817   1.112   8.331 -2.4147 -0.5279 -1.5728
   95CHL1  H27C 9510   4.784   1.116   8.160  0.4732  2.5143 -0.9229
   96CHL1    C3 9511   6.215   6.672   7.086 -0.3492  0.9693 -0.1607
   96CHL1    H3 9512   6.313   6.628   7.116  1.2590  4.6854  0.6422
   96CHL1    O3 9513   6.201   6.665   6.948 -0.2345 -0.0330 -0.6798
   96CHL1   H3' 9514   6.125   6.609   6.930 -0.7488 -0.0441  1.3197
   96CHL1    C4 9515   6.102   6.596   7.162 -0.2006 -0.5492  0.5209
   96CHL1   H4A 9516   6.008   6.647   7.131  1.3544  0.2460 -3.5353
   96CHL1   H4B 9517   6.105   6.490   7.131  2.9239 -0.1335 -0.9138
   96CHL1    C5 9518   6.118   6.599   7.311 -1.0166 -0.5204  0.4826
   96CHL1    C6 9519   6.132   6.488   7.385  0.1515  0.0134  0.2846
   96CHL1    H6 9520   6.123   6.390   7.337  2.7931 -0.8125  1.3104
   96CHL1    C7 9521   6.144   6.485   7.536 -0.1570 -0.1088 -0.1273
   96CHL1   H7A 9522   6.066   6.415   7.572  1.5485 -2.2338 -0.3429
   96CHL1   H7B 9523   6.243   6.446   7.568  0.4143  1.2816 -0.0883
   96CHL1    C8 9524   6.110   6.619   7.607  0.1095 -0.3089  0.2803
   96CHL1    H8 9525   5.999   6.612   7.614  0.1870 -0.5296  1.6520
   96CHL1   C14 9526   6.163   6.613   7.751 -0.1430 -0.0784  1.0824
   96CHL1   H14 9527   6.273   6.599   7.745 -0.1755  0.0716 -0.2563
   96CHL1   C15 9528   6.127   6.496   7.845 -0.1531  0.6794 -0.1866
   96CHL1  H15A 9529   6.018   6.480   7.857 -0.0666 -1.3035 -1.4567
   96CHL1  H15B 9530   6.159   6.398   7.805 -2.6259 -0.5397  0.5903
   96CHL1   C16 9531   6.182   6.536   7.981  0.5452 -0.1441 -0.6010
   96CHL1  H16A 9532   6.108   6.503   8.057  0.2114  0.0703 -0.8328
   96CHL1  H16B 9533   6.282   6.490   7.996 -0.9105 -3.4648 -0.2677
   96CHL1   C17 9534   6.186   6.693   7.976  0.5009 -0.4047  0.0193
   96CHL1   H17 9535   6.294   6.717   7.967  0.6783  0.1707  2.8985
   96CHL1   C13 9536   6.138   6.739   7.829 -0.2463  0.8639  0.2883
   96CHL1   C18 9537   5.990   6.785   7.836 -0.4809  0.5699 -0.6437
   96CHL1  H18A 9538   5.988   6.870   7.906  0.8707 -0.6629  0.9670
   96CHL1  H18B 9539   5.951   6.815   7.736  3.2293  3.2830 -1.4988
   96CHL1  H18C 9540   5.926   6.703   7.874  0.0545 -0.3304 -1.6184
   96CHL1   C12 9541   6.211   6.856   7.757  0.5715 -0.4504 -0.5877
   96CHL1  H12A 9542   6.203   6.945   7.823  1.8358 -0.1855 -0.7577
   96CHL1  H12B 9543   6.317   6.821   7.756  1.0253  0.8490  0.0298
   96CHL1   C11 9544   6.174   6.870   7.610  1.1162  0.9033 -0.6290
   96CHL1  H11A 9545   6.069   6.905   7.605  1.5932  3.0121  1.7338
   96CHL1  H11B 9546   6.238   6.945   7.558 -1.0985  1.5189 -2.6211
   96CHL1    C9 9547   6.177   6.736   7.530  0.7220 -0.3959  0.3031
   96CHL1    H9 9548   6.285   6.709   7.530  0.9788  0.5726  0.6794
   96CHL1   C10 9549   6.135   6.740   7.376 -0.3460 -0.1702  0.5962
   96CHL1   C19 9550   6.014   6.821   7.361  0.4257  0.6765 -0.1093
   96CHL1  H19A 9551   5.936   6.789   7.435  0.1115  0.5966 -0.4727
   96CHL1  H19B 9552   6.043   6.928   7.369  1.0518  0.4065  1.5677
   96CHL1  H19C 9553   5.963   6.807   7.263  2.1261 -0.4351 -0.8763
   96CHL1    C1 9554   6.244   6.807   7.287 -0.5536  0.7726 -0.3809
   96CHL1   H1A 9555   6.265   6.903   7.339 -0.3711 -0.1627  1.3565
   96CHL1   H1B 9556   6.338   6.753   7.311 -1.0920  0.3367  0.8670
   96CHL1    C2 9557   6.220   6.819   7.135  0.3677  0.0490 -0.3952
   96CHL1   H2A 9558   6.300   6.876   7.083  1.2098  0.9160  1.7523
   96CHL1   H2B 9559   6.123   6.871   7.119  0.7536  0.9361  0.0705
   96CHL1   C20 9560   6.144   6.774   8.103 -0.6551  0.1456 -0.0026
   96CHL1   H20 9561   6.147   6.882   8.078 -0.7804  0.2247  0.3142
   96CHL1   C21 9562   6.248   6.749   8.210  0.2591  0.6330 -0.1091
   96CHL1  H21A 9563   6.230   6.835   8.278 -1.6743 -0.1599  0.4459
   96CHL1  H21B 9564   6.349   6.729   8.168 -0.7532 -2.1346 -1.4833
   96CHL1  H21C 9565   6.226   6.655   8.264 -0.1516  1.2214  0.7721
   96CHL1   C22 9566   6.004   6.743   8.162 -0.2373  0.2733  0.4781
   96CHL1  H22A 9567   5.932   6.740   8.077  1.5462  2.0248 -1.2273
   96CHL1  H22B 9568   6.010   6.648   8.219 -1.2904 -0.0127  0.1402
   96CHL1   C23 9569   5.964   6.852   8.265  0.7324  0.2192 -0.4972
   96CHL1  H23A 9570   5.864   6.826   8.307  0.1554  1.2354 -1.1976
   96CHL1  H23B 9571   6.042   6.858   8.344 -1.6123  3.0760  1.8427
   96CHL1   C24 9572   5.944   7.001   8.210  0.1394  0.7189 -0.0938
   96CHL1  H24A 9573   6.038   7.048   8.173  0.5053 -0.6801 -1.0401
   96CHL1  H24B 9574   5.878   6.993   8.121  0.2208  0.9032 -0.1714
   96CHL1   C25 9575   5.876   7.098   8.316  0.4264 -0.3229 -0.7962
   96CHL1   H25 9576   5.780   7.053   8.350  0.6810 -0.2270  0.0572
   96CHL1   C26 9577   5.963   7.124   8.440 -0.5739 -0.2746 -1.0076
   96CHL1  H26A 9578   5.987   7.026   8.488 -1.6478 -0.2873 -0.4706
   96CHL1  H26B 9579   6.059   7.176   8.421 -0.2000  0.6921  2.6659
   96CHL1  H26C 9580   5.908   7.191   8.510  1.2632  0.3802 -0.1266
   96CHL1   C27 9581   5.832   7.235   8.247  0.5122 -0.1287  0.1274
   96CHL1  H27A 9582   5.791   7.300   8.327  0.5402 -0.8894  0.7699
   96CHL1  H27B 9583   5.921   7.284   8.202 -1.9058  3.0697 -1.5567
   96CHL1  H27C 9584   5.765   7.218   8.160 -2.0097  1.6831  1.5892
   97OSM      N 9585   0.783   5.446  11.359 -0.1274 -0.1860 -0.5470
   97OSM    C15 9586   0.683   5.491  11.466  0.2800 -0.0172 -0.0751
   97OSM   H15A 9587   0.681   5.418  11.546 -0.9948 -0.9278 -0.8807
   97OSM   H15B 9588   0.583   5.513  11.431  0.2539  1.1661  0.7100
   97OSM   H15C 9589   0.705   5.579  11.523 -0.7367 -0.2529  0.7237
   97OSM    C14 9590   0.915   5.456  11.431 -0.0077  0.5023  0.4782
   97OSM   H14A 9591   0.920   5.389  11.515  1.4578  0.7061  0.5925
   97OSM   H14B 9592   0.938   5.557  11.463 -0.6801  0.2605  1.7582
   97OSM   H14C 9593   0.991   5.424  11.360  0.3139  0.8547  0.6573
   97OSM    C13 9594   0.752   5.306  11.321  0.0344  0.2220  0.2742
   97OSM   H13A 9595   0.649   5.280  11.299  0.4218 -1.3331  0.1760
   97OSM   H13B 9596   0.772   5.239  11.403 -1.0049 -1.2017 -0.5796
   97OSM   H13C 9597   0.814   5.272  11.240  1.6682  2.2156  0.6130
   97OSM    C12 9598   0.763   5.540  11.241 -0.2270  0.2761  1.3916
   97OSM   H12A 9599   0.781   5.642  11.269  0.1528  0.6688 -0.1504
   97OSM   H12B 9600   0.666   5.539  11.193  2.1473  1.5642 -4.3232
   97OSM    C11 9601   0.861   5.520  11.123 -0.0531 -0.1543 -0.4238
   97OSM   H11A 9602   0.828   5.581  11.036  0.6218 -0.0665 -0.6261
   97OSM   H11B 9603   0.846   5.414  11.092  1.4620 -0.4715 -0.1617
   97OSM      P 9604   1.051   5.700  11.171  0.2553  0.0584  0.0372
   97OSM    O13 9605   0.933   5.785  11.190 -0.4329 -0.3799  0.5658
   97OSM    O14 9606   1.156   5.702  11.271 -0.2505  0.0911 -0.6221
   97OSM    O11 9607   1.122   5.731  11.036  0.5325 -0.4296 -0.2029
   97OSM    O12 9608   1.002   5.549  11.154  0.5052 -0.3701 -0.5462
   97OSM    C1S 9609   1.155   5.631  10.939 -0.7211 -1.0613  0.3310
   97OSM    H1S 9610   1.061   5.586  10.902 -1.8059  1.7888 -0.6019
   97OSM    H1T 9611   1.223   5.555  10.984  0.0330  0.0413  1.1269
   97OSM     NF 9612   1.231   5.588  10.712  0.2434 -0.6469  0.3280
   97OSM    HNF 9613   1.321   5.547  10.724  1.7898  1.8089 -1.5498
   97OSM    C2S 9614   1.195   5.699  10.804  0.2773  0.4211 -0.0977
   97OSM    H2S 9615   1.099   5.744  10.772 -0.9584 -0.8143  1.6456
   97OSM    C3S 9616   1.298   5.811  10.832 -0.0090  0.7857 -0.1985
   97OSM    H3S 9617   1.392   5.758  10.859 -0.4150  1.3705  2.7110
   97OSM     O3 9618   1.265   5.898  10.941 -0.4544  0.2511 -0.4298
   97OSM    HO3 9619   1.191   5.851  10.980  0.8025 -2.7887 -1.4116
   97OSM    C4S 9620   1.317   5.884  10.700  1.2050 -0.9722 -0.2394
   97OSM    H4S 9621   1.380   5.828  10.630 -0.0291 -2.6314 -0.0740
   97OSM    C5S 9622   1.271   6.001  10.656 -0.5384  0.0383 -0.5597
   97OSM    H5S 9623   1.201   6.059  10.717 -0.8853 -2.2994  1.4065
   97OSM    C6S 9624   1.289   6.050  10.520 -0.4349  0.3076  0.1143
   97OSM    H6S 9625   1.337   6.149  10.526  0.6896 -0.2618  0.8962
   97OSM    H6T 9626   1.192   6.069  10.469  0.2292  0.8136 -1.0108
   97OSM    C7S 9627   1.364   5.954  10.416 -0.2402 -0.0322 -0.4988
   97OSM    H7S 9628   1.318   5.853  10.416  1.7180 -0.9707  0.3884
   97OSM    H7T 9629   1.465   5.938  10.458 -1.1357 -0.8557  1.4734
   97OSM    C8S 9630   1.371   6.019  10.283  0.0788  0.1098 -0.1170
   97OSM    H8S 9631   1.442   6.104  10.289 -0.8108  0.8830 -0.3076
   97OSM    H8T 9632   1.270   6.060  10.260  0.9296  2.3721 -0.1137
   97OSM    C9S 9633   1.426   5.919  10.184 -0.1238 -0.0847  0.7709
   97OSM    H9S 9634   1.359   5.830  10.175 -1.4476  0.8032  1.5747
   97OSM    H9T 9635   1.526   5.887  10.220  0.7174 -1.2350 -2.2712
   97OSM   C10S 9636   1.446   5.977  10.039 -0.2930 -0.2716 -1.2957
   97OSM   H10S 9637   1.486   6.079  10.052 -0.6605 -0.3837  1.1974
   97OSM   H10T 9638   1.353   5.971   9.978 -1.2848  0.3712  0.0899
   97OSM   C11S 9639   1.548   5.891   9.971 -0.5033  0.3111  0.2379
   97OSM   H11S 9640   1.532   5.781   9.980  0.1354 -0.1123 -2.5719
   97OSM   H11T 9641   1.652   5.913  10.002 -1.0546  2.7718  0.5174
   97OSM   C12S 9642   1.551   5.920   9.822 -0.6802  0.2194  0.7873
   97OSM   H12S 9643   1.597   6.017   9.794 -0.2818 -0.1349  0.1813
   97OSM   H12T 9644   1.445   5.934   9.793 -0.1918 -0.2047 -1.3731
   97OSM   C13S 9645   1.618   5.807   9.742 -0.2543  0.5717  0.1584
   97OSM   H13S 9646   1.574   5.710   9.774  0.1213 -0.2406 -1.6702
   97OSM   H13T 9647   1.724   5.797   9.774 -0.1299  0.9974 -0.1068
   97OSM   C14S 9648   1.597   5.819   9.590 -0.2647 -0.2193 -0.4147
   97OSM   H14S 9649   1.666   5.755   9.531 -0.4300  0.5757 -1.4924
   97OSM   H14T 9650   1.621   5.924   9.563 -2.3777  0.1543 -1.0525
   97OSM   C15S 9651   1.454   5.786   9.547  0.6142 -0.3867  0.3324
   97OSM   H15S 9652   1.450   5.796   9.436 -1.2350 -0.8641  0.3159
   97OSM   H15T 9653   1.386   5.860   9.595 -1.7069 -2.0216 -0.2619
   97OSM   C16S 9654   1.409   5.641   9.584 -0.1987  0.9776 -0.0709
   97OSM   H16S 9655   1.406   5.624   9.694  1.0169  0.9674 -0.0289
   97OSM   H16T 9656   1.478   5.560   9.552 -3.6302 -1.9729 -0.6171
   97OSM   C17S 9657   1.267   5.618   9.525 -0.3764  0.0677 -0.8150
   97OSM   H17S 9658   1.256   5.627   9.414 -0.0713  1.7947 -0.7355
   97OSM   H17T 9659   1.209   5.705   9.561  0.9195  0.7800 -0.3808
   97OSM   C18S 9660   1.207   5.492   9.578 -0.0233  0.0854 -0.0655
   97OSM   H18S 9661   1.105   5.476   9.536  0.2757  1.4082 -1.3660
   97OSM   H18T 9662   1.196   5.483   9.688  0.6590 -1.2657 -0.0811
   97OSM   H18U 9663   1.256   5.401   9.537 -3.3976 -1.5004 -0.9395
   97OSM    C1F 9664   1.143   5.536  10.635 -0.0895  0.4307  0.2268
   97OSM     OF 9665   1.029   5.565  10.656 -0.1367  0.3980 -0.5105
   97OSM    C2F 9666   1.184   5.431  10.532 -0.1392 -0.3217 -0.1254
   97OSM    H2F 9667   1.098   5.360  10.527  0.4331 -1.0132 -0.1953
   97OSM    H2G 9668   1.278   5.376  10.550 -0.3036 -0.9380 -1.0895
   97OSM    C3F 9669   1.199   5.506  10.395 -0.4132  0.7084  0.1997
   97OSM    H3F 9670   1.301   5.548  10.392  0.5418 -1.5101 -0.2222
   97OSM    H3G 9671   1.131   5.594  10.389 -0.9863  0.1865 -2.2807
   97OSM    C4F 9672   1.189   5.407  10.274  0.3239  0.4621  0.7257
   97OSM    H4F 9673   1.084   5.372  10.276  0.3193  0.4815  0.8761
   97OSM    H4G 9674   1.259   5.321  10.277 -1.6503 -1.1712  1.7702
   97OSM    C5F 9675   1.217   5.495  10.153 -0.3236  0.1925 -1.1518
   97OSM    H5F 9676   1.316   5.546  10.159 -1.7457  3.0091  0.8577
   97OSM    H5G 9677   1.140   5.574  10.140 -1.2516 -0.9348 -2.9003
   97OSM    C6F 9678   1.214   5.410  10.028 -0.4021 -0.5390 -1.3428
   97OSM    H6F 9679   1.235   5.478   9.942  2.0511 -0.9318 -1.1237
   97OSM    H6G 9680   1.108   5.377  10.017 -0.3085 -1.8212  0.9615
   97OSM    C7F 9681   1.316   5.300  10.015  0.8455  0.2006  0.5086
   97OSM    H7F 9682   1.312   5.279   9.906  1.6981 -0.4723  0.6045
   97OSM    H7G 9683   1.285   5.203  10.059  0.4018 -0.0354 -0.3083
   97OSM    C8F 9684   1.458   5.346  10.061 -0.6458 -0.5468  0.2205
   97OSM    H8F 9685   1.520   5.254  10.049  0.4350  0.0257  1.1791
   97OSM    H8G 9686   1.457   5.371  10.169 -0.7644 -0.0637  0.1071
   97OSM    C9F 9687   1.515   5.459   9.972  0.7727 -0.0043 -0.9305
   97OSM    H9F 9688   1.480   5.561   9.994  3.0357  0.9304 -1.3649
   97OSM   C10F 9689   1.603   5.446   9.872  0.1096 -0.5556  0.3659
   97OSM   H10F 9690   1.647   5.533   9.821  1.1294 -1.0626  0.3497
   97OSM   C11F 9691   1.665   5.318   9.824  0.0493  0.0249  0.2446
   97OSM   H11F 9692   1.625   5.227   9.873  0.0039 -0.8866 -1.3964
   97OSM   H11G 9693   1.776   5.323   9.828 -0.0334  0.9617  2.9636
   97OSM   C12F 9694   1.634   5.288   9.674  0.4171 -0.5401  0.1641
   97OSM   H12F 9695   1.537   5.327   9.638  0.8273 -0.4528 -0.8757
   97OSM   H12G 9696   1.630   5.181   9.645  2.5814  0.0418 -2.6885
   97OSM   C13F 9697   1.746   5.360   9.585  0.2738 -0.1461  0.2137
   97OSM   H13F 9698   1.831   5.289   9.592 -0.1431 -0.6809 -0.0441
   97OSM   H13G 9699   1.773   5.455   9.636 -0.0393 -0.3836  0.8393
   97OSM   C14F 9700   1.711   5.379   9.438  0.3882  0.5436  0.0745
   97OSM   H14F 9701   1.616   5.434   9.421  0.2373  0.3197  0.1868
   97OSM   H14G 9702   1.683   5.278   9.400  0.3564 -1.1293  3.9877
   97OSM   C15F 9703   1.828   5.431   9.357 -1.0271 -0.4142 -0.0835
   97OSM   H15F 9704   1.912   5.359   9.356  0.6204  1.4238 -0.2684
   97OSM   H15G 9705   1.872   5.517   9.412 -0.3297  0.1337 -1.4543
   97OSM   C16F 9706   1.802   5.471   9.211  0.7273  0.1407 -1.2013
   97OSM   H16F 9707   1.767   5.378   9.161  2.1216 -0.9861 -0.1706
   97OSM   H16G 9708   1.901   5.502   9.170 -0.0480  0.5425 -2.8522
   97OSM   C17F 9709   1.722   5.604   9.194  0.3840  0.7733  0.4220
   97OSM   H17F 9710   1.760   5.681   9.264  0.6291  0.2728  0.8495
   97OSM   H17G 9711   1.614   5.587   9.212  0.2389  1.6648  0.4260
   97OSM   C18F 9712   1.746   5.648   9.048  0.2794  0.1353  0.0892
   97OSM   H18F 9713   1.666   5.718   9.016  1.7211  2.0513  0.4933
   97OSM   H18G 9714   1.767   5.556   8.989  0.7302 -2.0038  3.3264
   97OSM   H18H 9715   1.839   5.708   9.035 -0.2957  1.6018  2.2581
   98OSM      N 9716   2.691   6.212  10.832  0.8266  0.3988 -0.1652
   98OSM    C15 9717   2.564   6.292  10.843 -0.9805 -0.1976 -0.3107
   98OSM   H15A 9718   2.587   6.392  10.876 -0.4277  0.6758 -3.1223
   98OSM   H15B 9719   2.501   6.238  10.912 -0.9657 -0.2393 -0.3306
   98OSM   H15C 9720   2.510   6.304  10.750  0.9184  1.5679 -1.2694
   98OSM    C14 9721   2.751   6.212  10.968  0.4474  0.6632  0.0070
   98OSM   H14A 9722   2.850   6.170  10.976 -0.5280 -1.3902  4.2300
   98OSM   H14B 9723   2.701   6.146  11.037  0.5456 -0.9833 -1.4221
   98OSM   H14C 9724   2.771   6.309  11.010  0.5803  0.7659 -0.2857
   98OSM    C13 9725   2.666   6.076  10.778 -0.4728  0.0785  0.1188
   98OSM   H13A 9726   2.633   6.099  10.678  0.8116  1.4720 -0.0174
   98OSM   H13B 9727   2.592   6.019  10.832  0.8526 -0.7608  1.1031
   98OSM   H13C 9728   2.760   6.023  10.774  0.1968  1.0746  1.7091
   98OSM    C12 9729   2.771   6.295  10.733 -0.5208 -0.4146 -0.4817
   98OSM   H12A 9730   2.730   6.295  10.633  1.2141  1.4416 -1.2839
   98OSM   H12B 9731   2.859   6.234  10.739  0.2700  0.5203 -1.9450
   98OSM    C11 9732   2.806   6.440  10.774 -0.8248  0.4264  0.0535
   98OSM   H11A 9733   2.714   6.501  10.780 -2.2665 -1.5789 -0.3632
   98OSM   H11B 9734   2.873   6.470  10.690 -0.0838  0.8834  0.7879
   98OSM      P 9735   2.886   6.559  11.002  0.1081 -0.0501 -0.2409
   98OSM    O13 9736   2.800   6.519  11.121 -0.2743  0.2422  0.3308
   98OSM    O14 9737   3.029   6.582  11.043  0.5871 -0.2328  0.5251
   98OSM    O11 9738   2.818   6.670  10.914 -0.6702  0.1377 -0.2460
   98OSM    O12 9739   2.890   6.453  10.888  0.0333  0.4795  0.0904
   98OSM    C1S 9740   2.897   6.751  10.817  0.0567  0.1757 -0.2535
   98OSM    H1S 9741   2.966   6.681  10.764 -0.4573  1.0532 -2.1615
   98OSM    H1T 9742   2.958   6.827  10.870  2.2845  0.0305 -2.3975
   98OSM     NF 9743   2.900   6.905  10.628  0.5813 -0.0204 -0.0184
   98OSM    HNF 9744   2.929   6.995  10.660 -0.2192  0.2729 -0.0947
   98OSM    C2S 9745   2.807   6.829  10.711 -0.2539 -0.1131 -0.3237
   98OSM    H2S 9746   2.754   6.752  10.651 -2.0456  0.2211  0.7488
   98OSM    C3S 9747   2.705   6.918  10.790 -0.2381  0.0052 -0.2268
   98OSM    H3S 9748   2.761   6.993  10.850  0.5514 -1.4772  0.9679
   98OSM     O3 9749   2.619   6.863  10.891 -0.1046 -0.3434 -0.3495
   98OSM    HO3 9750   2.660   6.779  10.914  2.4399  0.2719 -2.1510
   98OSM    C4S 9751   2.618   7.003  10.700 -0.3498 -0.1537 -0.3618
   98OSM    H4S 9752   2.668   7.097  10.670  0.8527 -0.9929 -1.1052
   98OSM    C5S 9753   2.496   6.975  10.650  0.0589  0.0110  0.0896
   98OSM    H5S 9754   2.444   6.881  10.672 -1.8218  0.3303 -2.4669
   98OSM    C6S 9755   2.415   7.058  10.554 -0.1102  0.1185  0.4954
   98OSM    H6S 9756   2.475   7.145  10.519  1.3443 -1.6018 -1.5594
   98OSM    H6T 9757   2.320   7.088  10.604 -1.2677 -1.7540 -0.4484
   98OSM    C7S 9758   2.378   6.999  10.413  0.0105  0.1257  0.9911
   98OSM    H7S 9759   2.314   6.909  10.422 -0.5231  0.3087 -0.6498
   98OSM    H7T 9760   2.473   6.978  10.360  1.1711  3.9797  1.1971
   98OSM    C8S 9761   2.296   7.102  10.330  0.3411 -0.4349  0.6253
   98OSM    H8S 9762   2.348   7.199  10.318 -1.0748  0.4590  1.5812
   98OSM    H8T 9763   2.196   7.111  10.377  0.3833 -0.2293  0.6729
   98OSM    C9S 9764   2.261   7.059  10.193 -0.3301 -0.4059  0.0345
   98OSM    H9S 9765   2.188   6.976  10.184  2.6262 -3.7390  3.5063
   98OSM    H9T 9766   2.345   7.018  10.133 -1.8041 -1.2095 -1.5703
   98OSM   C10S 9767   2.221   7.184  10.101 -0.4381  0.3088 -0.9471
   98OSM   H10S 9768   2.304   7.258  10.096 -1.1776  1.1081 -1.4708
   98OSM   H10T 9769   2.150   7.251  10.155 -0.0078  0.2550 -0.2932
   98OSM   C11S 9770   2.183   7.142   9.961  0.3296 -0.2904 -0.6212
   98OSM   H11S 9771   2.113   7.056   9.960 -2.2944  1.6807  1.4163
   98OSM   H11T 9772   2.275   7.095   9.919 -0.3410 -2.3219  0.0500
   98OSM   C12S 9773   2.131   7.251   9.876 -0.1996  0.4708 -0.4796
   98OSM   H12S 9774   2.204   7.332   9.900 -1.5726  1.1037  1.9015
   98OSM   H12T 9775   2.026   7.270   9.907 -1.5695 -3.2157 -2.2275
   98OSM   C13S 9776   2.140   7.216   9.726 -0.2950 -0.9202 -0.1439
   98OSM   H13S 9777   2.058   7.142   9.716  0.2945 -1.3730 -2.0841
   98OSM   H13T 9778   2.224   7.154   9.687  0.5514 -0.7296  1.3233
   98OSM   C14S 9779   2.100   7.332   9.640  0.1733  0.0345 -0.5124
   98OSM   H14S 9780   2.181   7.408   9.638 -0.9609  1.2901 -0.2894
   98OSM   H14T 9781   2.013   7.384   9.685  1.7435  2.8043 -0.4074
   98OSM   C15S 9782   2.078   7.304   9.490 -0.2200  0.8768 -0.4723
   98OSM   H15S 9783   2.001   7.226   9.473  1.8761 -0.8624 -2.5950
   98OSM   H15T 9784   2.171   7.259   9.449  0.1796  2.5599 -1.5374
   98OSM   C16S 9785   2.048   7.423   9.410  0.1241 -0.6049 -0.7906
   98OSM   H16S 9786   2.135   7.492   9.400 -2.0614  2.3056 -1.2674
   98OSM   H16T 9787   1.965   7.482   9.454  1.8597 -0.1070  2.0265
   98OSM   C17S 9788   2.000   7.394   9.265  0.1843  0.4851 -0.0144
   98OSM   H17S 9789   1.970   7.484   9.206  1.1408  0.5299 -0.4408
   98OSM   H17T 9790   1.900   7.347   9.278  1.1712 -2.4931 -2.0722
   98OSM   C18S 9791   2.082   7.292   9.184 -0.0105 -0.1337  0.0548
   98OSM   H18S 9792   2.069   7.300   9.075  3.0576 -0.1803 -0.4239
   98OSM   H18T 9793   2.048   7.190   9.214 -0.1822 -0.2933 -0.6778
   98OSM   H18U 9794   2.188   7.316   9.207  0.1414 -0.3033 -0.4721
   98OSM    C1F 9795   2.970   6.849  10.529 -0.6375  0.4905  0.4642
   98OSM     OF 9796   2.933   6.738  10.488 -0.4426  0.2437  0.3077
   98OSM    C2F 9797   3.111   6.905  10.498  0.9658 -0.0432  0.2026
   98OSM    H2F 9798   3.183   6.825  10.524 -1.4968 -1.6188  2.7865
   98OSM    H2G 9799   3.126   6.989  10.569 -1.4328  0.2758  0.4315
   98OSM    C3F 9800   3.134   6.955  10.352 -0.0625  0.0249 -0.2867
   98OSM    H3F 9801   3.055   7.021  10.310  1.1540  1.6268 -0.1598
   98OSM    H3G 9802   3.130   6.865  10.287  2.2537 -0.0913 -0.3520
   98OSM    C4F 9803   3.262   7.023  10.327 -0.0411 -0.1110  0.1794
   98OSM    H4F 9804   3.359   6.974  10.349  0.2241  0.1133 -0.4735
   98OSM    H4G 9805   3.261   7.114  10.390 -0.2809  2.1857 -2.9311
   98OSM    C5F 9806   3.280   7.086  10.184 -0.1275 -1.0700  0.1230
   98OSM    H5F 9807   3.371   7.150  10.174 -0.5304 -0.7072 -1.6297
   98OSM    H5G 9808   3.192   7.153  10.173  2.1484  2.2392  0.7199
   98OSM    C6F 9809   3.286   6.982  10.071  1.1671 -0.0213 -0.2919
   98OSM    H6F 9810   3.190   6.927  10.074  1.1087  0.0840 -0.1761
   98OSM    H6G 9811   3.367   6.912  10.099  2.8000  1.2993 -1.4508
   98OSM    C7F 9812   3.321   7.026   9.927 -0.5109  0.1962 -0.3862
   98OSM    H7F 9813   3.428   7.058   9.926 -0.8807  1.5186 -0.2492
   98OSM    H7G 9814   3.271   7.123   9.903  0.0768  0.5625 -0.1512
   98OSM    C8F 9815   3.298   6.924   9.814  0.0287 -0.3170  0.7091
   98OSM    H8F 9816   3.372   6.846   9.840 -0.4020 -0.0565  2.9118
   98OSM    H8G 9817   3.344   6.973   9.726  2.5229 -0.3258  1.9293
   98OSM    C9F 9818   3.161   6.867   9.776 -0.1522  0.1754  0.2951
   98OSM    H9F 9819   3.087   6.868   9.857 -2.2322  2.0256 -1.4969
   98OSM   C10F 9820   3.119   6.834   9.655  0.0742 -0.2109 -0.4975
   98OSM   H10F 9821   3.025   6.778   9.643  0.2510 -0.8576  0.9422
   98OSM   C11F 9822   3.211   6.841   9.536  0.0211  0.2450  0.0676
   98OSM   H11F 9823   3.197   6.757   9.465  1.0666 -1.1062  1.3948
   98OSM   H11G 9824   3.317   6.830   9.569 -0.8046 -0.7240  2.6298
   98OSM   C12F 9825   3.187   6.969   9.456  0.8879  0.2311 -0.0397
   98OSM   H12F 9826   3.236   6.948   9.358 -0.4327 -0.8835 -0.4873
   98OSM   H12G 9827   3.211   7.055   9.522 -1.1658  0.3937  0.5412
   98OSM   C13F 9828   3.039   7.000   9.411  0.6593  0.6736 -0.0877
   98OSM   H13F 9829   3.023   7.109   9.430  1.4667  1.0601 -1.5203
   98OSM   H13G 9830   2.956   6.962   9.474  0.8212 -0.6197 -0.6414
   98OSM   C14F 9831   3.010   6.984   9.261  0.1819 -0.2500  0.3253
   98OSM   H14F 9832   3.049   6.885   9.230  1.0831 -0.0088  0.6725
   98OSM   H14G 9833   3.055   7.066   9.200 -0.8622 -0.1627 -0.3556
   98OSM   C15F 9834   2.861   6.992   9.231 -0.0886  0.2579  0.6889
   98OSM   H15F 9835   2.809   7.083   9.267 -2.2003 -0.9831  0.9383
   98OSM   H15G 9836   2.825   6.899   9.281 -0.4190  0.2107  0.3674
   98OSM   C16F 9837   2.834   6.957   9.082 -0.7461 -0.1427  0.3228
   98OSM   H16F 9838   2.912   6.890   9.040 -0.8135 -1.2663  1.8939
   98OSM   H16G 9839   2.853   7.049   9.023 -0.5772  0.0842  0.7312
   98OSM   C17F 9840   2.694   6.891   9.055 -0.5256  0.4285 -0.8654
   98OSM   H17F 9841   2.616   6.937   9.120 -1.8093 -2.2911 -0.3597
   98OSM   H17G 9842   2.720   6.792   9.098  1.7826  1.2347 -0.2934
   98OSM   C18F 9843   2.655   6.877   8.911 -0.1934 -0.8218  0.8483
   98OSM   H18F 9844   2.741   6.847   8.848  0.7009 -0.1884  1.7379
   98OSM   H18G 9845   2.617   6.974   8.872  0.8279 -1.3932 -1.7707
   98OSM   H18H 9846   2.570   6.805   8.916 -0.7795 -0.1747  0.4767
   99OSM      N 9847   5.066   5.787  11.053 -0.5046 -0.0539  0.3394
   99OSM    C15 9848   5.086   5.930  11.052  0.1205 -0.6489 -0.3234
   99OSM   H15A 9849   5.184   5.966  11.022 -0.7145  0.2583 -2.1275
   99OSM   H15B 9850   5.074   5.980  11.147 -0.8489 -2.0009  0.2886
   99OSM   H15C 9851   5.010   5.982  10.996  0.9940  0.2380 -0.7319
   99OSM    C14 9852   5.143   5.722  11.167  0.0575  0.0229  0.0779
   99OSM   H14A 9853   5.131   5.615  11.160 -1.7905  0.2237 -0.5993
   99OSM   H14B 9854   5.098   5.751  11.261  2.2044  3.6287  0.1695
   99OSM   H14C 9855   5.249   5.738  11.165  0.0356  0.1266 -0.4708
   99OSM    C13 9856   4.927   5.742  11.054  0.5803  0.4248  0.1039
   99OSM   H13A 9857   4.879   5.784  11.141  0.0591 -1.9237  1.0172
   99OSM   H13B 9858   4.935   5.634  11.053 -0.7184  0.3112 -0.0910
   99OSM   H13C 9859   4.874   5.779  10.968  0.9491 -0.6318 -0.6020
   99OSM    C12 9860   5.128   5.742  10.921  0.4577 -1.1982  0.2141
   99OSM   H12A 9861   5.149   5.637  10.934  0.3569 -1.0220  2.1298
   99OSM   H12B 9862   5.223   5.791  10.909 -0.7108  0.8668 -1.3572
   99OSM    C11 9863   5.051   5.766  10.787  0.2014  0.5287  0.2770
   99OSM   H11A 9864   5.120   5.735  10.706 -1.1844  0.3964 -0.8868
   99OSM   H11B 9865   5.024   5.871  10.763  0.2854  0.2600 -1.0379
   99OSM      P 9866   4.932   5.525  10.762 -0.0668  0.0682 -0.1616
   99OSM    O13 9867   5.050   5.455  10.824  0.1081 -0.1191 -0.5778
   99OSM    O14 9868   4.793   5.480  10.798 -0.1373  0.5766  0.2742
   99OSM    O11 9869   4.948   5.508  10.609  0.1701 -0.0564  0.7435
   99OSM    O12 9870   4.939   5.682  10.771  0.2873  0.1455  0.0483
   99OSM    C1S 9871   5.074   5.495  10.542 -0.2708  0.7735 -0.3888
   99OSM    H1S 9872   5.127   5.401  10.568  0.9625  1.0104 -1.8977
   99OSM    H1T 9873   5.145   5.579  10.559  1.0363 -0.5403  0.8591
   99OSM     NF 9874   5.182   5.446  10.327 -0.4296  0.6338  0.2326
   99OSM    HNF 9875   5.241   5.502  10.270 -0.6602 -0.9137 -1.6474
   99OSM    C2S 9876   5.057   5.491  10.387 -1.4451  0.0575  0.1201
   99OSM    H2S 9877   4.978   5.418  10.359 -2.1962 -0.1059  2.4226
   99OSM    C3S 9878   5.014   5.630  10.332 -0.1717 -0.2323 -0.0533
   99OSM    H3S 9879   5.101   5.697  10.346 -1.6210  1.7258  0.0877
   99OSM     O3 9880   4.904   5.683  10.412  0.3130 -0.2356  0.1564
   99OSM    HO3 9881   4.879   5.610  10.470 -2.0074  0.7423  0.4651
   99OSM    C4S 9882   4.980   5.617  10.185  0.1981 -1.1969  0.7402
   99OSM    H4S 9883   5.070   5.597  10.125  0.4762 -1.1028  1.1227
   99OSM    C5S 9884   4.855   5.602  10.124  0.1566  0.1724  0.4661
   99OSM    H5S 9885   4.766   5.594  10.189  0.3098 -0.5914  0.5989
   99OSM    C6S 9886   4.837   5.589   9.971  0.1816 -0.2381  0.0076
   99OSM    H6S 9887   4.785   5.680   9.934  3.9686  1.6042 -1.2965
   99OSM    H6T 9888   4.774   5.498   9.955 -2.2683  1.8476 -3.6101
   99OSM    C7S 9889   4.968   5.587   9.889 -0.0296  0.9673  0.4003
   99OSM    H7S 9890   5.033   5.505   9.926 -1.2669 -0.3648 -0.3110
   99OSM    H7T 9891   5.018   5.686   9.903  2.5627 -0.3214  0.8990
   99OSM    C8S 9892   4.923   5.557   9.749  0.1142 -0.4733  0.3230
   99OSM    H8S 9893   4.856   5.638   9.713 -1.4750 -2.3539 -1.2386
   99OSM    H8T 9894   4.857   5.467   9.743 -0.4265 -0.0106 -1.4589
   99OSM    C9S 9895   5.034   5.536   9.642  0.3644 -0.1238 -0.0998
   99OSM    H9S 9896   5.113   5.480   9.695 -0.9525 -3.4561 -1.3582
   99OSM    H9T 9897   5.085   5.632   9.619 -2.4336  1.1108 -1.6834
   99OSM   C10S 9898   4.984   5.469   9.513 -0.1624 -0.1796 -0.3202
   99OSM   H10S 9899   4.954   5.369   9.550 -1.0463  0.5204  0.9354
   99OSM   H10T 9900   5.065   5.466   9.437  0.8428  0.0566  0.7082
   99OSM   C11S 9901   4.867   5.540   9.453 -0.3835  0.2622  0.0315
   99OSM   H11S 9902   4.874   5.651   9.460 -1.2004  0.2355  2.0392
   99OSM   H11T 9903   4.773   5.544   9.513  0.2772  1.9765  1.0234
   99OSM   C12S 9904   4.848   5.496   9.311 -0.4372 -0.1609  0.2330
   99OSM   H12S 9905   4.930   5.524   9.241  1.0176 -1.3027  1.4037
   99OSM   H12T 9906   4.848   5.385   9.308 -0.0228 -0.1599  0.0893
   99OSM   C13S 9907   4.714   5.547   9.252 -0.7611  0.8488  0.5849
   99OSM   H13S 9908   4.700   5.652   9.285  0.2686  0.5451  2.0817
   99OSM   H13T 9909   4.635   5.492   9.307  0.5293 -1.6325  0.0921
   99OSM   C14S 9910   4.696   5.537   9.098  0.7415 -0.7203  0.6450
   99OSM   H14S 9911   4.783   5.594   9.058 -0.0661 -0.1203 -0.3037
   99OSM   H14T 9912   4.604   5.588   9.064  0.8337  0.1840  1.6910
   99OSM   C15S 9913   4.706   5.394   9.042 -0.0992 -0.7583 -0.0443
   99OSM   H15S 9914   4.625   5.333   9.088 -0.6276 -2.8524 -3.3881
   99OSM   H15T 9915   4.802   5.348   9.074  0.0384 -0.7767 -0.4808
   99OSM   C16S 9916   4.688   5.382   8.889  0.0368  0.1242 -0.6066
   99OSM   H16S 9917   4.729   5.281   8.867  0.4780  0.3720 -0.9617
   99OSM   H16T 9918   4.754   5.461   8.847 -0.9195  2.0824  1.4275
   99OSM   C17S 9919   4.542   5.387   8.835  0.3352  0.4458  0.1239
   99OSM   H17S 9920   4.485   5.464   8.891  0.4125  1.5522 -1.2792
   99OSM   H17T 9921   4.497   5.288   8.859 -0.0895  0.7167  0.4627
   99OSM   C18S 9922   4.523   5.420   8.685 -0.2401  1.6711 -0.3498
   99OSM   H18S 9923   4.418   5.408   8.651 -0.0447  3.2774 -1.6233
   99OSM   H18T 9924   4.597   5.365   8.622 -3.0516  0.9510 -3.2463
   99OSM   H18U 9925   4.548   5.527   8.668 -0.4039  1.7404 -0.1486
   99OSM    C1F 9926   5.216   5.316  10.337  0.0721  0.5451  0.1890
   99OSM     OF 9927   5.141   5.229  10.378  0.5080  0.1568 -0.1739
   99OSM    C2F 9928   5.348   5.277  10.294  0.6941  0.1474  0.3930
   99OSM    H2F 9929   5.377   5.189  10.355  0.4433  1.6481  2.7822
   99OSM    H2G 9930   5.421   5.353  10.329  0.5290 -0.0914  1.2711
   99OSM    C3F 9931   5.369   5.257  10.144 -0.5042 -0.3363  0.3073
   99OSM    H3F 9932   5.308   5.335  10.093  0.2364  1.1067  1.5543
   99OSM    H3G 9933   5.475   5.273  10.117 -0.8715 -0.6284 -1.4608
   99OSM    C4F 9934   5.318   5.128  10.089 -0.3259 -0.5984 -0.3401
   99OSM    H4F 9935   5.209   5.138  10.074 -0.1793  2.1456 -0.0940
   99OSM    H4G 9936   5.332   5.052  10.169  1.5045 -0.2477 -0.2851
   99OSM    C5F 9937   5.391   5.089   9.962  0.0690  0.0321 -0.9555
   99OSM    H5F 9938   5.346   4.991   9.933 -3.1438  1.2994 -0.6765
   99OSM    H5G 9939   5.496   5.053   9.969 -0.5618 -1.5806  2.4560
   99OSM    C6F 9940   5.376   5.186   9.846  0.1627 -0.4507  0.5734
   99OSM    H6F 9941   5.430   5.277   9.880 -1.0942  0.2306  0.8211
   99OSM    H6G 9942   5.266   5.198   9.835  0.4928  1.7933 -0.6752
   99OSM    C7F 9943   5.429   5.150   9.707  0.2776 -0.0376  0.5977
   99OSM    H7F 9944   5.396   5.048   9.677  0.0792  0.2706 -0.2853
   99OSM    H7G 9945   5.540   5.155   9.700  0.1698  0.3315 -1.9814
   99OSM    C8F 9946   5.391   5.256   9.599 -0.1758 -0.1963  0.7558
   99OSM    H8F 9947   5.420   5.361   9.623 -1.6652  0.1566  1.1357
   99OSM    H8G 9948   5.281   5.253   9.586 -0.1168 -2.3839  0.4981
   99OSM    C9F 9949   5.455   5.232   9.465 -0.7991  0.1602  0.1381
   99OSM    H9F 9950   5.551   5.285   9.455  0.6326 -1.6893  2.7087
   99OSM   C10F 9951   5.395   5.170   9.365  0.4826  0.4550  0.2541
   99OSM   H10F 9952   5.446   5.160   9.268  1.2410  2.9769  0.3435
   99OSM   C11F 9953   5.265   5.097   9.377  0.2238  0.0506  0.4707
   99OSM   H11F 9954   5.217   5.086   9.477  0.1337  0.7612  0.5144
   99OSM   H11G 9955   5.289   4.996   9.340  1.7417  1.0323 -1.4081
   99OSM   C12F 9956   5.164   5.145   9.270  0.4675 -0.2421 -0.3260
   99OSM   H12F 9957   5.099   5.219   9.319 -0.1029 -2.2751  2.1877
   99OSM   H12G 9958   5.101   5.058   9.238 -2.4674  1.6140  0.0664
   99OSM   C13F 9959   5.220   5.192   9.142 -0.5257  0.1395  0.4348
   99OSM   H13F 9960   5.289   5.278   9.151 -0.4816  0.0026  1.4582
   99OSM   H13G 9961   5.132   5.229   9.084  0.0013  0.3445 -0.2508
   99OSM   C14F 9962   5.285   5.080   9.049  0.3422  0.4232  0.0049
   99OSM   H14F 9963   5.231   4.984   9.064  0.6785  0.3847  1.0372
   99OSM   H14G 9964   5.386   5.066   9.092 -0.3893 -1.3232  1.2756
   99OSM   C15F 9965   5.301   5.133   8.910  0.2159  0.1253  0.4138
   99OSM   H15F 9966   5.351   5.232   8.906  0.0402  0.2178 -3.7660
   99OSM   H15G 9967   5.199   5.150   8.870  0.1294 -1.3506 -0.0597
   99OSM   C16F 9968   5.372   5.037   8.825 -0.6882 -0.2622  0.3560
   99OSM   H16F 9969   5.337   4.937   8.860 -0.7399 -0.8311 -1.2405
   99OSM   H16G 9970   5.481   5.053   8.834 -1.0228  1.7364  1.5593
   99OSM   C17F 9971   5.341   5.067   8.680  0.4848 -1.2490 -0.2459
   99OSM   H17F 9972   5.234   5.037   8.666 -0.2880  0.6492  1.1923
   99OSM   H17G 9973   5.400   5.002   8.613 -0.2199 -0.2364 -1.8941
   99OSM   C18F 9974   5.368   5.211   8.632 -0.0422  0.3831 -0.3676
   99OSM   H18F 9975   5.339   5.214   8.525 -1.9150  0.1431  0.1005
   99OSM   H18G 9976   5.473   5.244   8.648  0.2163  0.3267 -1.8010
   99OSM   H18H 9977   5.306   5.288   8.682 -0.9219  0.4655 -1.5529
  100OSM      N 9978   0.769   2.667  11.025 -0.2569  0.0429 -0.6248
  100OSM    C15 9979   0.750   2.769  11.126  0.8063  0.4808  1.0363
  100OSM   H15A 9980   0.799   2.746  11.219  0.6900 -2.4979  0.4674
  100OSM   H15B 9981   0.645   2.776  11.147  0.4478  0.9605 -0.7376
  100OSM   H15C 9982   0.776   2.868  11.090  0.9280  0.2230  0.3881
  100OSM    C14 9983   0.917   2.656  11.015  0.0184  0.6247 -0.3349
  100OSM   H14A 9984   0.959   2.743  10.969  2.3685  0.5401  1.4759
  100OSM   H14B 9985   0.951   2.573  10.955  0.5495 -0.8094  1.8122
  100OSM   H14C 9986   0.940   2.648  11.120 -0.7619  1.1300 -0.1113
  100OSM    C13 9987   0.722   2.534  11.075 -0.1441 -0.2243  0.3101
  100OSM   H13A 9988   0.777   2.495  11.159  3.7851 -1.2017 -2.4106
  100OSM   H13B 9989   0.719   2.468  10.989  1.9559  0.2611 -0.1894
  100OSM   H13C 9990   0.619   2.538  11.106  0.1101 -1.1033  1.3177
  100OSM    C12 9991   0.714   2.720  10.896 -0.0016 -0.8247 -0.6922
  100OSM   H12A 9992   0.765   2.813  10.872 -0.2096 -0.6742 -0.5629
  100OSM   H12B 9993   0.612   2.754  10.915  1.1684  1.7760  1.8436
  100OSM    C11 9994   0.708   2.619  10.777 -0.2579 -0.2439  0.1279
  100OSM   H11A 9995   0.811   2.586  10.753 -1.1167 -1.3491 -2.3151
  100OSM   H11B 9996   0.680   2.666  10.681  0.8695 -3.0764 -1.6996
  100OSM      P 9997   0.460   2.535  10.801 -0.5766 -0.4680 -0.1279
  100OSM    O13 9998   0.397   2.421  10.876  0.7184 -0.4184 -0.5494
  100OSM    O14 9999   0.433   2.674  10.855  0.2703  0.2907 -0.1571
  100OSM    O1110000   0.406   2.529  10.660 -0.7000  0.0160 -0.4014
  100OSM    O1210001   0.617   2.516  10.791 -0.1584  0.4046 -0.7333
  100OSM    C1S10002   0.495   2.507  10.547 -0.2129 -0.3940 -0.1348
  100OSM    H1S10003   0.571   2.427  10.558  0.4222  0.2596  0.3476
  100OSM    H1T10004   0.546   2.598  10.508  2.0863 -1.3095  0.5851
  100OSM     NF10005   0.508   2.407  10.316  0.6164  0.0158  0.0621
  100OSM    HNF10006   0.540   2.465  10.242 -1.5528 -1.3624 -2.0828
  100OSM    C2S10007   0.422   2.474  10.415  0.3096  0.2096  0.4790
  100OSM    H2S10008   0.339   2.402  10.432 -0.0139  0.1615 -1.1111
  100OSM    C3S10009   0.354   2.608  10.365  0.1575 -0.4517 -0.0202
  100OSM    H3S10010   0.434   2.683  10.348  1.3574 -1.3039  1.5295
  100OSM     O310011   0.257   2.666  10.456 -0.1726  0.9954 -0.0621
  100OSM    HO310012   0.277   2.614  10.535 -0.8421 -2.9265 -2.1897
  100OSM    C4S10013   0.286   2.590  10.231 -0.0276 -0.3585 -1.0275
  100OSM    H4S10014   0.356   2.605  10.147  1.1897 -1.6664 -0.2826
  100OSM    C5S10015   0.158   2.571  10.203  0.3150  0.3253 -0.3531
  100OSM    H5S10016   0.076   2.575  10.275 -0.4102 -3.3029 -0.7521
  100OSM    C6S10017   0.109   2.557  10.062  0.3335  0.4313 -0.0495
  100OSM    H6S10018   0.062   2.653  10.036  3.1746  2.2738  1.0809
  100OSM    H6T10019   0.035   2.473  10.060 -0.2067  0.9015  0.1022
  100OSM    C7S10020   0.211   2.509   9.955 -0.4028  0.8262  0.2036
  100OSM    H7S10021   0.260   2.415   9.986  1.0007  1.2847 -0.5381
  100OSM    H7T10022   0.291   2.585   9.936  1.9976 -1.9382 -1.5524
  100OSM    C8S10023   0.138   2.481   9.822 -0.0694  0.8844 -0.0742
  100OSM    H8S10024   0.060   2.558   9.807 -0.3288  0.9371  1.4380
  100OSM    H8T10025   0.093   2.379   9.826 -1.0658  1.2091 -1.9253
  100OSM    C9S10026   0.242   2.485   9.705 -0.3706  0.1625  0.0254
  100OSM    H9S10027   0.326   2.420   9.739 -1.1647 -1.2492 -0.6708
  100OSM    H9T10028   0.290   2.586   9.707 -0.0876  0.0694 -1.3408
  100OSM   C10S10029   0.191   2.460   9.562 -0.1721 -0.0232  0.6739
  100OSM   H10S10030   0.116   2.533   9.526 -0.2120 -0.3483  0.0922
  100OSM   H10T10031   0.145   2.360   9.555 -1.1432  0.4150  0.6717
  100OSM   C11S10032   0.304   2.467   9.463 -0.7315  0.6423  0.3991
  100OSM   H11S10033   0.363   2.377   9.489 -0.9965  0.4268  0.2629
  100OSM   H11T10034   0.356   2.565   9.470  0.2961  0.0676  1.0092
  100OSM   C12S10035   0.265   2.457   9.318  0.8432 -0.5771 -0.1730
  100OSM   H12S10036   0.191   2.539   9.309  0.2730 -1.0714 -0.0243
  100OSM   H12T10037   0.227   2.355   9.296  2.3803 -0.9258 -1.4248
  100OSM   C13S10038   0.379   2.474   9.217 -0.9513  0.1458  0.1026
  100OSM   H13S10039   0.444   2.384   9.213  2.1814  2.3154 -1.8814
  100OSM   H13T10040   0.445   2.552   9.260  1.6809 -3.0933  2.4692
  100OSM   C14S10041   0.347   2.507   9.067 -0.6732 -0.4651 -0.4201
  100OSM   H14S10042   0.285   2.599   9.066 -0.5180 -0.3638 -1.6416
  100OSM   H14T10043   0.289   2.419   9.032  0.5072 -1.2567 -0.4511
  100OSM   C15S10044   0.467   2.524   8.970  0.2470 -0.2523  0.0820
  100OSM   H15S10045   0.540   2.442   8.986  0.1606 -1.0440 -2.9649
  100OSM   H15T10046   0.514   2.623   8.991 -0.8131  0.2386  0.2501
  100OSM   C16S10047   0.425   2.521   8.817  0.1593 -0.0355  0.3888
  100OSM   H16S10048   0.396   2.416   8.796 -2.7143  0.8044 -0.3814
  100OSM   H16T10049   0.515   2.549   8.759 -1.3501  3.1310 -0.6819
  100OSM   C17S10050   0.307   2.611   8.780  0.4136  0.2084  0.4470
  100OSM   H17S10051   0.331   2.718   8.797  0.0396  0.3053  0.3902
  100OSM   H17T10052   0.213   2.593   8.837  0.8471 -1.3335  0.7158
  100OSM   C18S10053   0.284   2.608   8.623  0.3919 -0.2606  0.0931
  100OSM   H18S10054   0.371   2.646   8.566 -0.7192  0.2959 -1.2841
  100OSM   H18T10055   0.192   2.664   8.597  0.0321 -0.6645  0.4708
  100OSM   H18U10056   0.276   2.500   8.599  0.9300 -0.0833 -0.9338
  100OSM    C1F10057   0.560   2.282  10.332 -0.4130  0.1566 -0.3004
  100OSM     OF10058   0.514   2.217  10.422 -0.6065 -0.0033  0.4569
  100OSM    C2F10059   0.678   2.249  10.242 -0.6978 -0.1777  0.3597
  100OSM    H2F10060   0.748   2.180  10.294 -0.7227  0.8186  1.7726
  100OSM    H2G10061   0.741   2.337  10.214 -0.9364  0.3838  1.5147
  100OSM    C3F10062   0.630   2.171  10.107 -0.5645  0.0088 -0.0754
  100OSM    H3F10063   0.570   2.239  10.044  0.3893  2.6655  1.7196
  100OSM    H3G10064   0.568   2.084  10.136  0.3943 -0.8251 -0.4343
  100OSM    C4F10065   0.746   2.106  10.030 -0.1066 -0.4094 -0.3686
  100OSM    H4F10066   0.783   2.019  10.089  1.1485  0.7063  0.5362
  100OSM    H4G10067   0.828   2.176  10.006 -0.1489 -0.8586 -1.9595
  100OSM    C5F10068   0.697   2.053   9.893  0.2837 -0.4354 -0.2380
  100OSM    H5F10069   0.598   2.011   9.920  0.3226 -0.3033  0.1141
  100OSM    H5G10070   0.767   1.976   9.853 -0.0476 -1.0090  0.2767
  100OSM    C6F10071   0.688   2.167   9.788 -0.0916  1.1635  0.0682
  100OSM    H6F10072   0.779   2.231   9.797  0.4434  0.3137  0.9744
  100OSM    H6G10073   0.611   2.232   9.834 -0.9946  1.3091 -1.5874
  100OSM    C7F10074   0.654   2.116   9.648  0.1791 -0.0136 -0.4512
  100OSM    H7F10075   0.578   2.035   9.656 -1.0261  1.1603  0.5447
  100OSM    H7G10076   0.742   2.069   9.599 -0.9086 -0.7496 -1.7569
  100OSM    C8F10077   0.580   2.225   9.568 -0.3823  0.0743  0.5693
  100OSM    H8F10078   0.646   2.314   9.581  0.9582 -1.0608  1.9066
  100OSM    H8G10079   0.487   2.252   9.622  0.2898  0.2584  1.6614
  100OSM    C9F10080   0.561   2.188   9.420 -0.2583 -0.3212 -0.0660
  100OSM    H9F10081   0.466   2.140   9.393  0.5664 -2.3209  0.4237
  100OSM   C10F10082   0.642   2.214   9.321 -0.2275  0.2358  0.8269
  100OSM   H10F10083   0.625   2.169   9.223 -1.4806 -1.4750  1.7863
  100OSM   C11F10084   0.780   2.288   9.335  0.2168  1.0007 -0.3156
  100OSM   H11F10085   0.844   2.229   9.404 -1.6221  1.6223  2.1026
  100OSM   H11G10086   0.760   2.381   9.393 -1.6135 -1.3570  3.2653
  100OSM   C12F10087   0.849   2.323   9.201  0.1801 -0.1556 -0.2191
  100OSM   H12F10088   0.937   2.387   9.222  0.8464 -1.0997 -0.0829
  100OSM   H12G10089   0.778   2.380   9.137  1.1220  0.8111 -0.4162
  100OSM   C13F10090   0.906   2.202   9.124 -0.2334 -0.0982 -0.1716
  100OSM   H13F10091   0.821   2.143   9.083 -2.5112  0.6535  3.0623
  100OSM   H13G10092   0.973   2.154   9.200  0.2184  4.7272  2.9471
  100OSM   C14F10093   1.003   2.230   9.007  0.1657 -0.1167 -0.5588
  100OSM   H14F10094   1.046   2.139   8.959 -2.1200 -2.0880  0.9208
  100OSM   H14G10095   1.089   2.291   9.042 -1.9959  2.5913  0.4318
  100OSM   C15F10096   0.936   2.308   8.892  0.0349  0.1274  0.1860
  100OSM   H15F10097   0.880   2.395   8.934  0.0212 -0.1769  0.8227
  100OSM   H15G10098   0.848   2.252   8.856  0.1412 -1.3204  2.0001
  100OSM   C16F10099   1.030   2.345   8.779  0.0328 -0.5029  0.4032
  100OSM   H16F10100   1.095   2.263   8.743  0.3646  0.4378 -1.2466
  100OSM   H16G10101   1.106   2.410   8.828  0.8701 -1.1032 -0.0834
  100OSM   C17F10102   0.968   2.418   8.664 -0.4565 -1.0628  0.5294
  100OSM   H17F10103   0.932   2.518   8.694 -0.3261 -1.0343  0.5911
  100OSM   H17G10104   0.875   2.373   8.622 -1.0719  1.6198 -1.2085
  100OSM   C18F10105   1.068   2.438   8.557  0.3014 -0.3694  0.2913
  100OSM   H18F10106   1.019   2.485   8.469 -0.5112 -0.7472  0.5338
  100OSM   H18G10107   1.114   2.339   8.537  0.6722 -1.2660  4.5554
  100OSM   H18H10108   1.151   2.509   8.582  0.7215 -0.4387 -0.8380
  101OSM      N10109   1.750   6.619  11.202 -0.0584  0.0473  1.1227
  101OSM    C1510110   1.677   6.497  11.241  0.5458 -0.0774  0.4222
  101OSM   H15A10111   1.710   6.416  11.178 -1.4246 -0.4582 -0.1805
  101OSM   H15B10112   1.569   6.505  11.237  0.6694  1.7484 -0.4983
  101OSM   H15C10113   1.695   6.462  11.342 -0.9721 -1.9142  0.0976
  101OSM    C1410114   1.714   6.737  11.289 -0.8051  0.4964 -0.1459
  101OSM   H14A10115   1.610   6.769  11.288 -0.5756  1.3408 -2.3475
  101OSM   H14B10116   1.770   6.824  11.258 -2.9101  2.2345  0.6563
  101OSM   H14C10117   1.740   6.725  11.393 -0.8488  0.1270 -0.1764
  101OSM    C1310118   1.898   6.583  11.214 -0.1079  0.6252 -0.0851
  101OSM   H13A10119   1.959   6.663  11.176  0.7809 -0.4196 -0.9325
  101OSM   H13B10120   1.921   6.498  11.151 -1.0628 -0.9014  1.5024
  101OSM   H13C10121   1.923   6.563  11.318 -0.2434 -0.4494 -0.2401
  101OSM    C1210122   1.727   6.645  11.050  0.4586 -0.3319  0.6646
  101OSM   H12A10123   1.763   6.566  10.987  0.0312  0.1001 -0.1454
  101OSM   H12B10124   1.784   6.736  11.036  0.7638  0.0055  3.4085
  101OSM    C1110125   1.583   6.687  11.002 -0.2880  0.0971  0.6436
  101OSM   H11A10126   1.504   6.615  11.034 -0.3660 -0.1135 -0.0108
  101OSM   H11B10127   1.582   6.685  10.891  1.3368  3.5223  0.4516
  101OSM      P10128   1.610   6.946  10.985  0.3351  0.2118 -0.0703
  101OSM    O1310129   1.519   7.058  11.001 -0.4428 -0.0978 -0.4142
  101OSM    O1410130   1.745   6.954  11.034 -1.3353 -0.2368 -0.5724
  101OSM    O1110131   1.626   6.903  10.836  0.3251  0.0382  0.1896
  101OSM    O1210132   1.547   6.815  11.050 -0.3586 -0.0634  0.1353
  101OSM    C1S10133   1.521   6.911  10.739  0.0758 -0.4513  0.0776
  101OSM    H1S10134   1.491   7.017  10.723  0.8924 -0.2704 -0.3382
  101OSM    H1T10135   1.439   6.841  10.765 -0.2931  0.8262  2.6907
  101OSM     NF10136   1.477   6.901  10.496  0.5779 -0.3001  0.8332
  101OSM    HNF10137   1.439   6.826  10.443  1.6481 -0.2939  0.0335
  101OSM    C2S10138   1.575   6.868  10.597  0.4956 -0.7797  0.3322
  101OSM    H2S10139   1.664   6.933  10.581  0.2883 -1.0141 -2.3553
  101OSM    C3S10140   1.619   6.728  10.599 -0.5286  0.8174  0.1122
  101OSM    H3S10141   1.539   6.655  10.626  1.0256 -0.2347  2.1419
  101OSM     O310142   1.732   6.689  10.689 -0.0066 -0.4864  0.5158
  101OSM    HO310143   1.737   6.764  10.749 -0.6677  1.2035 -1.4087
  101OSM    C4S10144   1.663   6.688  10.460 -0.6995 -0.2449 -1.0313
  101OSM    H4S10145   1.742   6.749  10.414  1.3780 -2.5294 -0.6682
  101OSM    C5S10146   1.622   6.580  10.388 -0.5737  0.4383 -0.3602
  101OSM    H5S10147   1.545   6.514  10.430 -0.8001  1.4085  0.8129
  101OSM    C6S10148   1.673   6.539  10.249  0.3842  0.8420 -0.2347
  101OSM    H6S10149   1.755   6.466  10.263 -0.6110  0.0024  1.5586
  101OSM    H6T10150   1.706   6.628  10.191  1.9952 -1.1024 -2.4961
  101OSM    C7S10151   1.565   6.456  10.173 -0.7339 -0.4588  0.3954
  101OSM    H7S10152   1.476   6.521  10.160 -0.0068  0.6161  0.6909
  101OSM    H7T10153   1.540   6.358  10.219 -0.3240 -0.6549  0.2001
  101OSM    C8S10154   1.608   6.410  10.022 -0.7064 -0.3693 -1.1729
  101OSM    H8S10155   1.547   6.319  10.004  0.6675 -1.7913  0.8645
  101OSM    H8T10156   1.714   6.376  10.026 -0.9473 -1.1390 -1.1500
  101OSM    C9S10157   1.584   6.520   9.919  0.3286  0.2044 -0.6231
  101OSM    H9S10158   1.653   6.607   9.926  0.5215 -0.0192  0.4350
  101OSM    H9T10159   1.482   6.559   9.935 -0.0462 -0.8751 -0.2849
  101OSM   C10S10160   1.581   6.471   9.773  0.3010  0.1167  1.1011
  101OSM   H10S10161   1.648   6.382   9.773 -0.8182 -0.7554  0.5035
  101OSM   H10T10162   1.627   6.542   9.701  1.6891 -0.8269  0.9965
  101OSM   C11S10163   1.449   6.408   9.727 -0.5275 -0.2584  0.1176
  101OSM   H11S10164   1.387   6.498   9.707  0.4503  0.7623  1.4733
  101OSM   H11T10165   1.403   6.343   9.805 -1.4350 -0.2628 -0.4018
  101OSM   C12S10166   1.466   6.313   9.601  0.1935 -0.7819  0.1678
  101OSM   H12S10167   1.545   6.248   9.644  1.4675  1.3845  1.2751
  101OSM   H12T10168   1.507   6.368   9.513 -1.1818  1.5690  0.9015
  101OSM   C13S10169   1.328   6.244   9.576  0.0908  0.9148 -0.6476
  101OSM   H13S10170   1.257   6.317   9.532 -0.8639  0.3254 -0.1293
  101OSM   H13T10171   1.284   6.200   9.668 -2.2824  0.8259 -1.7347
  101OSM   C14S10172   1.359   6.130   9.477 -0.2249 -0.2257 -0.0790
  101OSM   H14S10173   1.272   6.061   9.471 -2.1750  2.1138 -0.1299
  101OSM   H14T10174   1.453   6.084   9.513 -0.3878  0.3434  1.1123
  101OSM   C15S10175   1.385   6.186   9.337  0.6746  0.2265 -0.3034
  101OSM   H15S10176   1.482   6.239   9.330 -0.8482  3.2898  0.1348
  101OSM   H15T10177   1.308   6.264   9.322  0.9951  0.7716  0.8125
  101OSM   C16S10178   1.385   6.088   9.223  0.1725 -0.4096 -0.0454
  101OSM   H16S10179   1.289   6.032   9.230  0.1478 -0.2079  1.4406
  101OSM   H16T10180   1.464   6.011   9.236  0.3781 -0.0396  0.9477
  101OSM   C17S10181   1.422   6.157   9.091 -0.3311 -0.5640  0.0330
  101OSM   H17S10182   1.523   6.201   9.101 -0.2258 -0.4402 -1.3512
  101OSM   H17T10183   1.355   6.244   9.070  0.1515 -0.8860 -3.5684
  101OSM   C18S10184   1.430   6.063   8.972  0.4769 -0.2229 -0.4123
  101OSM   H18S10185   1.500   5.978   8.983 -0.2392 -0.8497 -0.5361
  101OSM   H18T10186   1.456   6.108   8.874  1.4427 -2.8399 -1.4354
  101OSM   H18U10187   1.328   6.018   8.968 -0.2127  1.2325  0.1911
  101OSM    C1F10188   1.443   7.026  10.465  0.5189  0.5935  0.7704
  101OSM     OF10189   1.500   7.121  10.514 -0.4012 -0.4318 -0.2091
  101OSM    C2F10190   1.328   7.039  10.367  0.1563 -0.2472  0.3837
  101OSM    H2F10191   1.345   7.127  10.302 -0.7270 -0.6928 -0.4687
  101OSM    H2G10192   1.251   7.049  10.447  0.0361 -1.0942  0.3845
  101OSM    C3F10193   1.299   6.915  10.271  0.0676  0.0489 -0.3669
  101OSM    H3F10194   1.188   6.906  10.267 -0.1023  0.4710  2.0402
  101OSM    H3G10195   1.343   6.819  10.306  0.1428  0.4188  0.5921
  101OSM    C4F10196   1.336   6.938  10.128 -0.0844  0.2721  0.0349
  101OSM    H4F10197   1.439   6.980  10.125  0.8696 -1.9660 -2.1876
  101OSM    H4G10198   1.269   7.012  10.079 -2.6141 -0.8227  1.6966
  101OSM    C5F10199   1.334   6.808  10.048 -0.4646 -0.4149  0.3234
  101OSM    H5F10200   1.246   6.748  10.076  1.1007 -2.6563  0.6988
  101OSM    H5G10201   1.418   6.741  10.079 -1.3840 -1.8764 -0.2712
  101OSM    C6F10202   1.343   6.846   9.901  0.2629  0.3607  0.2093
  101OSM    H6F10203   1.419   6.928   9.893  1.0414 -0.1849  1.5658
  101OSM    H6G10204   1.379   6.760   9.841  1.3609  0.3580  0.8375
  101OSM    C7F10205   1.208   6.898   9.846  0.1370  0.2517  0.2239
  101OSM    H7F10206   1.171   6.990   9.897  0.4831  1.0180 -0.8761
  101OSM    H7G10207   1.137   6.815   9.864  0.7923 -0.8640 -1.9778
  101OSM    C8F10208   1.203   6.910   9.693 -0.6792 -0.9556  0.7365
  101OSM    H8F10209   1.102   6.943   9.661  0.0806  0.1139 -0.7205
  101OSM    H8G10210   1.222   6.808   9.654 -0.7324 -0.2052 -1.4254
  101OSM    C9F10211   1.307   7.006   9.645  0.0914 -0.7220  0.0820
  101OSM    H9F10212   1.411   6.986   9.673 -0.1383 -0.0531  1.5116
  101OSM   C10F10213   1.279   7.103   9.554  0.5929  0.2660  0.1576
  101OSM   H10F10214   1.353   7.181   9.530  0.9175 -0.0425  0.1427
  101OSM   C11F10215   1.148   7.135   9.488 -0.2174  0.9443  0.2994
  101OSM   H11F10216   1.083   7.198   9.552 -0.1100  0.3041  1.0580
  101OSM   H11G10217   1.095   7.038   9.484  0.5067  0.5802 -1.5467
  101OSM   C12F10218   1.166   7.187   9.342 -0.2647  0.4392 -0.8971
  101OSM   H12F10219   1.235   7.274   9.341 -0.0913  0.3017 -1.4131
  101OSM   H12G10220   1.068   7.209   9.294 -0.6771 -0.0063 -0.2790
  101OSM   C13F10221   1.227   7.074   9.256 -1.1352 -0.0148 -0.0465
  101OSM   H13F10222   1.167   6.981   9.261  2.6922 -2.7398 -0.4367
  101OSM   H13G10223   1.330   7.047   9.289 -1.0329  1.5587  1.0594
  101OSM   C14F10224   1.223   7.113   9.105  0.0493  0.3772  0.9488
  101OSM   H14F10225   1.276   7.210   9.091 -0.8536  0.8022  0.3659
  101OSM   H14G10226   1.117   7.131   9.074  0.7357 -1.1476 -2.8863
  101OSM   C15F10227   1.290   7.021   9.004 -0.4511  0.1955 -0.1698
  101OSM   H15F10228   1.255   6.917   9.020  3.5283 -1.1044  1.4017
  101OSM   H15G10229   1.399   7.010   9.022 -0.2578 -0.3051 -1.5136
  101OSM   C16F10230   1.279   7.049   8.849  0.2018 -0.0808  0.4314
  101OSM   H16F10231   1.193   6.996   8.802  0.8919 -1.2312  0.4395
  101OSM   H16G10232   1.365   7.002   8.798  0.0618  1.4684 -1.3306
  101OSM   C17F10233   1.298   7.191   8.805 -0.2051  0.0562 -0.0147
  101OSM   H17F10234   1.381   7.242   8.859 -2.0346  4.2240 -0.7318
  101OSM   H17G10235   1.213   7.253   8.842  0.8436  0.4556  1.8419
  101OSM   C18F10236   1.297   7.205   8.654 -0.6091 -0.3586  0.3296
  101OSM   H18F10237   1.329   7.307   8.623  1.8421 -0.5619  1.9385
  101OSM   H18G10238   1.191   7.194   8.621 -0.2607  0.9057 -1.3701
  101OSM   H18H10239   1.365   7.125   8.621 -1.2184 -0.4726 -0.6974
  102OSM      N10240   5.094   0.682  10.624 -0.0177  0.4400 -0.4245
  102OSM    C1510241   5.148   0.825  10.646  0.5558  0.9191 -0.2391
  102OSM   H15A10242   5.086   0.888  10.708 -0.7431 -0.7861  0.2780
  102OSM   H15B10243   5.159   0.867  10.547  1.1060 -1.3982 -1.2515
  102OSM   H15C10244   5.247   0.817  10.688  0.1568 -0.7496  0.4792
  102OSM    C1410245   5.100   0.628  10.761 -1.0494 -0.3508  0.3261
  102OSM   H14A10246   5.031   0.547  10.779 -1.9753  0.6499  1.4831
  102OSM   H14B10247   5.060   0.700  10.830  0.0856 -1.3383  2.0806
  102OSM   H14C10248   5.198   0.588  10.781  0.3244  0.3414 -4.0431
  102OSM    C1310249   4.953   0.692  10.577  0.2379 -0.0720 -0.2805
  102OSM   H13A10250   4.891   0.742  10.650  0.4204  0.4426 -0.4718
  102OSM   H13B10251   4.914   0.594  10.555  2.2667 -0.1777 -4.3450
  102OSM   H13C10252   4.957   0.738  10.479  0.5031  1.1126  0.2666
  102OSM    C1210253   5.174   0.603  10.527  0.0144  0.8517  0.1916
  102OSM   H12A10254   5.168   0.653  10.432 -2.0572  1.7334  0.7248
  102OSM   H12B10255   5.129   0.507  10.506  0.7024  0.6087 -0.1961
  102OSM    C1110256   5.327   0.577  10.554 -0.3806  0.1525 -0.8160
  102OSM   H11A10257   5.382   0.670  10.526 -0.0899 -0.3345 -1.9282
  102OSM   H11B10258   5.373   0.511  10.478  0.8381 -0.5162  0.4358
  102OSM      P10259   5.443   0.419  10.726  0.2843 -0.1179 -0.3004
  102OSM    O1310260   5.586   0.457  10.731 -0.0621 -0.3775  0.0478
  102OSM    O1410261   5.383   0.372  10.859  0.7149  0.1460 -0.2151
  102OSM    O1110262   5.420   0.321  10.619 -0.3938 -0.1653  0.0067
  102OSM    O1210263   5.356   0.547  10.694  0.3701 -0.2265 -0.5455
  102OSM    C1S10264   5.308   0.233  10.608 -0.7488  0.3680  0.2456
  102OSM    H1S10265   5.213   0.291  10.608 -1.5926 -0.8761 -1.9504
  102OSM    H1T10266   5.311   0.149  10.680  1.0446 -0.0943 -0.3036
  102OSM     NF10267   5.184   0.102  10.449  0.3970 -0.6312 -0.1164
  102OSM    HNF10268   5.165   0.010  10.484 -2.4984  0.1301  0.5549
  102OSM    C2S10269   5.305   0.171  10.464 -0.2243  0.7403  0.1682
  102OSM    H2S10270   5.310   0.250  10.386 -0.1508 -0.6562 -1.2880
  102OSM    C3S10271   5.428   0.077  10.448 -0.3970 -0.4543  0.1306
  102OSM    H3S10272   5.419  -0.017  10.508  1.3707 -0.7389 -0.0036
  102OSM     O310273   5.560   0.130  10.478  0.1941  0.2175  0.2610
  102OSM    HO310274   5.533   0.215  10.516 -2.1496 -0.1157 -0.4616
  102OSM    C4S10275   5.430   0.013  10.311  0.3146 -0.4652  0.0084
  102OSM    H4S10276   5.368  -0.077  10.303  0.3108 -0.5553  0.9634
  102OSM    C5S10277   5.503   0.055  10.201  0.1702 -0.0998  0.2515
  102OSM    H5S10278   5.569   0.142  10.214 -1.1457  0.8995  0.4896
  102OSM    C6S10279   5.496  -0.015  10.073  0.7957  0.0693  0.8489
  102OSM    H6S10280   5.451  -0.116  10.083 -2.4452  1.4509  1.5013
  102OSM    H6T10281   5.595  -0.022  10.023  1.1135 -1.2011  1.5997
  102OSM    C7S10282   5.411   0.058   9.959 -0.0812  0.2534  0.4314
  102OSM    H7S10283   5.451   0.161   9.944  2.9071 -0.9172 -0.1898
  102OSM    H7T10284   5.301   0.055   9.978 -0.0475  1.7644  1.0275
  102OSM    C8S10285   5.426  -0.017   9.828  0.0668 -0.4283 -0.2477
  102OSM    H8S10286   5.384  -0.120   9.831 -2.4949  0.5595  0.3495
  102OSM    H8T10287   5.531  -0.020   9.792 -0.2513 -1.1471 -1.1498
  102OSM    C9S10288   5.348   0.054   9.717 -0.0516  0.1882 -0.7556
  102OSM    H9S10289   5.375   0.161   9.723  0.3633  0.1582 -1.8976
  102OSM    H9T10290   5.241   0.048   9.746  0.2075  0.7196  0.3689
  102OSM   C10S10291   5.369  -0.004   9.575 -0.6941  0.1825  0.1186
  102OSM   H10S10292   5.311  -0.097   9.555  0.4118 -0.5775  0.3549
  102OSM   H10T10293   5.477  -0.031   9.567 -1.1076 -1.5525  0.0711
  102OSM   C11S10294   5.347   0.094   9.469  0.2422 -0.7192  0.0279
  102OSM   H11S10295   5.421   0.175   9.480  3.4148 -3.3386 -0.3654
  102OSM   H11T10296   5.247   0.142   9.478  0.9841  0.6066  1.5214
  102OSM   C12S10297   5.353   0.044   9.326 -0.2038  0.0847  0.0626
  102OSM   H12S10298   5.277  -0.036   9.318  0.6939 -0.6730 -1.6397
  102OSM   H12T10299   5.457   0.010   9.305 -0.0266  0.9644 -0.5600
  102OSM   C13S10300   5.306   0.153   9.229  0.0352 -0.3746  0.1571
  102OSM   H13S10301   5.367   0.246   9.220  0.3772 -0.8102 -3.4875
  102OSM   H13T10302   5.203   0.184   9.259  0.1815  0.7267 -0.4097
  102OSM   C14S10303   5.293   0.105   9.080  0.0650  0.6170 -0.2363
  102OSM   H14S10304   5.263  -0.000   9.061  1.1133  0.5908 -2.0210
  102OSM   H14T10305   5.401   0.107   9.053 -0.1663 -2.1713 -1.6915
  102OSM   C15S10306   5.214   0.198   8.996 -0.3559 -0.8181 -0.1592
  102OSM   H15S10307   5.240   0.300   9.032 -1.7310 -0.4351 -0.1927
  102OSM   H15T10308   5.104   0.198   9.015 -0.3464  2.8940  0.8279
  102OSM   C16S10309   5.250   0.188   8.845  0.3859  0.0998  0.1242
  102OSM   H16S10310   5.361   0.187   8.842  0.5239 -1.7240  2.5303
  102OSM   H16T10311   5.215   0.274   8.784 -1.3251 -0.1411  0.6967
  102OSM   C17S10312   5.181   0.064   8.781  0.0767 -0.3325  0.2888
  102OSM   H17S10313   5.186  -0.020   8.854 -0.5150 -0.5560  0.0771
  102OSM   H17T10314   5.231   0.040   8.685  1.9831  1.5544  0.7307
  102OSM   C18S10315   5.032   0.093   8.757  0.1501  0.0517  0.4104
  102OSM   H18S10316   4.972   0.123   8.846  0.8566 -0.2898  1.0138
  102OSM   H18T10317   4.996  -0.000   8.709  0.1686  0.4756 -0.4360
  102OSM   H18U10318   5.028   0.186   8.697 -0.2408  2.0691  3.3148
  102OSM    C1F10319   5.067   0.152  10.407  0.4332 -0.3355 -0.0398
  102OSM     OF10320   5.065   0.268  10.373  0.1418 -0.4462 -0.3022
  102OSM    C2F10321   4.943   0.071  10.418 -0.0184 -0.2085  0.3139
  102OSM    H2F10322   4.902   0.086  10.520 -1.4333  0.9855 -0.4088
  102OSM    H2G10323   4.968  -0.037  10.409  0.0681 -0.0682 -1.6444
  102OSM    C3F10324   4.832   0.109  10.313 -0.1132 -0.8542 -0.0853
  102OSM    H3F10325   4.871   0.102  10.209  1.8443  0.8430  0.4669
  102OSM    H3G10326   4.794   0.212  10.331 -0.2417 -0.7879 -0.7022
  102OSM    C4F10327   4.702   0.035  10.329 -0.1138  0.3766 -0.3199
  102OSM    H4F10328   4.650   0.069  10.421  1.0572 -0.7906  0.8167
  102OSM    H4G10329   4.723  -0.073  10.318 -1.9587  0.1374 -2.1594
  102OSM    C5F10330   4.614   0.072  10.210 -0.1653 -0.3949  0.1025
  102OSM    H5F10331   4.632   0.178  10.186  0.4924 -0.2381  1.1926
  102OSM    H5G10332   4.511   0.048  10.245 -0.3163 -1.6453 -1.1040
  102OSM    C6F10333   4.645  -0.015  10.088  0.1197  0.0830 -0.7174
  102OSM    H6F10334   4.657  -0.122  10.116 -0.7118 -0.4768 -2.3955
  102OSM    H6G10335   4.740   0.024  10.046  1.0136 -0.0776  1.0435
  102OSM    C7F10336   4.526  -0.021   9.984  0.1762  0.0529  0.0252
  102OSM    H7F10337   4.499   0.085   9.965 -1.2505 -0.3728 -0.4869
  102OSM    H7G10338   4.428  -0.064  10.015  1.3944 -3.4979 -0.5356
  102OSM    C8F10339   4.557  -0.089   9.851 -0.0953 -0.2142  0.2844
  102OSM    H8F10340   4.458  -0.107   9.802 -0.8234  2.6533  0.5051
  102OSM    H8G10341   4.592  -0.191   9.876  0.8232  0.1573  0.5404
  102OSM    C9F10342   4.638  -0.025   9.741  0.2697  0.2881  0.0883
  102OSM    H9F10343   4.734   0.011   9.781  1.0586 -2.4915  0.9449
  102OSM   C10F10344   4.617  -0.018   9.603  0.5041 -0.1824  0.0978
  102OSM   H10F10345   4.677   0.050   9.541 -2.4079  0.7743 -1.8635
  102OSM   C11F10346   4.497  -0.081   9.534  0.1158  0.7369  0.5042
  102OSM   H11F10347   4.409  -0.054   9.596 -0.4439 -0.3829  0.2299
  102OSM   H11G10348   4.507  -0.191   9.544 -5.1927  0.0788  1.2281
  102OSM   C12F10349   4.477  -0.028   9.395 -0.0775  0.1919  0.4053
  102OSM   H12F10350   4.579  -0.034   9.353 -0.9305  0.8208 -1.8839
  102OSM   H12G10351   4.458   0.082   9.393  1.4064  0.4518 -0.1648
  102OSM   C13F10352   4.380  -0.116   9.318 -0.1301 -0.4524  0.7246
  102OSM   H13F10353   4.282  -0.113   9.369  0.2425 -0.3135  1.4528
  102OSM   H13G10354   4.429  -0.215   9.322 -1.0736 -0.9502  0.2259
  102OSM   C14F10355   4.362  -0.074   9.175 -0.3793 -0.3255 -0.0825
  102OSM   H14F10356   4.304   0.021   9.167  0.3881  0.2305  0.7737
  102OSM   H14G10357   4.298  -0.153   9.129 -1.2364 -0.6097  1.4925
  102OSM   C15F10358   4.496  -0.065   9.099 -0.6371  0.2724 -0.9471
  102OSM   H15F10359   4.560  -0.148   9.137 -1.9196  0.6438  2.2898
  102OSM   H15G10360   4.550   0.027   9.130 -0.0124 -0.9375  1.7789
  102OSM   C16F10361   4.492  -0.060   8.952  0.7871  0.3280  0.4954
  102OSM   H16F10362   4.599  -0.049   8.922  0.3978 -0.6236 -1.3725
  102OSM   H16G10363   4.443   0.034   8.918 -1.3739 -0.5495  1.0357
  102OSM   C17F10364   4.431  -0.186   8.888  0.1601  0.4587  0.4428
  102OSM   H17F10365   4.323  -0.191   8.914 -0.0442 -0.2232 -0.5067
  102OSM   H17G10366   4.472  -0.282   8.925 -0.8646  0.6820  2.2901
  102OSM   C18F10367   4.434  -0.175   8.732 -0.1468 -0.7341 -0.8031
  102OSM   H18F10368   4.387  -0.257   8.674  0.2066 -0.4807 -1.4625
  102OSM   H18G10369   4.538  -0.147   8.707 -0.2642  1.5539  0.9480
  102OSM   H18H10370   4.362  -0.091   8.714 -0.7667 -0.8438  0.9404
  103OSM      N10371   5.504   4.213  11.109 -0.4072  0.1947 -0.6041
  103OSM    C1510372   5.555   4.351  11.092  0.1857  0.0914  0.3950
  103OSM   H15A10373   5.585   4.370  10.990  1.3767 -1.1837  0.4826
  103OSM   H15B10374   5.636   4.369  11.161  0.1020  2.2204  0.0174
  103OSM   H15C10375   5.484   4.429  11.115  1.3744  1.4251 -0.3363
  103OSM    C1410376   5.506   4.179  11.254 -0.3185 -0.0827  0.7282
  103OSM   H14A10377   5.420   4.226  11.298 -2.9389 -1.4231 -2.5088
  103OSM   H14B10378   5.596   4.208  11.308  0.3903 -1.3356  0.2722
  103OSM   H14C10379   5.511   4.073  11.272  0.2536 -0.2045 -0.0824
  103OSM    C1310380   5.365   4.220  11.061 -0.6322 -0.1332  0.0600
  103OSM   H13A10381   5.323   4.120  11.067  1.0981 -0.8913  0.2626
  103OSM   H13B10382   5.358   4.241  10.956 -0.5855 -2.4382 -0.4712
  103OSM   H13C10383   5.310   4.281  11.130 -0.7318  0.8433 -0.8675
  103OSM    C1210384   5.593   4.108  11.034  1.0557 -0.0314  0.1876
  103OSM   H12A10385   5.544   4.012  11.040 -1.2386  0.9476 -1.3787
  103OSM   H12B10386   5.690   4.107  11.083  0.9463  0.6266  0.4185
  103OSM    C1110387   5.621   4.128  10.883  0.3465 -0.2118  0.6137
  103OSM   H11A10388   5.678   4.038  10.849 -2.3854 -1.9135  0.2881
  103OSM   H11B10389   5.692   4.210  10.860  0.1659 -0.6985 -2.1062
  103OSM      P10390   5.414   4.014  10.773  0.2203 -0.0129 -0.3757
  103OSM    O1310391   5.471   3.881  10.816  0.1135  0.0912 -0.1167
  103OSM    O1410392   5.281   4.040  10.829  0.1320  0.0484  0.0868
  103OSM    O1110393   5.410   4.022  10.619  0.1876 -0.1647  0.7469
  103OSM    O1210394   5.499   4.144  10.817  0.0331  0.1698  0.7332
  103OSM    C1S10395   5.473   4.120  10.544  0.2549 -1.1996  0.3267
  103OSM    H1S10396   5.579   4.125  10.577 -0.2081 -0.4957  1.8054
  103OSM    H1T10397   5.423   4.218  10.561  0.9204 -1.3224  3.5166
  103OSM     NF10398   5.519   4.219  10.332 -0.0184 -0.4941 -0.7421
  103OSM    HNF10399   5.449   4.265  10.277  1.1649 -0.3337 -2.1923
  103OSM    C2S10400   5.473   4.098  10.391  0.6552  0.0294 -0.8262
  103OSM    H2S10401   5.553   4.022  10.378 -0.7688 -1.5973 -0.5396
  103OSM    C3S10402   5.339   4.043  10.340 -0.2532 -0.0302  0.3973
  103OSM    H3S10403   5.260   4.120  10.336  0.9499  1.2129 -0.1073
  103OSM     O310404   5.282   3.933  10.410  0.1172 -0.0663  0.5903
  103OSM    HO310405   5.325   3.928  10.496 -1.7131  1.4830  1.6868
  103OSM    C4S10406   5.362   4.011  10.191 -0.6367 -0.5042 -0.0316
  103OSM    H4S10407   5.309   4.081  10.124 -0.6694 -1.9716 -1.5942
  103OSM    C5S10408   5.436   3.904  10.149 -0.4627 -0.4323  1.0123
  103OSM    H5S10409   5.470   3.830  10.223  0.3156 -2.1069 -0.9474
  103OSM    C6S10410   5.471   3.867  10.006 -0.8096 -0.0121 -0.1776
  103OSM    H6S10411   5.445   3.948   9.935 -1.3463 -0.4112 -0.4408
  103OSM    H6T10412   5.424   3.772   9.975  0.9230 -0.5250 -1.3461
  103OSM    C7S10413   5.627   3.844   9.999 -0.1743 -0.4558 -0.6603
  103OSM    H7S10414   5.669   3.777  10.076  1.6379  1.3638  0.0314
  103OSM    H7T10415   5.664   3.947  10.019 -0.5738 -0.4666  0.1474
  103OSM    C8S10416   5.673   3.805   9.864  0.0282 -0.2689  1.4569
  103OSM    H8S10417   5.613   3.718   9.830 -1.0212  0.1105  2.2878
  103OSM    H8T10418   5.778   3.768   9.871 -0.6172 -2.5204  0.2235
  103OSM    C9S10419   5.661   3.915   9.760 -0.1783  0.2933 -0.4995
  103OSM    H9S10420   5.730   3.996   9.791 -1.2156  0.2195  2.3599
  103OSM    H9T10421   5.562   3.964   9.770 -0.6885 -0.9497  0.9659
  103OSM   C10S10422   5.686   3.857   9.619 -0.4939 -0.0146 -0.1693
  103OSM   H10S10423   5.617   3.773   9.596 -0.8221  0.7115 -2.0363
  103OSM   H10T10424   5.782   3.802   9.603 -1.7694 -1.9678 -1.5877
  103OSM   C11S10425   5.685   3.976   9.518 -0.4139 -0.2138 -0.2108
  103OSM   H11S10426   5.773   4.041   9.540 -1.8958  1.2370  1.6884
  103OSM   H11T10427   5.597   4.043   9.529 -0.7811 -0.4761 -1.3896
  103OSM   C12S10428   5.706   3.932   9.375  0.4170  0.3133 -0.8211
  103OSM   H12S10429   5.629   3.867   9.328  1.4603 -0.6171 -1.2997
  103OSM   H12T10430   5.792   3.862   9.366 -0.0671 -0.6014  1.2111
  103OSM   C13S10431   5.734   4.055   9.276 -0.6711  0.3906  0.2757
  103OSM   H13S10432   5.843   4.074   9.277 -0.2264 -1.8771 -0.4137
  103OSM   H13T10433   5.684   4.147   9.314  0.7976  0.9892  0.8106
  103OSM   C14S10434   5.682   4.013   9.137 -0.0689  0.3392 -0.0343
  103OSM   H14S10435   5.571   4.004   9.140  0.0410 -1.4663 -0.2328
  103OSM   H14T10436   5.721   3.911   9.117 -0.8971  0.0704 -0.3168
  103OSM   C15S10437   5.700   4.114   9.030 -0.3796  0.4455 -0.4626
  103OSM   H15S10438   5.807   4.144   9.021 -0.1834 -0.5634 -1.7637
  103OSM   H15T10439   5.646   4.205   9.063 -1.6124  0.7583 -3.1078
  103OSM   C16S10440   5.656   4.084   8.890  0.5077 -0.4792 -0.3513
  103OSM   H16S10441   5.548   4.062   8.888  0.5566 -0.8939 -3.4631
  103OSM   H16T10442   5.706   3.994   8.849  2.1287  0.6517 -0.9826
  103OSM   C17S10443   5.683   4.196   8.789 -0.0737 -0.2689  0.0891
  103OSM   H17S10444   5.781   4.189   8.736 -1.3933  1.0048 -2.7550
  103OSM   H17T10445   5.688   4.295   8.838  4.2144  0.6974 -1.8258
  103OSM   C18S10446   5.571   4.204   8.679  0.0342 -0.8265  0.0866
  103OSM   H18S10447   5.562   4.110   8.620 -0.2009 -0.8834  0.2114
  103OSM   H18T10448   5.582   4.291   8.611 -1.0446 -0.7756 -0.0456
  103OSM   H18U10449   5.476   4.220   8.734  0.9830  0.4502  1.4437
  103OSM    C1F10450   5.639   4.278  10.369 -0.6465 -0.5779 -0.1953
  103OSM     OF10451   5.724   4.225  10.443  0.0070  0.5876  0.5110
  103OSM    C2F10452   5.669   4.417  10.321  0.0880  0.5292 -0.4426
  103OSM    H2F10453   5.689   4.474  10.414 -1.6765 -1.0482  0.9668
  103OSM    H2G10454   5.587   4.468  10.268 -0.9617 -0.9461 -0.2874
  103OSM    C3F10455   5.794   4.422  10.229 -0.8292  0.9890 -0.3183
  103OSM    H3F10456   5.861   4.333  10.237 -0.0925  1.6838  1.8482
  103OSM    H3G10457   5.852   4.511  10.261 -1.0990  0.3596  2.1540
  103OSM    C4F10458   5.759   4.447  10.084 -0.3516 -0.9300 -0.4086
  103OSM    H4F10459   5.856   4.464  10.034  0.7169  0.8484  2.0814
  103OSM    H4G10460   5.708   4.546  10.084  2.1438  0.4240 -0.3017
  103OSM    C5F10461   5.675   4.339  10.020  0.5829 -0.4111  0.1111
  103OSM    H5F10462   5.573   4.343  10.064  0.4403  2.3602 -0.2835
  103OSM    H5G10463   5.728   4.245  10.047  1.2764 -0.1487 -0.3185
  103OSM    C6F10464   5.652   4.361   9.867  0.1297  0.1070 -0.3142
  103OSM    H6F10465   5.594   4.455   9.851 -0.4795 -0.4509 -1.5823
  103OSM    H6G10466   5.581   4.281   9.835 -1.2379  0.9050  0.5826
  103OSM    C7F10467   5.785   4.375   9.785 -0.8397  0.9502 -0.4505
  103OSM    H7F10468   5.821   4.271   9.797 -1.0874  1.1817  3.7711
  103OSM    H7G10469   5.861   4.443   9.829 -1.0354  0.4451  0.7053
  103OSM    C8F10470   5.755   4.410   9.639 -0.2183 -0.2618  0.1281
  103OSM    H8F10471   5.678   4.487   9.619 -1.1399 -1.1094  0.3338
  103OSM    H8G10472   5.704   4.319   9.601 -0.1571  0.4417 -1.7360
  103OSM    C9F10473   5.879   4.423   9.555  0.2764 -0.2639  0.3365
  103OSM    H9F10474   5.975   4.416   9.607 -0.4444 -3.7217  1.4830
  103OSM   C10F10475   5.889   4.449   9.425  0.6615  0.3789 -0.5462
  103OSM   H10F10476   5.989   4.446   9.378  0.0162  0.3953 -1.9755
  103OSM   C11F10477   5.775   4.476   9.328  0.1583  0.8290  0.2033
  103OSM   H11F10478   5.738   4.580   9.342 -0.8071  0.5133  0.0597
  103OSM   H11G10479   5.691   4.408   9.351  0.8112 -0.1758 -0.3027
  103OSM   C12F10480   5.821   4.448   9.187  1.3385 -0.8268 -0.5435
  103OSM   H12F10481   5.738   4.440   9.114  0.5667 -1.6019  0.3983
  103OSM   H12G10482   5.869   4.350   9.165 -0.2642 -1.3742 -1.7721
  103OSM   C13F10483   5.923   4.547   9.119  0.1168  0.9332 -0.0595
  103OSM   H13F10484   6.022   4.543   9.171 -0.8224 -0.4106  1.7519
  103OSM   H13G10485   5.872   4.644   9.135 -1.0542  0.2181  0.6948
  103OSM   C14F10486   5.935   4.522   8.967 -0.3666  0.3661  0.2528
  103OSM   H14F10487   5.836   4.540   8.919 -2.2032 -5.1966  1.2377
  103OSM   H14G10488   5.961   4.416   8.949  1.9506  0.8207  0.6758
  103OSM   C15F10489   6.027   4.613   8.886  0.1586 -0.1194 -0.9882
  103OSM   H15F10490   6.130   4.593   8.922 -0.4147  0.2168  0.9300
  103OSM   H15G10491   6.005   4.720   8.909 -1.2400 -0.8327  1.3137
  103OSM   C16F10492   6.033   4.586   8.735 -0.1484  0.5982 -0.3146
  103OSM   H16F10493   6.038   4.475   8.735 -0.4262  0.5852 -0.6266
  103OSM   H16G10494   6.124   4.630   8.689 -1.4079  0.6384 -2.9208
  103OSM   C17F10495   5.907   4.640   8.657  0.0342  0.0107 -0.6582
  103OSM   H17F10496   5.808   4.612   8.700 -0.0575 -1.1721 -1.5622
  103OSM   H17G10497   5.904   4.596   8.555  0.5661  0.3813 -0.8321
  103OSM   C18F10498   5.886   4.796   8.652  0.2709  0.6717 -0.1300
  103OSM   H18F10499   5.980   4.843   8.615  1.1929 -2.2554 -1.8379
  103OSM   H18G10500   5.865   4.836   8.754 -1.4193  2.2298 -1.0407
  103OSM   H18H10501   5.806   4.821   8.580 -0.2827 -1.8128 -0.4714
  104OSM      N10502   4.753   3.959  11.190 -0.3781 -0.4043  0.3071
  104OSM    C1510503   4.770   4.048  11.069 -0.0948  0.5081 -0.1643
  104OSM   H15A10504   4.704   4.015  10.991 -0.7188 -1.1857  1.0138
  104OSM   H15B10505   4.875   4.045  11.042 -0.1767 -0.0841 -0.4196
  104OSM   H15C10506   4.746   4.148  11.103 -0.4287  0.4952 -0.3581
  104OSM    C1410507   4.850   4.003  11.300 -0.3384  0.0810 -0.7891
  104OSM   H14A10508   4.948   4.036  11.268 -1.2794  2.5685 -1.3329
  104OSM   H14B10509   4.847   3.925  11.375 -0.8208 -0.2284 -1.1247
  104OSM   H14C10510   4.817   4.083  11.364 -0.7265 -2.4485  2.4242
  104OSM    C1310511   4.616   3.991  11.238  0.4713 -0.5799  0.3551
  104OSM   H13A10512   4.578   3.961  11.335 -0.7307  2.5405  0.9793
  104OSM   H13B10513   4.545   3.947  11.170  0.3496  0.2438 -0.0682
  104OSM   H13C10514   4.596   4.097  11.245  1.0731 -0.5564  2.7968
  104OSM    C1210515   4.769   3.818  11.148  0.5985 -0.1830  0.2110
  104OSM   H12A10516   4.705   3.796  11.063  0.7043 -1.5051  0.4607
  104OSM   H12B10517   4.744   3.753  11.229 -0.3873  0.6766  0.6273
  104OSM    C1110518   4.917   3.778  11.099 -0.5540  1.0399 -0.9405
  104OSM   H11A10519   4.983   3.796  11.187  2.0873  0.4436 -2.6755
  104OSM   H11B10520   4.958   3.835  11.013  0.1547  1.6754 -0.2015
  104OSM      P10521   5.003   3.577  10.961  0.1653  0.1202 -0.0116
  104OSM    O1310522   5.144   3.600  10.990  0.4785  0.2306 -0.3436
  104OSM    O1410523   4.962   3.432  10.946 -0.3980 -0.5655 -0.9512
  104OSM    O1110524   4.959   3.654  10.832 -0.1764 -0.2031 -0.2486
  104OSM    O1210525   4.915   3.636  11.085 -0.3943 -0.3171 -0.2577
  104OSM    C1S10526   5.055   3.667  10.724  0.2397 -0.1925 -0.5796
  104OSM    H1S10527   5.103   3.570  10.698  1.0166 -0.7678  2.5445
  104OSM    H1T10528   5.134   3.738  10.754 -1.2432  0.4666  2.1884
  104OSM     NF10529   5.083   3.707  10.477 -0.5160  0.1269 -0.0304
  104OSM    HNF10530   5.138   3.785  10.449  0.8586 -0.9401 -0.4360
  104OSM    C2S10531   5.001   3.733  10.592  0.0328 -0.6331  0.5432
  104OSM    H2S10532   4.903   3.684  10.575 -1.7270  2.1646  1.9582
  104OSM    C3S10533   4.966   3.885  10.603  0.2186 -0.0178  0.0145
  104OSM    H3S10534   5.065   3.935  10.603  0.6643 -0.8766 -0.4630
  104OSM     O310535   4.884   3.911  10.721 -0.4509 -0.0251  0.2385
  104OSM    HO310536   4.877   3.822  10.757 -0.0269 -0.2052 -0.1132
  104OSM    C4S10537   4.892   3.923  10.478  0.2572 -0.0823  0.1197
  104OSM    H4S10538   4.791   3.883  10.460 -0.5977  1.7238  0.5965
  104OSM    C5S10539   4.928   4.030  10.396  0.2855  1.1597  0.2815
  104OSM    H5S10540   5.013   4.086  10.436 -0.6350  1.3996  2.0064
  104OSM    C6S10541   4.858   4.088  10.270 -0.3683 -0.0776 -0.2631
  104OSM    H6S10542   4.842   4.197  10.285  1.9781  0.1836  0.9876
  104OSM    H6T10543   4.754   4.055  10.250  0.3661 -0.6490 -3.8207
  104OSM    C7S10544   4.941   4.073  10.141  0.2882 -0.4194 -0.4412
  104OSM    H7S10545   4.954   3.965  10.116 -3.0907 -0.5352 -2.3859
  104OSM    H7T10546   5.038   4.125  10.147  0.4282 -0.7765  0.5270
  104OSM    C8S10547   4.859   4.121  10.022 -0.1352 -0.3638 -0.0397
  104OSM    H8S10548   4.847   4.232  10.021  1.6184 -0.1434  0.5165
  104OSM    H8T10549   4.759   4.074  10.019 -0.9131  1.2213 -2.5071
  104OSM    C9S10550   4.925   4.074   9.886 -0.4589 -0.5269  0.1276
  104OSM    H9S10551   4.855   4.109   9.808  0.3286 -0.4865 -0.5755
  104OSM    H9T10552   4.936   3.963   9.885 -1.0352 -0.5848  0.0865
  104OSM   C10S10553   5.059   4.152   9.871  0.1133 -0.0817  0.2685
  104OSM   H10S10554   5.135   4.149   9.951 -0.3351  1.5509  0.8084
  104OSM   H10T10555   5.030   4.259   9.866 -0.1280 -0.1701 -0.3202
  104OSM   C11S10556   5.125   4.133   9.731 -0.0274  0.7466  0.0594
  104OSM   H11S10557   5.051   4.143   9.649  0.8182 -1.0735 -0.9886
  104OSM   H11T10558   5.153   4.028   9.712 -1.2856  0.3399  0.3737
  104OSM   C12S10559   5.264   4.219   9.702  0.8303 -0.0162  0.7252
  104OSM   H12S10560   5.326   4.205   9.793  0.9839 -0.5180  0.5444
  104OSM   H12T10561   5.230   4.325   9.706 -1.4785 -0.7018  0.5251
  104OSM   C13S10562   5.338   4.193   9.573  0.1344  0.2203 -0.0756
  104OSM   H13S10563   5.361   4.085   9.587  0.0873  0.4432  2.1882
  104OSM   H13T10564   5.431   4.253   9.578 -0.6626  1.4500  0.2714
  104OSM   C14S10565   5.260   4.229   9.448  0.9794 -0.4885  0.0405
  104OSM   H14S10566   5.217   4.330   9.456  1.0418 -0.5687  1.5658
  104OSM   H14T10567   5.179   4.154   9.437 -0.8479  1.2152  1.3705
  104OSM   C15S10568   5.347   4.230   9.321  0.3960 -0.7365  0.4255
  104OSM   H15S10569   5.397   4.132   9.304 -0.1351 -0.8095 -0.8258
  104OSM   H15T10570   5.430   4.302   9.333 -1.3605  1.7033 -1.2020
  104OSM   C16S10571   5.252   4.264   9.199 -0.4762  0.2302 -0.7964
  104OSM   H16S10572   5.213   4.368   9.204 -1.2378 -0.0498 -0.6466
  104OSM   H16T10573   5.169   4.190   9.200  1.2781 -1.8488 -1.1536
  104OSM   C17S10574   5.317   4.268   9.062 -0.6521  0.2607 -0.7216
  104OSM   H17S10575   5.369   4.171   9.046 -0.0214  0.8252 -2.2701
  104OSM   H17T10576   5.403   4.338   9.059 -0.1068 -0.2692  1.0591
  104OSM   C18S10577   5.223   4.289   8.943 -0.6901 -0.4695 -0.4090
  104OSM   H18S10578   5.284   4.269   8.852 -0.6683 -3.7592  0.2168
  104OSM   H18T10579   5.182   4.392   8.950  1.0623  0.2846 -0.8136
  104OSM   H18U10580   5.140   4.215   8.942  1.1369 -2.6408 -1.4681
  104OSM    C1F10581   5.097   3.585  10.419  0.2710  0.2373 -0.1682
  104OSM     OF10582   5.036   3.488  10.464 -0.1324 -0.2505  0.0506
  104OSM    C2F10583   5.210   3.574  10.313  0.5354 -0.1582  0.0012
  104OSM    H2F10584   5.304   3.548  10.365  0.9669 -1.0889 -1.2110
  104OSM    H2G10585   5.225   3.665  10.250 -0.4787 -0.2174 -0.3544
  104OSM    C3F10586   5.198   3.456  10.213 -0.2026 -0.0929 -0.0110
  104OSM    H3F10587   5.098   3.455  10.165  0.5860  1.5244 -1.7977
  104OSM    H3G10588   5.208   3.362  10.273  0.9746  0.0679  0.0640
  104OSM    C4F10589   5.302   3.469  10.102 -1.0305 -0.1466 -0.0165
  104OSM    H4F10590   5.401   3.456  10.151 -0.2475 -2.2382 -1.9968
  104OSM    H4G10591   5.299   3.570  10.055  3.1593 -1.3617 -3.5258
  104OSM    C5F10592   5.295   3.355   9.998 -0.2420  0.3284 -0.7667
  104OSM    H5F10593   5.191   3.360   9.959 -1.2926 -1.5909  1.4984
  104OSM    H5G10594   5.297   3.268  10.067 -1.0883  2.1993  1.7729
  104OSM    C6F10595   5.388   3.347   9.876 -0.3322 -0.2826 -0.3802
  104OSM    H6F10596   5.495   3.342   9.905 -0.8293 -0.0134  1.6405
  104OSM    H6G10597   5.396   3.447   9.829  0.7200  0.9754  2.2753
  104OSM    C7F10598   5.352   3.237   9.782 -0.3648  0.4559  1.2234
  104OSM    H7F10599   5.247   3.243   9.745 -0.3540 -1.3607  0.8399
  104OSM    H7G10600   5.371   3.139   9.831  0.0595  1.5812  3.4406
  104OSM    C8F10601   5.427   3.241   9.646  0.4798 -0.3359  0.2825
  104OSM    H8F10602   5.394   3.154   9.586 -1.3296  0.4060  0.1479
  104OSM    H8G10603   5.535   3.216   9.660  1.1159  1.9169 -0.1325
  104OSM    C9F10604   5.406   3.372   9.563  0.1236 -0.3968  0.4777
  104OSM    H9F10605   5.417   3.467   9.617 -0.2873  1.3031 -2.2593
  104OSM   C10F10606   5.373   3.389   9.440 -0.0116  0.2898  0.7010
  104OSM   H10F10607   5.351   3.490   9.401 -0.5981  0.7055  2.0715
  104OSM   C11F10608   5.355   3.285   9.323  0.5017  0.2699 -0.5327
  104OSM   H11F10609   5.272   3.323   9.260  2.1461 -0.9632 -3.6897
  104OSM   H11G10610   5.318   3.185   9.356 -2.1531  1.6032  0.7943
  104OSM   C12F10611   5.489   3.268   9.242 -0.1481 -1.0564 -0.0874
  104OSM   H12F10612   5.567   3.229   9.311  1.2260 -0.5752 -1.3135
  104OSM   H12G10613   5.521   3.368   9.204 -0.7131  0.1380  2.3513
  104OSM   C13F10614   5.468   3.173   9.120 -0.0301 -0.1038 -0.1097
  104OSM   H13F10615   5.374   3.118   9.141 -1.2364  1.1696 -1.8330
  104OSM   H13G10616   5.555   3.104   9.111 -0.0898 -0.1356 -0.4874
  104OSM   C14F10617   5.444   3.254   8.988 -0.2681 -0.2080 -0.9828
  104OSM   H14F10618   5.547   3.289   8.965  0.1063 -0.0596  0.7355
  104OSM   H14G10619   5.381   3.345   8.991 -2.1156 -1.4396  1.4716
  104OSM   C15F10620   5.387   3.160   8.874 -0.2188 -0.5888 -0.1688
  104OSM   H15F10621   5.379   3.213   8.777 -2.6538 -1.8815 -0.7515
  104OSM   H15G10622   5.284   3.131   8.905 -0.1498 -0.6306  0.0245
  104OSM   C16F10623   5.478   3.042   8.848 -0.2552  0.5508  0.9022
  104OSM   H16F10624   5.481   2.966   8.929 -0.2719 -0.1603  0.2415
  104OSM   H16G10625   5.584   3.066   8.824 -0.4638 -0.4292 -1.1997
  104OSM   C17F10626   5.423   2.964   8.730 -0.4570  0.2241 -0.0078
  104OSM   H17F10627   5.491   2.880   8.702  0.2982  0.2447  1.6837
  104OSM   H17G10628   5.423   3.034   8.644  1.4797  0.1884 -0.0635
  104OSM   C18F10629   5.284   2.908   8.748 -0.1214  0.0970 -0.0089
  104OSM   H18F10630   5.271   2.866   8.850 -1.3615  0.4459 -0.0094
  104OSM   H18G10631   5.256   2.824   8.681 -2.4247 -0.3489  1.4172
  104OSM   H18H10632   5.206   2.986   8.740  0.5811  0.8898  0.6087
  105OSM      N10633   3.477   1.729  10.887  0.5043  0.7150  0.2266
  105OSM    C1510634   3.453   1.633  10.994  0.2869  0.7346  0.2354
  105OSM   H15A10635   3.355   1.587  11.002  0.2319  1.0207  1.3529
  105OSM   H15B10636   3.489   1.663  11.091  1.3511 -0.4279  0.2287
  105OSM   H15C10637   3.513   1.547  10.967 -0.1577  1.3836 -3.2993
  105OSM    C1410638   3.624   1.773  10.889  0.1102  0.6780  0.3849
  105OSM   H14A10639   3.643   1.845  10.811 -0.2569 -1.1663 -1.4968
  105OSM   H14B10640   3.691   1.692  10.864 -1.1104 -0.2511  0.0328
  105OSM   H14C10641   3.647   1.816  10.986 -0.8250  3.4864 -0.5417
  105OSM    C1310642   3.452   1.658  10.754 -0.0108 -0.2779  0.1197
  105OSM   H13A10643   3.347   1.633  10.750  0.3071 -1.5160 -2.2102
  105OSM   H13B10644   3.506   1.567  10.735 -1.6447 -0.9010 -1.8372
  105OSM   H13C10645   3.467   1.729  10.675 -0.6162  2.0329  1.9647
  105OSM    C1210646   3.385   1.847  10.904  0.0407  0.3855 -0.1058
  105OSM   H12A10647   3.414   1.886  11.001  1.7722 -2.3420  0.5798
  105OSM   H12B10648   3.283   1.812  10.905  0.8846 -2.2747  0.2995
  105OSM    C1110649   3.395   1.951  10.795  0.1052 -0.0475  0.3703
  105OSM   H11A10650   3.303   2.014  10.800  1.2931  1.8480 -0.6781
  105OSM   H11B10651   3.408   1.914  10.691 -2.2919  1.7368 -0.6695
  105OSM      P10652   3.535   2.177  10.787 -0.3197  0.2499 -0.2487
  105OSM    O1310653   3.445   2.229  10.679  0.1258 -0.1990 -0.5157
  105OSM    O1410654   3.549   2.262  10.905  0.2536 -0.3722 -0.0518
  105OSM    O1110655   3.680   2.163  10.717 -0.4965  0.2905  0.5739
  105OSM    O1210656   3.509   2.024  10.830  0.0657 -0.7694 -0.0394
  105OSM    C1S10657   3.721   2.053  10.633  0.2901  0.2062 -0.7935
  105OSM    H1S10658   3.681   1.959  10.677  1.6261 -0.8697 -1.8160
  105OSM    H1T10659   3.832   2.045  10.634  0.3654  0.1400  2.8613
  105OSM     NF10660   3.691   1.938  10.413 -0.4635 -0.3438  0.4301
  105OSM    HNF10661   3.750   1.941  10.333 -0.3297  0.5618  0.5520
  105OSM    C2S10662   3.665   2.065  10.486 -0.0394 -0.1512 -0.0478
  105OSM    H2S10663   3.556   2.082  10.497  0.0050 -0.4532  1.0189
  105OSM    C3S10664   3.728   2.193  10.423  0.7875 -0.3337 -0.4970
  105OSM    H3S10665   3.832   2.168  10.395  0.2150 -1.2160 -1.9200
  105OSM     O310666   3.734   2.313  10.491 -0.4709 -0.4350 -0.0729
  105OSM    HO310667   3.704   2.290  10.579 -0.5731  1.1020  0.3284
  105OSM    C4S10668   3.663   2.230  10.290  0.1910  0.4430 -0.0950
  105OSM    H4S10669   3.555   2.247  10.297 -0.2049 -1.2316 -1.3451
  105OSM    C5S10670   3.733   2.250  10.181  0.0712 -1.0528  0.7670
  105OSM    H5S10671   3.842   2.240  10.183  0.3296  1.2500  0.7014
  105OSM    C6S10672   3.664   2.297  10.051  0.3464  0.3018 -0.3742
  105OSM    H6S10673   3.691   2.401  10.024 -0.8169  0.3475 -1.4373
  105OSM    H6T10674   3.554   2.295  10.065  0.4666 -1.5843  0.5980
  105OSM    C7S10675   3.688   2.198   9.937 -0.0817 -0.0672  0.3742
  105OSM    H7S10676   3.634   2.106   9.969  0.1897 -0.3493  0.0201
  105OSM    H7T10677   3.797   2.178   9.936  0.4221  2.3543  0.9579
  105OSM    C8S10678   3.657   2.248   9.793 -0.4211 -0.3520  0.2855
  105OSM    H8S10679   3.713   2.340   9.768  0.0098 -1.0220 -1.4208
  105OSM    H8T10680   3.547   2.261   9.785 -0.3599 -0.8696 -2.5898
  105OSM    C9S10681   3.695   2.145   9.683  0.6161  1.0520  0.5614
  105OSM    H9S10682   3.647   2.045   9.691 -0.2727  1.3078 -0.9999
  105OSM    H9T10683   3.805   2.132   9.684  0.3124 -2.7856  1.7077
  105OSM   C10S10684   3.666   2.203   9.539 -0.1836 -0.1198  0.1297
  105OSM   H10S10685   3.701   2.308   9.531 -0.4160 -0.0498 -0.0031
  105OSM   H10T10686   3.556   2.222   9.547 -0.0775  0.1844  0.9586
  105OSM   C11S10687   3.712   2.113   9.421  0.2107  0.0405 -0.4494
  105OSM   H11S10688   3.670   2.011   9.435  1.7542 -0.5747 -0.0584
  105OSM   H11T10689   3.823   2.107   9.429  0.4231  3.3601  0.6117
  105OSM   C12S10690   3.668   2.173   9.289 -0.2151  0.0571  0.2754
  105OSM   H12S10691   3.765   2.183   9.235 -0.7131 -0.9211 -0.8535
  105OSM   H12T10692   3.626   2.272   9.316 -0.5644  0.9988 -3.1806
  105OSM   C13S10693   3.570   2.088   9.203 -0.4009 -0.2228 -0.4409
  105OSM   H13S10694   3.480   2.053   9.259  1.2029 -3.2382  0.5026
  105OSM   H13T10695   3.606   1.986   9.177  0.1609  0.1208 -1.0384
  105OSM   C14S10696   3.522   2.165   9.076  0.6975  0.6612 -0.2458
  105OSM   H14S10697   3.612   2.157   9.011  0.6806  0.5644 -0.2565
  105OSM   H14T10698   3.493   2.267   9.108 -0.2971 -0.1846  1.6946
  105OSM   C15S10699   3.394   2.099   9.019 -0.1456  0.2312 -0.5310
  105OSM   H15S10700   3.322   2.109   9.103  1.1283  0.1483  0.5848
  105OSM   H15T10701   3.408   1.997   8.977 -1.3711 -0.1523 -0.0404
  105OSM   C16S10702   3.332   2.180   8.905 -0.0223  0.6396 -0.3660
  105OSM   H16S10703   3.407   2.189   8.824  0.7867  0.7667  0.3781
  105OSM   H16T10704   3.315   2.284   8.941 -0.8578  0.3710  0.0261
  105OSM   C17S10705   3.202   2.134   8.844  0.7582  0.0873 -0.5558
  105OSM   H17S10706   3.230   2.039   8.793 -0.3606  0.2819 -1.5592
  105OSM   H17T10707   3.164   2.196   8.760  0.0158  0.3229 -0.0602
  105OSM   C18S10708   3.092   2.105   8.942  0.4723  0.1782 -0.0433
  105OSM   H18S10709   3.046   2.197   8.984  1.8062  0.5755  0.6211
  105OSM   H18T10710   3.129   2.052   9.032 -1.2238  0.4387  0.8474
  105OSM   H18U10711   3.022   2.038   8.887 -0.0469  2.6191 -2.5550
  105OSM    C1F10712   3.624   1.832  10.432 -0.7182 -0.2773 -0.5957
  105OSM     OF10713   3.544   1.827  10.524  0.2194  0.2747 -0.0885
  105OSM    C2F10714   3.646   1.723  10.328 -0.3619 -0.6090  0.4685
  105OSM    H2F10715   3.746   1.680  10.349  0.2354  0.1896 -0.6545
  105OSM    H2G10716   3.648   1.774  10.230  1.1006  1.2899  1.4285
  105OSM    C3F10717   3.544   1.613  10.314  0.3041 -0.4850 -0.1724
  105OSM    H3F10718   3.536   1.562  10.413  0.3804 -0.5423 -0.1953
  105OSM    H3G10719   3.582   1.540  10.239  1.7763  0.4688 -0.4079
  105OSM    C4F10720   3.408   1.660  10.249 -0.1021  0.0780  0.4333
  105OSM    H4F10721   3.350   1.705  10.332  1.8047  0.7909  1.4404
  105OSM    H4G10722   3.354   1.567  10.221 -0.3831  0.4608 -0.3222
  105OSM    C5F10723   3.411   1.748  10.129  0.2355 -0.0557 -1.0922
  105OSM    H5F10724   3.461   1.842  10.161 -0.1233  0.2395 -1.3811
  105OSM    H5G10725   3.310   1.784  10.097  0.2755 -0.3842 -1.5944
  105OSM    C6F10726   3.485   1.679  10.013  0.3910 -0.2667 -0.5157
  105OSM    H6F10727   3.423   1.601   9.965  2.0366 -1.1074 -1.3570
  105OSM    H6G10728   3.568   1.620  10.056  0.9079  0.2748 -0.7507
  105OSM    C7F10729   3.541   1.781   9.906 -0.5630  0.5450  1.1940
  105OSM    H7F10730   3.618   1.729   9.844 -2.0272  0.6656 -0.8594
  105OSM    H7G10731   3.595   1.860   9.962 -0.6887 -0.0647  2.1866
  105OSM    C8F10732   3.435   1.838   9.807  0.3707 -0.8088  0.5151
  105OSM    H8F10733   3.479   1.913   9.738 -0.4918 -2.4423 -1.9467
  105OSM    H8G10734   3.371   1.898   9.876 -0.7795 -0.6824 -0.6118
  105OSM    C9F10735   3.362   1.734   9.731 -0.1549 -0.1652 -0.5840
  105OSM    H9F10736   3.287   1.678   9.788 -1.1456  1.3532 -0.3322
  105OSM   C10F10737   3.373   1.726   9.595 -0.4599  0.7322  0.2512
  105OSM   H10F10738   3.311   1.644   9.556  0.1970 -1.2033  3.0032
  105OSM   C11F10739   3.470   1.801   9.500 -0.3824  0.7105  0.2557
  105OSM   H11F10740   3.567   1.802   9.553 -0.4646  3.1255  0.4946
  105OSM   H11G10741   3.442   1.908   9.487  0.4683  1.0499  1.1503
  105OSM   C12F10742   3.485   1.747   9.363  0.6560  0.1875 -0.0439
  105OSM   H12F10743   3.503   1.638   9.370  0.8217  0.3138  2.0172
  105OSM   H12G10744   3.567   1.799   9.309  0.3197 -1.5656 -2.4635
  105OSM   C13F10745   3.361   1.779   9.279  0.2348  0.4050  0.6392
  105OSM   H13F10746   3.341   1.882   9.243 -0.6729 -0.5302 -1.7843
  105OSM   H13G10747   3.271   1.739   9.331  0.1322  0.9501  0.8833
  105OSM   C14F10748   3.369   1.701   9.140  0.2253 -0.5506 -0.7921
  105OSM   H14F10749   3.407   1.598   9.155  0.9780 -0.3912 -1.5298
  105OSM   H14G10750   3.424   1.764   9.067  0.3552  0.4527  0.1477
  105OSM   C15F10751   3.222   1.690   9.079  0.2408 -0.1991  0.2186
  105OSM   H15F10752   3.170   1.783   9.048 -1.0271 -0.8353  0.3777
  105OSM   H15G10753   3.150   1.657   9.157  0.3707  0.3417  0.5748
  105OSM   C16F10754   3.222   1.612   8.950  0.7088 -0.2402  0.3787
  105OSM   H16F10755   3.237   1.502   8.957 -0.0241 -0.3662  0.0635
  105OSM   H16G10756   3.301   1.652   8.883 -1.7124  0.9977 -1.9259
  105OSM   C17F10757   3.091   1.645   8.874  0.5260 -0.6639  0.6572
  105OSM   H17F10758   3.112   1.748   8.836  0.9321 -0.5382  1.2128
  105OSM   H17G10759   3.003   1.630   8.939 -0.5476  1.1400 -0.2783
  105OSM   C18F10760   3.074   1.562   8.749  0.0635 -0.0561 -0.8840
  105OSM   H18F10761   3.063   1.452   8.762 -2.0796  0.2801  0.6130
  105OSM   H18G10762   3.157   1.578   8.676 -0.0349  1.0045 -0.7776
  105OSM   H18H10763   2.979   1.590   8.699 -0.3281 -0.5568 -0.4356
  106OSM      N10764   0.040   5.763  11.123 -0.2822 -0.6377 -0.1646
  106OSM    C1510765   0.040   5.698  10.989  0.1000  0.9061 -0.2080
  106OSM   H15A10766  -0.010   5.768  10.923  0.7573  0.5342 -1.1206
  106OSM   H15B10767   0.006   5.595  10.989  0.6605  0.7157 -0.6591
  106OSM   H15C10768   0.140   5.698  10.947 -0.4768 -1.0242 -1.7556
  106OSM    C1410769  -0.099   5.762  11.177  0.0557  0.6809 -0.1925
  106OSM   H14A10770  -0.110   5.810  11.273  0.8404 -3.1709  2.0479
  106OSM   H14B10771  -0.133   5.660  11.193  0.2867  0.6848  0.3318
  106OSM   H14C10772  -0.168   5.813  11.111 -1.8971 -1.0007  0.4248
  106OSM    C1310773   0.121   5.690  11.225  0.1300 -0.2959  0.1578
  106OSM   H13A10774   0.107   5.583  11.226  0.3200 -0.3266 -0.1918
  106OSM   H13B10775   0.101   5.729  11.324 -3.2072 -2.0462  0.2843
  106OSM   H13C10776   0.228   5.697  11.206  0.5155 -0.2284  2.1059
  106OSM    C1210777   0.098   5.905  11.096 -0.7531 -0.0509 -0.2362
  106OSM   H12A10778   0.202   5.909  11.067 -0.4087  2.8379  1.1541
  106OSM   H12B10779   0.083   5.955  11.190  1.9498 -1.3687  0.9869
  106OSM    C1110780   0.026   5.986  10.984 -0.3243  0.9286  0.5812
  106OSM   H11A10781   0.039   5.957  10.878 -2.6455  2.7173 -0.2644
  106OSM   H11B10782   0.071   6.087  10.986 -0.4318  0.9673  1.2892
  106OSM      P10783  -0.215   6.061  10.923 -0.2432  0.0614  0.3059
  106OSM    O1310784  -0.352   6.035  10.963  0.4749  0.5117 -0.0339
  106OSM    O1410785  -0.177   6.201  10.911  0.5097  0.3231 -0.1015
  106OSM    O1110786  -0.180   5.979  10.800  0.1422 -0.3366  1.0936
  106OSM    O1210787  -0.112   6.000  11.019  0.6991 -0.0128 -0.0781
  106OSM    C1S10788  -0.283   5.946  10.704  0.4510  0.3628  0.0501
  106OSM    H1S10789  -0.371   6.014  10.708  1.8262  2.2812 -0.6226
  106OSM    H1T10790  -0.307   5.839  10.719  3.8253 -0.5733 -0.3236
  106OSM     NF10791  -0.346   5.936  10.469  0.1723 -0.3098 -0.2558
  106OSM    HNF10792  -0.387   5.849  10.443 -0.9617  0.7847 -2.4278
  106OSM    C2S10793  -0.231   5.945  10.559 -0.5644  0.4150  0.1281
  106OSM    H2S10794  -0.174   6.040  10.551 -3.5006  2.2015 -1.0491
  106OSM    C3S10795  -0.127   5.825  10.555 -0.1377  0.2775  0.3332
  106OSM    H3S10796  -0.168   5.729  10.591  0.2105  0.0323  0.0806
  106OSM     O310797  -0.010   5.855  10.633 -0.1379 -0.1603 -0.6610
  106OSM    HO310798  -0.050   5.910  10.701  0.0876 -0.9423  0.1169
  106OSM    C4S10799  -0.083   5.792  10.415  0.6432 -1.2828  0.2872
  106OSM    H4S10800  -0.001   5.858  10.382  0.7722 -2.4086 -1.8040
  106OSM    C5S10801  -0.107   5.685  10.340  0.7995 -0.2695 -0.5711
  106OSM    H5S10802  -0.152   5.601  10.396 -0.0713  1.1444  0.9582
  106OSM    C6S10803  -0.044   5.647  10.210 -0.4128 -0.0402  0.0556
  106OSM    H6S10804  -0.128   5.603  10.152 -0.0427 -0.8089  0.1003
  106OSM    H6T10805   0.038   5.575  10.230  2.2335  1.5202 -3.7942
  106OSM    C7S10806   0.012   5.763  10.131 -0.3080 -0.1698 -0.7867
  106OSM    H7S10807   0.100   5.798  10.189 -0.3828  0.3523 -0.9789
  106OSM    H7T10808  -0.055   5.851  10.134 -0.1910 -0.0361 -1.8825
  106OSM    C8S10809   0.062   5.727   9.991 -0.6757 -0.2376 -0.2959
  106OSM    H8S10810   0.129   5.638   9.994  0.6633  0.7417  0.2202
  106OSM    H8T10811   0.125   5.816   9.968  0.4174 -0.0202  2.9961
  106OSM    C9S10812  -0.058   5.725   9.892  0.0970  0.3735  0.0634
  106OSM    H9S10813  -0.100   5.827   9.901 -0.7894 -0.0093  0.2983
  106OSM    H9T10814  -0.132   5.646   9.916  0.2731 -0.1970 -1.1661
  106OSM   C10S10815  -0.009   5.717   9.745 -0.3103  0.5769  0.7464
  106OSM   H10S10816   0.069   5.790   9.716  1.2636 -1.4712 -0.4576
  106OSM   H10T10817  -0.099   5.728   9.681  1.2815 -0.7373 -1.9016
  106OSM   C11S10818   0.069   5.590   9.704  0.1632 -0.3039 -0.5046
  106OSM   H11S10819   0.011   5.496   9.714  0.7455 -0.4678  1.9515
  106OSM   H11T10820   0.163   5.569   9.760 -0.6902 -1.6213  0.5020
  106OSM   C12S10821   0.101   5.599   9.552 -0.5449 -0.0202 -0.3053
  106OSM   H12S10822   0.211   5.606   9.542 -0.1120 -4.1222 -0.4481
  106OSM   H12T10823   0.049   5.687   9.510  0.0691  0.2093 -0.5940
  106OSM   C13S10824   0.050   5.471   9.485 -0.0530  0.3774 -0.3532
  106OSM   H13S10825  -0.059   5.467   9.507  0.0475  0.6901  0.2187
  106OSM   H13T10826   0.095   5.377   9.523  1.3505  0.6181 -1.3205
  106OSM   C14S10827   0.091   5.471   9.336 -0.9357  0.3141 -0.1927
  106OSM   H14S10828   0.093   5.580   9.315 -0.0229  0.9620  2.7918
  106OSM   H14T10829   0.018   5.413   9.275  1.8061 -1.5250 -1.9818
  106OSM   C15S10830   0.217   5.385   9.321 -0.0629 -0.0864  0.1268
  106OSM   H15S10831   0.198   5.282   9.358  1.8005 -0.5382 -0.0707
  106OSM   H15T10832   0.297   5.424   9.387 -0.5222  2.5503 -0.7095
  106OSM   C16S10833   0.271   5.385   9.175  0.2617  0.6234 -0.2152
  106OSM   H16S10834   0.278   5.492   9.143  3.2339 -0.0801 -2.4201
  106OSM   H16T10835   0.202   5.332   9.107 -1.6359 -0.3022  2.2949
  106OSM   C17S10836   0.411   5.319   9.158 -0.5631 -0.0141 -0.2999
  106OSM   H17S10837   0.411   5.219   9.207  2.7582  0.0330  0.0429
  106OSM   H17T10838   0.489   5.381   9.207 -0.0832 -0.2215 -0.7938
  106OSM   C18S10839   0.439   5.293   9.006  0.0197  0.9660 -0.1067
  106OSM   H18S10840   0.520   5.217   9.005 -1.8584 -1.1618  0.9972
  106OSM   H18T10841   0.472   5.381   8.948  1.6539  1.0488  0.8943
  106OSM   H18U10842   0.359   5.234   8.956  1.3701 -1.0346 -0.0018
  106OSM    C1F10843  -0.418   6.041  10.429  0.3130 -0.6562  0.1891
  106OSM     OF10844  -0.384   6.157  10.446 -0.2692 -0.1341 -0.0439
  106OSM    C2F10845  -0.557   6.009  10.372  0.4334  0.1379 -0.4253
  106OSM    H2F10846  -0.609   6.107  10.360 -1.0902 -0.3113  1.8812
  106OSM    H2G10847  -0.614   5.939  10.437  0.7217  1.3978  1.2415
  106OSM    C3F10848  -0.538   5.949  10.229 -0.2917  0.0248  0.5534
  106OSM    H3F10849  -0.641   5.930  10.192 -0.6163  1.3259  0.7355
  106OSM    H3G10850  -0.476   5.857  10.233  0.0890  0.1887 -1.0096
  106OSM    C4F10851  -0.456   6.039  10.118 -0.2613 -0.0637  0.3479
  106OSM    H4F10852  -0.382   6.098  10.175  1.2675  1.2365 -2.7438
  106OSM    H4G10853  -0.534   6.109  10.083 -0.4909 -0.6502 -0.3425
  106OSM    C5F10854  -0.395   5.950  10.011 -0.1525 -0.2642 -0.4391
  106OSM    H5F10855  -0.314   5.897  10.066  0.7473  2.3786  0.9672
  106OSM    H5G10856  -0.345   6.016   9.936  1.2044  0.4631  1.0420
  106OSM    C6F10857  -0.499   5.857   9.939  0.3103 -0.5083  0.3611
  106OSM    H6F10858  -0.582   5.922   9.903  2.1696  1.2998 -0.8710
  106OSM    H6G10859  -0.533   5.779  10.011 -0.4770 -0.4526  0.0594
  106OSM    C7F10860  -0.437   5.782   9.822 -0.3523 -0.2114 -0.7389
  106OSM    H7F10861  -0.494   5.687   9.813 -0.3750 -0.3244  0.4130
  106OSM    H7G10862  -0.336   5.741   9.842 -0.8919 -1.2353  0.0268
  106OSM    C8F10863  -0.436   5.853   9.686  0.1893 -0.4294  0.0824
  106OSM    H8F10864  -0.374   5.945   9.691  2.1542 -1.7082  0.4640
  106OSM    H8G10865  -0.542   5.875   9.663  0.3724 -0.3638 -0.7279
  106OSM    C9F10866  -0.382   5.782   9.565 -0.4973  0.0902  0.2909
  106OSM    H9F10867  -0.328   5.689   9.587  1.2470  0.7026 -1.1166
  106OSM   C10F10868  -0.403   5.809   9.432  0.1583 -0.8014  1.0112
  106OSM   H10F10869  -0.354   5.750   9.353  1.3407  0.5796  0.6722
  106OSM   C11F10870  -0.478   5.932   9.384  0.1263 -0.1493  0.2694
  106OSM   H11F10871  -0.418   6.025   9.399  1.0204 -0.7017  0.2040
  106OSM   H11G10872  -0.568   5.940   9.448  1.2524 -0.1918  1.9111
  106OSM   C12F10873  -0.531   5.914   9.241 -0.0703 -0.0500 -0.1241
  106OSM   H12F10874  -0.600   5.999   9.222 -0.2113  0.6717  3.1126
  106OSM   H12G10875  -0.592   5.823   9.218 -0.1412 -0.0074 -0.1025
  106OSM   C13F10876  -0.420   5.915   9.124 -0.0585  0.4282  0.1065
  106OSM   H13F10877  -0.354   5.827   9.133  0.1910  0.5156 -0.7400
  106OSM   H13G10878  -0.359   6.005   9.147 -0.0179  0.1507  1.1185
  106OSM   C14F10879  -0.466   5.909   8.976 -0.9607 -0.0721 -0.2019
  106OSM   H14F10880  -0.378   5.931   8.913  0.9297 -2.0554  1.5820
  106OSM   H14G10881  -0.543   5.987   8.959 -0.0612  1.0352  0.7084
  106OSM   C15F10882  -0.522   5.771   8.935  0.8933 -0.1675 -0.7222
  106OSM   H15F10883  -0.584   5.732   9.018  0.3649 -0.2481 -1.1473
  106OSM   H15G10884  -0.437   5.700   8.932  1.9783  1.0871 -0.5908
  106OSM   C16F10885  -0.592   5.779   8.800 -0.4209  0.3953  0.3518
  106OSM   H16F10886  -0.533   5.793   8.707 -1.4671  0.5614 -0.3095
  106OSM   H16G10887  -0.664   5.864   8.791  1.2978  1.8740  0.0012
  106OSM   C17F10888  -0.656   5.647   8.755 -0.6040 -0.0301 -0.0070
  106OSM   H17F10889  -0.741   5.622   8.822  0.4764  0.3408  1.5454
  106OSM   H17G10890  -0.580   5.570   8.781 -0.0171  1.4822  3.2024
  106OSM   C18F10891  -0.691   5.625   8.608 -0.5332 -0.2823 -0.0626
  106OSM   H18F10892  -0.607   5.663   8.546  0.2265 -1.2398  0.3593
  106OSM   H18G10893  -0.790   5.671   8.583 -1.1829 -2.4699 -1.8172
  106OSM   H18H10894  -0.706   5.521   8.572 -0.4561 -0.3687  0.1541
  107OSM      N10895   4.348   0.975  11.150 -0.3645  0.0422  0.4967
  107OSM    C1510896   4.234   0.912  11.234 -0.4153 -0.3593 -0.3702
  107OSM   H15A10897   4.161   0.989  11.253 -0.7651 -0.6093 -0.6842
  107OSM   H15B10898   4.264   0.863  11.325 -3.3500  0.9287  1.4253
  107OSM   H15C10899   4.191   0.836  11.170  0.2861 -1.9280  0.9587
  107OSM    C1410900   4.415   1.081  11.234  0.0692  0.7846  0.3486
  107OSM   H14A10901   4.352   1.168  11.236  0.8127  1.3324  2.4748
  107OSM   H14B10902   4.513   1.095  11.192 -0.6115  0.7558 -1.3193
  107OSM   H14C10903   4.430   1.043  11.335 -0.3466  1.6046  0.7296
  107OSM    C1310904   4.437   0.857  11.117 -0.0981  0.0298 -0.7166
  107OSM   H13A10905   4.391   0.776  11.062  1.8182  0.0002 -2.3782
  107OSM   H13B10906   4.470   0.811  11.209  1.9203  0.0796 -1.3677
  107OSM   H13C10907   4.531   0.877  11.068  1.3608 -2.0048  1.0427
  107OSM    C1210908   4.298   1.039  11.018 -0.7102 -1.0481 -0.0192
  107OSM   H12A10909   4.380   1.090  10.971 -1.0563  0.0033  0.4924
  107OSM   H12B10910   4.222   1.112  11.041  2.5378  2.4146  0.4947
  107OSM    C1110911   4.239   0.947  10.908  0.4938  0.1677 -0.4691
  107OSM   H11A10912   4.323   0.888  10.864  1.7849  0.2177  1.7305
  107OSM   H11B10913   4.203   1.020  10.832 -1.3889 -1.9821 -1.7505
  107OSM      P10914   4.070   0.744  10.872 -0.0110 -0.0378  0.0924
  107OSM    O1310915   4.162   0.634  10.923  0.0717 -0.2485  0.2530
  107OSM    O1410916   3.928   0.732  10.913  0.0319 -0.1313  0.3884
  107OSM    O1110917   4.088   0.782  10.723 -0.4699 -0.2408  0.6255
  107OSM    O1210918   4.121   0.875  10.942  0.2484 -0.4050 -0.1445
  107OSM    C1S10919   3.995   0.875  10.658 -0.0088  0.1414  0.5858
  107OSM    H1S10920   3.967   0.965  10.718  1.2401 -0.8221  2.6878
  107OSM    H1T10921   3.904   0.821  10.624  0.6039  0.3362 -1.4992
  107OSM     NF10922   3.956   0.953  10.418 -0.4252 -0.0489 -0.2066
  107OSM    HNF10923   3.967   0.902  10.333  1.5813  1.3987 -0.8788
  107OSM    C2S10924   4.056   0.941  10.523  0.5540 -0.3700 -0.1166
  107OSM    H2S10925   4.104   1.040  10.541 -0.0411  0.3364 -2.2020
  107OSM    C3S10926   4.187   0.859  10.481 -0.7674 -0.2154 -0.3823
  107OSM    H3S10927   4.156   0.753  10.467  0.5751 -0.8859  1.2597
  107OSM     O310928   4.294   0.852  10.582 -0.4324 -0.4722 -0.5519
  107OSM    HO310929   4.251   0.826  10.664  1.3772  0.4837  0.7857
  107OSM    C4S10930   4.243   0.922  10.357 -0.1577  0.0115  0.2885
  107OSM    H4S10931   4.203   0.876  10.265  0.3381 -0.4093  0.2762
  107OSM    C5S10932   4.338   1.016  10.347  0.2505 -1.0303 -0.6551
  107OSM    H5S10933   4.373   1.063  10.440 -2.1017  1.0906 -0.7369
  107OSM    C6S10934   4.385   1.078  10.223 -0.2293  0.4550 -0.4230
  107OSM    H6S10935   4.495   1.077  10.238 -0.4333  1.6724  1.4670
  107OSM    H6T10936   4.353   1.185  10.225  1.1766  0.9286  2.4924
  107OSM    C7S10937   4.337   1.019  10.084 -0.6988  0.2483 -0.4011
  107OSM    H7S10938   4.227   1.034  10.078 -0.7383  0.0880 -0.0643
  107OSM    H7T10939   4.364   0.912  10.075  0.4747  0.4679  0.3372
  107OSM    C8S10940   4.412   1.090   9.968 -0.1856 -0.6621 -0.4218
  107OSM    H8S10941   4.519   1.065   9.982 -0.5943 -1.2564  2.1394
  107OSM    H8T10942   4.399   1.200   9.979  0.3709 -0.6340 -0.0433
  107OSM    C9S10943   4.370   1.021   9.833  0.0275 -0.2910 -0.1837
  107OSM    H9S10944   4.263   1.048   9.818 -0.1679 -1.7895 -1.8879
  107OSM    H9T10945   4.377   0.911   9.849 -0.4444 -0.7614 -2.8167
  107OSM   C10S10946   4.457   1.055   9.708 -0.3051  0.3759 -0.0382
  107OSM   H10S10947   4.565   1.045   9.734 -0.8119  1.2399  2.8197
  107OSM   H10T10948   4.441   1.163   9.693  0.1385  0.4881  0.2865
  107OSM   C11S10949   4.420   0.967   9.589 -0.0265 -0.2529 -0.4084
  107OSM   H11S10950   4.461   1.016   9.498 -0.1952  1.5058  0.4254
  107OSM   H11T10951   4.312   0.975   9.562  0.1085 -0.1241 -0.9229
  107OSM   C12S10952   4.464   0.820   9.613 -0.4692 -0.3333 -0.3051
  107OSM   H12S10953   4.406   0.774   9.696 -0.6611 -1.0012 -0.8030
  107OSM   H12T10954   4.572   0.808   9.636 -0.9896 -0.8850  2.0708
  107OSM   C13S10955   4.436   0.721   9.493 -0.2559  0.4087  0.5951
  107OSM   H13S10956   4.332   0.682   9.498 -1.5745  3.0636 -2.5344
  107OSM   H13T10957   4.501   0.631   9.496 -1.9314 -0.9017 -0.4369
  107OSM   C14S10958   4.456   0.792   9.352 -0.1002 -0.8996 -0.7925
  107OSM   H14S10959   4.560   0.832   9.346 -0.4959  0.5204  0.8771
  107OSM   H14T10960   4.386   0.877   9.347  0.5154 -0.4305 -1.5882
  107OSM   C15S10961   4.416   0.697   9.239 -0.4627  0.0659 -0.4912
  107OSM   H15S10962   4.307   0.678   9.229 -0.1510 -1.5955 -1.0788
  107OSM   H15T10963   4.463   0.599   9.263  1.6423  1.3510  0.9282
  107OSM   C16S10964   4.479   0.760   9.112  0.0122  0.1732 -0.7424
  107OSM   H16S10965   4.587   0.766   9.138  0.0607 -3.1154  0.3249
  107OSM   H16T10966   4.441   0.859   9.081  0.2443  0.9884  1.4497
  107OSM   C17S10967   4.471   0.667   8.993  0.1116 -0.8103 -0.0459
  107OSM   H17S10968   4.366   0.637   8.970  0.1612 -0.5919 -0.5832
  107OSM   H17T10969   4.518   0.571   9.022 -0.1380 -1.3245 -1.2543
  107OSM   C18S10970   4.543   0.727   8.870  0.8832  0.0459 -0.0361
  107OSM   H18S10971   4.510   0.663   8.786  3.9047  0.9222 -2.0522
  107OSM   H18T10972   4.651   0.735   8.894  1.1164  0.2781 -1.1271
  107OSM   H18U10973   4.497   0.827   8.859 -3.8350 -1.9875 -1.3102
  107OSM    C1F10974   3.843   1.026  10.427  0.9078 -0.1845  0.3710
  107OSM     OF10975   3.810   1.087  10.527 -0.5007  0.4148  0.0993
  107OSM    C2F10976   3.746   1.026  10.308 -0.2234 -0.1842 -0.0373
  107OSM    H2F10977   3.699   0.926  10.296  2.3458 -1.3757 -0.9454
  107OSM    H2G10978   3.816   1.045  10.224 -0.2791 -1.0630 -0.2978
  107OSM    C3F10979   3.646   1.144  10.318 -0.0806 -0.2623  0.6570
  107OSM    H3F10980   3.708   1.236  10.327 -0.1754 -0.1850  0.5237
  107OSM    H3G10981   3.591   1.150  10.415 -3.6243  3.7754 -1.2573
  107OSM    C4F10982   3.544   1.160  10.201  0.0284  0.3505 -0.1375
  107OSM    H4F10983   3.524   1.269  10.197  2.7286  0.9018 -1.6953
  107OSM    H4G10984   3.450   1.106  10.224  2.0060 -2.0091  3.3960
  107OSM    C5F10985   3.597   1.122  10.064 -0.3532  0.2554 -0.5639
  107OSM    H5F10986   3.607   1.012  10.070  2.9377  0.5006  0.6511
  107OSM    H5G10987   3.701   1.157  10.045 -0.3445  0.3638 -0.3138
  107OSM    C6F10988   3.511   1.171   9.947 -0.3477  0.3560  0.0622
  107OSM    H6F10989   3.446   1.252   9.987  2.4093  2.9711 -0.3569
  107OSM    H6G10990   3.443   1.090   9.914  0.3131  0.2381 -1.0492
  107OSM    C7F10991   3.585   1.234   9.830  0.4665  0.1529  0.6815
  107OSM    H7F10992   3.665   1.165   9.796  0.7060  1.4927 -1.7136
  107OSM    H7G10993   3.635   1.330   9.858 -0.2930  0.3022  1.5661
  107OSM    C8F10994   3.490   1.265   9.714  0.5807  0.0284 -0.2603
  107OSM    H8F10995   3.397   1.307   9.759  2.5345  2.1952  2.0401
  107OSM    H8G10996   3.459   1.169   9.668 -0.0635  0.1411 -0.0698
  107OSM    C9F10997   3.539   1.365   9.620 -0.7887 -0.0651 -0.4896
  107OSM    H9F10998   3.583   1.452   9.671 -0.3819  0.0350 -1.0008
  107OSM   C10F10999   3.556   1.359   9.487  0.1313 -0.6162 -0.0211
  107OSM   H10F11000   3.588   1.446   9.428 -2.7227  0.0049 -0.8041
  107OSM   C11F11001   3.524   1.242   9.400  0.5368 -0.4281  0.1289
  107OSM   H11F11002   3.462   1.167   9.452 -2.2368  1.5966 -0.0246
  107OSM   H11G11003   3.616   1.182   9.386  0.7948 -0.7997  2.7649
  107OSM   C12F11004   3.431   1.279   9.278  0.0707  0.0471 -0.7049
  107OSM   H12F11005   3.468   1.367   9.222 -1.2324 -0.1751 -1.9693
  107OSM   H12G11006   3.333   1.312   9.318  0.5497  1.2872 -0.5316
  107OSM   C13F11007   3.431   1.162   9.180  0.3900 -0.5714  0.3213
  107OSM   H13F11008   3.393   1.068   9.226  1.1723  0.5802  3.6003
  107OSM   H13G11009   3.537   1.142   9.154  0.1883  0.0079 -1.0500
  107OSM   C14F11010   3.348   1.198   9.051 -0.2349 -0.0420  0.1483
  107OSM   H14F11011   3.264   1.268   9.067 -1.5754 -1.1678 -1.5839
  107OSM   H14G11012   3.304   1.109   9.002  0.2669 -0.1346 -0.1490
  107OSM   C15F11013   3.442   1.243   8.933  0.1571  0.0938  0.0291
  107OSM   H15F11014   3.503   1.155   8.904 -0.3618 -0.2892  0.1104
  107OSM   H15G11015   3.510   1.327   8.962  0.2443 -0.0209  0.1581
  107OSM   C16F11016   3.357   1.269   8.807 -0.4683 -0.0193  0.0542
  107OSM   H16F11017   3.297   1.360   8.829 -2.0293 -0.7385 -1.0370
  107OSM   H16G11018   3.290   1.181   8.797 -0.5219 -0.0159  0.3636
  107OSM   C17F11019   3.447   1.283   8.678  0.4740  0.2880  0.4661
  107OSM   H17F11020   3.383   1.261   8.591  1.7457  3.3441 -1.4274
  107OSM   H17G11021   3.533   1.213   8.684 -2.4202 -3.4863  1.6732
  107OSM   C18F11022   3.496   1.423   8.650 -0.5005  0.6154 -0.4319
  107OSM   H18F11023   3.551   1.465   8.737  1.7900  1.3636 -2.1400
  107OSM   H18G11024   3.424   1.496   8.607 -3.2812 -0.4417  2.0910
  107OSM   H18H11025   3.579   1.417   8.576  0.0456 -1.6879  0.2707
  108OSM      N11026   1.386   2.184  11.188  0.0172 -0.3279 -0.0449
  108OSM    C1511027   1.365   2.299  11.274 -0.1062  0.1373 -0.1712
  108OSM   H15A11028   1.460   2.329  11.316  0.8239 -0.9469 -1.4096
  108OSM   H15B11029   1.299   2.281  11.358 -1.6121  1.0786 -1.1305
  108OSM   H15C11030   1.320   2.381  11.221 -2.2327 -0.4139  0.6717
  108OSM    C1411031   1.476   2.230  11.075  0.1652 -0.6260  0.1674
  108OSM   H14A11032   1.441   2.172  10.990 -0.0278  0.3650 -0.4463
  108OSM   H14B11033   1.583   2.217  11.088  0.4960 -1.2540 -2.5165
  108OSM   H14C11034   1.449   2.325  11.032 -0.5575 -0.0368  1.8710
  108OSM    C1311035   1.459   2.070  11.259 -0.5170  0.1496 -0.4969
  108OSM   H13A11036   1.556   2.092  11.302 -0.8818  0.2685  0.2699
  108OSM   H13B11037   1.476   1.993  11.186  0.7371 -0.0513 -0.0192
  108OSM   H13C11038   1.404   2.022  11.338 -0.5158 -1.3789 -1.3983
  108OSM    C1211039   1.255   2.126  11.134 -0.1802 -0.2852  0.8348
  108OSM   H12A11040   1.206   2.206  11.081 -0.6713 -1.4654 -0.5727
  108OSM   H12B11041   1.186   2.113  11.216 -1.5095 -0.1331 -0.2189
  108OSM    C1111042   1.263   2.011  11.038  0.3643  0.8411 -0.5872
  108OSM   H11A11043   1.155   1.990  11.026  0.0485  1.8645  0.3020
  108OSM   H11B11044   1.312   1.935  11.102 -0.4050  0.7486 -0.0904
  108OSM      P11045   1.423   1.931  10.841 -0.3085  0.2794 -0.6478
  108OSM    O1311046   1.446   1.970  10.696 -0.3546  0.0651 -0.6669
  108OSM    O1411047   1.538   1.893  10.924 -0.0460  0.1413  0.4186
  108OSM    O1111048   1.336   1.801  10.844  0.0443  0.2340  0.2901
  108OSM    O1211049   1.333   2.042  10.917 -0.6663  0.5118 -0.0334
  108OSM    C1S11050   1.203   1.809  10.777 -0.1188 -0.3738  0.1775
  108OSM    H1S11051   1.150   1.905  10.795  0.9746  0.3598 -0.3401
  108OSM    H1T11052   1.138   1.733  10.825 -0.1961  2.1492  4.5741
  108OSM     NF11053   1.098   1.835  10.553 -0.2096  0.0388 -0.6428
  108OSM    HNF11054   1.035   1.769  10.514  1.9004 -0.0741 -4.3388
  108OSM    C2S11055   1.210   1.773  10.620  0.0780 -0.4546 -0.6096
  108OSM    H2S11056   1.302   1.821  10.581  0.5712  0.2743  1.3473
  108OSM    C3S11057   1.226   1.619  10.609 -0.5589 -0.4765 -0.1843
  108OSM    H3S11058   1.142   1.567  10.661  1.0485 -2.4068  0.5939
  108OSM     O311059   1.345   1.578  10.674  0.4917 -0.2231  0.0212
  108OSM    HO311060   1.368   1.655  10.727 -1.7610  0.3198  0.3032
  108OSM    C4S11061   1.226   1.582  10.463 -0.6105 -0.4913 -0.6946
  108OSM    H4S11062   1.324   1.605  10.418  0.0829 -0.4621  0.7755
  108OSM    C5S11063   1.128   1.507  10.396 -0.2382  0.0834 -0.2690
  108OSM    H5S11064   1.044   1.463  10.452  1.0209 -2.1660  0.0045
  108OSM    C6S11065   1.149   1.477  10.254  1.0870 -0.2193 -0.1640
  108OSM    H6S11066   1.065   1.529  10.203  0.6443 -0.1574  0.6077
  108OSM    H6T11067   1.134   1.368  10.239  0.1282 -0.1419  0.1814
  108OSM    C7S11068   1.267   1.530  10.176 -0.1710  0.5375 -0.7931
  108OSM    H7S11069   1.360   1.471  10.193 -0.3048  0.6485  0.3806
  108OSM    H7T11070   1.287   1.630  10.220 -0.6916  0.3730 -0.1649
  108OSM    C8S11071   1.237   1.551  10.029 -0.2497 -0.1689 -0.2209
  108OSM    H8S11072   1.331   1.593   9.988  0.1843 -0.2569  0.6538
  108OSM    H8T11073   1.153   1.622  10.023  0.1938  0.2942 -1.0705
  108OSM    C9S11074   1.191   1.426   9.948 -0.1561 -0.4088  0.1980
  108OSM    H9S11075   1.093   1.398   9.991 -0.2756  0.1968  0.3292
  108OSM    H9T11076   1.254   1.342   9.986  0.2452 -0.7175 -1.1035
  108OSM   C10S11077   1.201   1.442   9.796 -0.0502 -0.0963 -0.8149
  108OSM   H10S11078   1.306   1.434   9.761  0.7956  1.3557  1.1933
  108OSM   H10T11079   1.176   1.546   9.766  2.1199  1.0382  0.9817
  108OSM   C11S11080   1.119   1.341   9.717  0.6287  0.1453 -0.5574
  108OSM   H11S11081   1.011   1.344   9.744  0.5535 -0.4193 -0.7821
  108OSM   H11T11082   1.155   1.244   9.756  0.6951 -0.0553 -1.1104
  108OSM   C12S11083   1.121   1.349   9.567 -0.5957 -0.2156  0.3975
  108OSM   H12S11084   1.209   1.299   9.520 -0.8053  0.5892 -0.9139
  108OSM   H12T11085   1.139   1.455   9.537  0.6673 -0.8777 -1.3942
  108OSM   C13S11086   1.001   1.303   9.493 -0.0620 -0.4379  0.7540
  108OSM   H13S11087   0.957   1.221   9.553 -2.4778 -0.0218 -0.3329
  108OSM   H13T11088   1.026   1.267   9.391  0.4241 -1.5315  1.2436
  108OSM   C14S11089   0.888   1.413   9.474  0.6397 -0.3044  0.0186
  108OSM   H14S11090   0.919   1.492   9.402 -1.3768  0.4292 -0.1087
  108OSM   H14T11091   0.875   1.476   9.565 -3.3096 -0.8169 -0.0226
  108OSM   C15S11092   0.747   1.356   9.431 -1.0910 -0.3524  0.2828
  108OSM   H15S11093   0.667   1.433   9.425  0.1331  0.8785 -0.8641
  108OSM   H15T11094   0.714   1.287   9.512  0.0785 -2.5536 -1.0057
  108OSM   C16S11095   0.743   1.269   9.302 -0.3009  0.5706  0.0363
  108OSM   H16S11096   0.796   1.174   9.326 -0.8007  0.4822  0.8108
  108OSM   H16T11097   0.805   1.314   9.222  0.3485  0.8025  0.6632
  108OSM   C17S11098   0.609   1.239   9.245 -0.2014 -0.1435 -1.1067
  108OSM   H17S11099   0.615   1.162   9.165 -1.8830 -1.6225  0.0905
  108OSM   H17T11100   0.561   1.321   9.188  0.3334 -2.3706 -5.0689
  108OSM   C18S11101   0.506   1.174   9.348  0.1867  0.0151 -0.1896
  108OSM   H18S11102   0.401   1.163   9.314  0.0438 -0.2463  0.3215
  108OSM   H18T11103   0.492   1.246   9.431 -2.1071 -0.8630  0.2714
  108OSM   H18U11104   0.532   1.077   9.396 -2.0006 -1.2130 -1.2988
  108OSM    C1F11105   1.079   1.965  10.541 -0.1747 -1.1996 -0.3405
  108OSM     OF11106   1.146   2.053  10.600  0.0815  0.1831  0.0350
  108OSM    C2F11107   0.971   2.008  10.444 -0.1018 -0.3698  0.4098
  108OSM    H2F11108   0.892   2.066  10.496 -2.3756  0.1382 -3.2406
  108OSM    H2G11109   0.923   1.913  10.412 -0.2389 -0.0827 -0.2534
  108OSM    C3F11110   1.033   2.060  10.313 -0.1074 -0.4767 -0.2018
  108OSM    H3F11111   1.111   2.139  10.327  0.9298 -1.2037 -1.6228
  108OSM    H3G11112   0.950   2.111  10.260 -0.6188  1.1454  2.0054
  108OSM    C4F11113   1.078   1.949  10.220 -0.4820  0.1170 -0.2698
  108OSM    H4F11114   0.991   1.882  10.202  0.3052 -0.8910 -0.4592
  108OSM    H4G11115   1.163   1.894  10.265 -2.8310 -0.9121  3.3743
  108OSM    C5F11116   1.110   1.997  10.081 -0.6375  0.4908  0.5496
  108OSM    H5F11117   1.185   2.078  10.075 -0.9353  0.6965 -0.8272
  108OSM    H5G11118   1.017   2.045  10.045  1.3645  3.5781 -0.9293
  108OSM    C6F11119   1.156   1.886   9.983 -0.2884  0.7257 -0.0783
  108OSM    H6F11120   1.074   1.811   9.972 -1.8605  2.3102  0.3368
  108OSM    H6G11121   1.247   1.846  10.033 -0.2751  1.2554  0.3265
  108OSM    C7F11122   1.205   1.942   9.845  0.1876 -0.1758  0.2858
  108OSM    H7F11123   1.281   2.020   9.867  0.0224  1.5376 -4.2157
  108OSM    H7G11124   1.124   2.000   9.796 -0.0582 -1.1897 -0.5523
  108OSM    C8F11125   1.276   1.835   9.757 -0.0955 -0.0534  0.7549
  108OSM    H8F11126   1.204   1.751   9.745  1.6187 -1.4520 -0.2020
  108OSM    H8G11127   1.367   1.795   9.807 -0.8503 -0.4688  1.8310
  108OSM    C9F11128   1.323   1.893   9.621 -0.2306  0.4218 -0.5153
  108OSM    H9F11129   1.386   1.982   9.637  0.8291 -0.4813  0.5175
  108OSM   C10F11130   1.295   1.844   9.500  0.1370  0.9251  0.2686
  108OSM   H10F11131   1.337   1.884   9.406  0.2981  0.0242 -0.0537
  108OSM   C11F11132   1.209   1.722   9.475 -0.0192 -0.3299 -0.3384
  108OSM   H11F11133   1.108   1.755   9.506  0.9527  0.4299  2.3186
  108OSM   H11G11134   1.232   1.629   9.532 -1.0343 -0.7164 -0.5372
  108OSM   C12F11135   1.203   1.671   9.333  0.0976  0.2394  0.0849
  108OSM   H12F11136   1.131   1.586   9.324  1.3885 -1.2390  2.5551
  108OSM   H12G11137   1.303   1.636   9.299  0.6588  0.6631  1.2607
  108OSM   C13F11138   1.151   1.777   9.231  0.3841  0.0892  0.0950
  108OSM   H13F11139   1.234   1.848   9.211  0.4055  0.7873  2.4093
  108OSM   H13G11140   1.078   1.840   9.286  1.9842  0.9514  1.2943
  108OSM   C14F11141   1.074   1.721   9.108 -0.3848 -0.1231 -0.8440
  108OSM   H14F11142   0.986   1.654   9.120  0.4524 -1.3199 -1.1001
  108OSM   H14G11143   1.152   1.662   9.055  1.6126  0.4921  1.2225
  108OSM   C15F11144   1.039   1.835   9.014 -0.9085  0.1000  0.2338
  108OSM   H15F11145   1.127   1.899   8.995  0.0027 -1.5717 -1.4066
  108OSM   H15G11146   0.971   1.909   9.062  0.0496  0.5539  0.9242
  108OSM   C16F11147   0.985   1.802   8.875  0.1828 -0.4002  0.0765
  108OSM   H16F11148   0.885   1.755   8.886  0.0956 -0.5538 -1.2755
  108OSM   H16G11149   1.058   1.736   8.823 -0.3095  0.6473 -2.0618
  108OSM   C17F11150   0.974   1.924   8.786 -0.2125  0.4664 -0.6779
  108OSM   H17F11151   1.066   1.987   8.787  0.2371 -0.0571  2.9368
  108OSM   H17G11152   0.898   1.990   8.832  0.4636 -1.5291  3.8288
  108OSM   C18F11153   0.938   1.879   8.648  0.8161 -0.0557  0.6002
  108OSM   H18F11154   0.876   1.956   8.596  0.4405 -0.3420  0.6176
  108OSM   H18G11155   0.870   1.791   8.642 -0.3908  0.9234 -2.5917
  108OSM   H18H11156   1.024   1.845   8.587 -1.5131 -3.2501 -1.2327
  109OSM      N11157   5.166   6.356  10.918  0.0648 -0.7727 -0.3432
  109OSM    C1511158   5.277   6.275  10.971  0.3454 -1.2340 -0.1378
  109OSM   H15A11159   5.362   6.285  10.905 -0.8007  0.0867 -1.4822
  109OSM   H15B11160   5.242   6.173  10.980 -0.6893 -0.7998  1.0731
  109OSM   H15C11161   5.322   6.314  11.062 -1.4342  1.9301 -0.4831
  109OSM    C1411162   5.064   6.352  11.030 -0.0373 -0.2702  0.0281
  109OSM   H14A11163   5.038   6.249  11.049 -0.0496 -0.1922  0.4298
  109OSM   H14B11164   4.979   6.411  10.998  0.9956  0.1378 -2.1638
  109OSM   H14C11165   5.101   6.389  11.124  1.2992  0.8249 -0.8855
  109OSM    C1311166   5.206   6.498  10.906 -0.5650 -0.3536 -0.0582
  109OSM   H13A11167   5.118   6.558  10.887 -0.0871  0.4776  0.2688
  109OSM   H13B11168   5.269   6.505  10.819 -1.1987  2.2470 -0.4087
  109OSM   H13C11169   5.266   6.545  10.983  1.6661  1.7537 -2.8871
  109OSM    C1211170   5.102   6.301  10.795 -0.4511 -1.3767  0.3333
  109OSM   H12A11171   5.162   6.331  10.711 -1.2830 -1.4215 -0.2877
  109OSM   H12B11172   5.012   6.360  10.786 -0.3639 -1.3533 -0.4668
  109OSM    C1111173   5.069   6.156  10.789  0.6618  0.0755 -0.3452
  109OSM   H11A11174   5.157   6.090  10.806 -0.1831 -0.7486  1.0614
  109OSM   H11B11175   5.032   6.126  10.689 -0.7089 -0.6679  0.3595
  109OSM      P11176   4.824   6.172  10.869  0.0218  0.0363  0.4422
  109OSM    O1311177   4.744   6.124  10.977  0.5912  0.2358 -0.2055
  109OSM    O1411178   4.810   6.319  10.861  0.2942 -0.2190 -0.4333
  109OSM    O1111179   4.789   6.108  10.734  1.5055 -0.2305 -0.0312
  109OSM    O1211180   4.970   6.120  10.885 -0.1924  0.0219 -0.3839
  109OSM    C1S11181   4.732   5.979  10.717 -0.4280 -0.8102  0.1537
  109OSM    H1S11182   4.654   5.950  10.790 -1.1000  0.0786 -0.2009
  109OSM    H1T11183   4.813   5.905  10.738 -0.0625 -0.6999 -0.7957
  109OSM     NF11184   4.687   5.799  10.547 -0.1008 -0.2467  0.0828
  109OSM    HNF11185   4.765   5.763  10.497 -1.1215 -3.3138  0.5169
  109OSM    C2S11186   4.688   5.945  10.568 -0.5586  0.6065 -0.2785
  109OSM    H2S11187   4.584   5.982  10.572 -1.2974 -1.4366  1.1945
  109OSM    C3S11188   4.773   6.023  10.463  0.3537  0.5079 -0.1263
  109OSM    H3S11189   4.877   5.987  10.450  0.6101  1.5910 -1.3234
  109OSM     O311190   4.787   6.166  10.489  0.0679  0.2351  0.2649
  109OSM    HO311191   4.766   6.165  10.582  3.4812 -0.8667  1.1701
  109OSM    C4S11192   4.707   6.011  10.327 -0.6183 -0.4620  0.3497
  109OSM    H4S11193   4.615   6.069  10.311 -1.1532 -1.0747  1.1309
  109OSM    C5S11194   4.746   5.942  10.218  0.3934  0.4224  0.0463
  109OSM    H5S11195   4.841   5.887  10.226  0.2429  0.4755  3.2686
  109OSM    C6S11196   4.667   5.943  10.092  0.8560 -0.2775 -0.3777
  109OSM    H6S11197   4.576   6.006  10.098  0.6532 -0.6815  1.3806
  109OSM    H6T11198   4.620   5.842  10.080 -1.3613  0.3188  2.2450
  109OSM    C7S11199   4.739   5.974   9.957  0.5888  0.2245  0.0704
  109OSM    H7S11200   4.804   5.886   9.937 -0.0817 -0.1857 -0.3635
  109OSM    H7T11201   4.788   6.073   9.967  1.9890 -0.5667  1.4329
  109OSM    C8S11202   4.655   5.972   9.829 -0.2123 -0.2926 -0.0530
  109OSM    H8S11203   4.592   6.061   9.806 -1.9796 -1.8734 -1.6777
  109OSM    H8T11204   4.573   5.899   9.850  0.1596 -0.8906 -0.6606
  109OSM    C9S11205   4.732   5.947   9.703 -0.4129  0.2085  0.4709
  109OSM    H9S11206   4.811   5.872   9.726 -0.0247  0.4314 -0.1147
  109OSM    H9T11207   4.787   6.041   9.682 -1.7509  1.3485  1.8135
  109OSM   C10S11208   4.639   5.913   9.586 -0.7262 -0.3687  0.6850
  109OSM   H10S11209   4.569   5.998   9.579  1.2653  1.3186  0.0461
  109OSM   H10T11210   4.591   5.814   9.602  0.6573 -1.7598 -2.7247
  109OSM   C11S11211   4.708   5.920   9.450 -0.2065 -0.2092 -0.7962
  109OSM   H11S11212   4.785   5.844   9.425 -0.1909 -0.1137 -1.0429
  109OSM   H11T11213   4.764   6.016   9.456 -2.1990  0.9354  0.9192
  109OSM   C12S11214   4.613   5.924   9.331 -0.2027  0.3962  0.8399
  109OSM   H12S11215   4.532   5.997   9.351 -1.2899 -0.5820  0.1932
  109OSM   H12T11216   4.561   5.827   9.316 -0.6814  0.8461 -0.5858
  109OSM   C13S11217   4.690   5.964   9.206 -0.1307 -0.0920 -0.1400
  109OSM   H13S11218   4.777   5.902   9.178 -0.3419  0.1727 -1.4202
  109OSM   H13T11219   4.731   6.064   9.229  1.9874 -1.0800  0.6591
  109OSM   C14S11220   4.592   5.967   9.090 -0.6522 -0.7008  0.2848
  109OSM   H14S11221   4.491   6.008   9.109 -0.8807 -2.0317  2.2900
  109OSM   H14T11222   4.573   5.861   9.064  0.3599 -1.0534  0.9150
  109OSM   C15S11223   4.645   6.053   8.980  0.0678 -0.0001  0.0945
  109OSM   H15S11224   4.755   6.051   8.968  0.3942 -0.2805  2.5920
  109OSM   H15T11225   4.628   6.159   9.008  0.0459 -0.1157  0.5219
  109OSM   C16S11226   4.566   6.027   8.853  0.3173 -0.0600  0.1583
  109OSM   H16S11227   4.465   6.066   8.877  0.7421  1.0284  0.2626
  109OSM   H16T11228   4.571   5.922   8.818  3.5332 -0.7927  2.2994
  109OSM   C17S11229   4.631   6.108   8.745 -0.7769 -0.0608 -0.1240
  109OSM   H17S11230   4.739   6.079   8.748 -1.2389 -2.0186 -0.7865
  109OSM   H17T11231   4.632   6.217   8.764 -1.2496  0.0606 -0.7838
  109OSM   C18S11232   4.572   6.096   8.596 -0.6007  0.0448 -0.6127
  109OSM   H18S11233   4.556   5.986   8.588  1.1570 -0.3712  0.9502
  109OSM   H18T11234   4.648   6.133   8.523 -0.1425 -0.5439 -0.4434
  109OSM   H18U11235   4.481   6.159   8.589  0.6408  2.1510  0.9855
  109OSM    C1F11236   4.583   5.727  10.590 -0.2608 -0.3829 -0.6908
  109OSM     OF11237   4.503   5.779  10.670 -0.2932  0.5638 -0.5780
  109OSM    C2F11238   4.566   5.582  10.551  0.7262 -0.1123  1.0178
  109OSM    H2F11239   4.586   5.520  10.641 -0.0816 -1.1128  0.5262
  109OSM    H2G11240   4.640   5.555  10.473  0.2610  0.1112  0.4958
  109OSM    C3F11241   4.424   5.564  10.485  0.1464 -0.2870  0.2531
  109OSM    H3F11242   4.354   5.608  10.560  0.0651  0.7719 -0.4177
  109OSM    H3G11243   4.409   5.456  10.465 -1.0273 -0.1483  0.2896
  109OSM    C4F11244   4.406   5.628  10.340  0.4454  0.6350 -0.0032
  109OSM    H4F11245   4.463   5.722  10.344  1.3365  0.1471 -0.7833
  109OSM    H4G11246   4.300   5.643  10.310 -0.1555 -0.6578  1.3306
  109OSM    C5F11247   4.458   5.519  10.237  0.3023 -0.7956 -0.9877
  109OSM    H5F11248   4.390   5.432  10.247 -1.1885  0.3645 -0.7199
  109OSM    H5G11249   4.564   5.494  10.259  1.4437  1.0798 -3.7988
  109OSM    C6F11250   4.443   5.568  10.096 -0.0141  0.0043  0.0389
  109OSM    H6F11251   4.511   5.654  10.080  0.6302 -0.1333  1.8000
  109OSM    H6G11252   4.337   5.600  10.095  0.4928  1.7248 -1.2232
  109OSM    C7F11253   4.462   5.463   9.987  0.6947 -0.1809  1.1416
  109OSM    H7F11254   4.383   5.385   9.988  0.2363  0.1512 -1.4455
  109OSM    H7G11255   4.561   5.415  10.004  2.7150  2.7285 -1.2469
  109OSM    C8F11256   4.465   5.523   9.849 -0.1365 -0.0339 -0.0830
  109OSM    H8F11257   4.557   5.586   9.853 -0.3303  0.2626 -0.2727
  109OSM    H8G11258   4.377   5.587   9.828 -1.0040 -1.3849 -0.7439
  109OSM    C9F11259   4.478   5.419   9.738  0.1001 -0.7509  0.4255
  109OSM    H9F11260   4.579   5.379   9.721  1.3779  1.3877  2.4107
  109OSM   C10F11261   4.377   5.374   9.658  0.2560  0.0881 -0.4076
  109OSM   H10F11262   4.389   5.295   9.584 -1.0228 -1.3264  0.8353
  109OSM   C11F11263   4.225   5.413   9.661 -0.5846  0.0552 -0.0160
  109OSM   H11F11264   4.211   5.520   9.688 -1.3782 -1.0461  4.7727
  109OSM   H11G11265   4.176   5.342   9.731 -1.1404 -1.1003 -1.5302
  109OSM   C12F11266   4.162   5.383   9.521 -0.8037 -0.4176 -0.1229
  109OSM   H12F11267   4.060   5.427   9.523 -1.5963 -2.2085  1.6386
  109OSM   H12G11268   4.140   5.275   9.511 -1.7517 -0.2076 -0.3811
  109OSM   C13F11269   4.232   5.437   9.395  0.7818  0.2677 -0.2856
  109OSM   H13F11270   4.321   5.370   9.387 -0.3403 -1.1204 -1.8399
  109OSM   H13G11271   4.260   5.542   9.415  0.3671  0.0865  1.4138
  109OSM   C14F11272   4.146   5.425   9.276 -0.0370  0.8929  0.1118
  109OSM   H14F11273   4.083   5.516   9.276 -1.9742 -0.3591  1.3035
  109OSM   H14G11274   4.082   5.335   9.286 -0.3544  1.1452  0.3764
  109OSM   C15F11275   4.222   5.433   9.144  0.4467  0.0483  0.0030
  109OSM   H15F11276   4.290   5.346   9.135 -2.3434 -2.1585 -1.6069
  109OSM   H15G11277   4.268   5.533   9.130  0.3761  0.1731  0.6641
  109OSM   C16F11278   4.113   5.426   9.035  0.4113 -0.3760  0.3702
  109OSM   H16F11279   4.062   5.524   9.032  1.7774  0.3359 -0.8406
  109OSM   H16G11280   4.046   5.340   9.056 -1.9824  1.5120  0.8939
  109OSM   C17F11281   4.162   5.383   8.896  1.0315 -0.3575 -0.5744
  109OSM   H17F11282   4.220   5.289   8.910  0.8338 -0.4371 -0.2747
  109OSM   H17G11283   4.236   5.457   8.858 -0.9874  1.7105 -0.6492
  109OSM   C18F11284   4.037   5.378   8.807 -0.0933  0.1324  0.5497
  109OSM   H18F11285   4.065   5.339   8.707  2.1932  0.5427  0.9743
  109OSM   H18G11286   4.008   5.483   8.782  2.1219  1.0868  1.6993
  109OSM   H18H11287   3.944   5.335   8.850  0.0597  1.7860  2.7161
  110OSM      N11288   6.736   0.212  11.271 -0.3288  0.3691 -0.4666
  110OSM    C1511289   6.667   0.175  11.398 -0.5073  0.6094 -0.6024
  110OSM   H15A11290   6.737   0.167  11.480 -0.3858  0.8357 -0.6824
  110OSM   H15B11291   6.632   0.073  11.387  1.8980 -0.3187 -0.4423
  110OSM   H15C11292   6.574   0.227  11.412 -0.2544  0.8778  0.1401
  110OSM    C1411293   6.805   0.345  11.300  0.2534 -0.2371  0.1315
  110OSM   H14A11294   6.874   0.332  11.382 -0.6628  2.9282  1.5782
  110OSM   H14B11295   6.740   0.423  11.339  2.5961 -0.1373  4.4124
  110OSM   H14C11296   6.852   0.380  11.209 -0.6076 -2.0879 -1.0835
  110OSM    C1311297   6.842   0.117  11.230 -0.3513 -0.1284  0.3721
  110OSM   H13A11298   6.917   0.110  11.306  0.5510 -2.0399 -0.6239
  110OSM   H13B11299   6.881   0.149  11.134 -1.7992 -0.7121 -0.4574
  110OSM   H13C11300   6.804   0.016  11.216  1.0709 -0.4669 -1.5602
  110OSM    C1211301   6.636   0.231  11.164  0.1387 -0.3565  0.5237
  110OSM   H12A11302   6.557   0.296  11.199 -1.4128 -1.4838 -0.7226
  110OSM   H12B11303   6.584   0.136  11.160 -2.0228  0.7742  0.0741
  110OSM    C1111304   6.688   0.271  11.021 -0.4834 -0.1378  0.0031
  110OSM   H11A11305   6.602   0.319  10.969 -0.1745 -1.8070 -2.1912
  110OSM   H11B11306   6.714   0.185  10.956  2.9285  0.6443  0.1665
  110OSM      P11307   6.908   0.359  10.922  0.1038 -0.1755  0.5182
  110OSM    O1311308   6.994   0.477  10.934  0.9160  0.1084  0.2248
  110OSM    O1411309   6.975   0.229  10.956  1.0706  0.4390  0.2252
  110OSM    O1111310   6.825   0.344  10.786 -0.3051 -0.2348  0.3602
  110OSM    O1211311   6.791   0.371  11.030 -0.3365  0.3017  0.1873
  110OSM    C1S11312   6.745   0.451  10.735  0.2967  0.1749  0.3985
  110OSM    H1S11313   6.786   0.553  10.750 -2.3902  1.1590  1.6159
  110OSM    H1T11314   6.639   0.454  10.768 -1.6680 -0.5104 -4.9449
  110OSM     NF11315   6.697   0.576  10.522  0.1761 -0.2572  0.1924
  110OSM    HNF11316   6.600   0.594  10.506  0.8186  2.9016 -0.8532
  110OSM    C2S11317   6.732   0.438  10.580  0.5729 -0.5241 -0.0231
  110OSM    H2S11318   6.826   0.401  10.535 -0.3942 -3.2255  0.0076
  110OSM    C3S11319   6.622   0.321  10.555 -1.0729 -0.4705  0.1593
  110OSM    H3S11320   6.531   0.384  10.553 -0.5910  0.2317 -0.6467
  110OSM     O311321   6.616   0.213  10.648  0.2483 -0.0376  0.1243
  110OSM    HO311322   6.695   0.215  10.703  0.7426 -0.9689 -0.5217
  110OSM    C4S11323   6.634   0.273  10.407  0.2590  0.4339  0.0737
  110OSM    H4S11324   6.632   0.355  10.334 -1.2587 -0.5446 -1.0447
  110OSM    C5S11325   6.659   0.152  10.350  0.4387 -0.2540  0.1885
  110OSM    H5S11326   6.701   0.072  10.413  0.4620  1.3154  2.2517
  110OSM    C6S11327   6.671   0.117  10.205 -0.6777 -0.6376 -1.0913
  110OSM    H6S11328   6.668   0.006  10.200 -0.6993 -0.6405 -1.0007
  110OSM    H6T11329   6.771   0.147  10.166 -0.4089  1.4897  1.0493
  110OSM    C7S11330   6.562   0.185  10.114 -0.6507 -0.7680 -0.5881
  110OSM    H7S11331   6.565   0.293  10.140  0.0870 -1.0199  0.4535
  110OSM    H7T11332   6.459   0.160  10.147 -0.6745  4.6057  5.5197
  110OSM    C8S11333   6.593   0.169   9.965 -0.2379  0.1381 -0.1633
  110OSM    H8S11334   6.641   0.069   9.962  2.6668  1.2963  2.2632
  110OSM    H8T11335   6.657   0.248   9.922  0.3813 -0.2440  0.0488
  110OSM    C9S11336   6.468   0.175   9.879 -0.3577  0.7977 -0.1631
  110OSM    H9S11337   6.437   0.282   9.886  1.1558  1.2730 -0.1478
  110OSM    H9T11338   6.394   0.104   9.921 -1.2778  2.4630  1.1714
  110OSM   C10S11339   6.500   0.141   9.735  0.0472 -0.1072 -0.0927
  110OSM   H10S11340   6.546   0.041   9.721 -2.4594 -1.0069 -3.2734
  110OSM   H10T11341   6.573   0.215   9.695  1.0453 -0.8784  0.2501
  110OSM   C11S11342   6.370   0.153   9.650 -0.2154  0.2991 -0.5223
  110OSM   H11S11343   6.324   0.254   9.653 -3.5833 -1.0737  2.5351
  110OSM   H11T11344   6.296   0.074   9.677 -0.3527  0.3961 -0.6131
  110OSM   C12S11345   6.407   0.119   9.506  0.0215 -0.2535  0.5727
  110OSM   H12S11346   6.449   0.015   9.505 -2.0981 -1.2108  2.7313
  110OSM   H12T11347   6.476   0.192   9.458 -3.3799  2.8942  0.0212
  110OSM   C13S11348   6.280   0.125   9.416  0.2307 -0.0584 -0.5018
  110OSM   H13S11349   6.240   0.228   9.428 -1.4852 -0.8959  1.3903
  110OSM   H13T11350   6.201   0.062   9.462  2.3718 -0.6187  2.7201
  110OSM   C14S11351   6.305   0.091   9.267 -0.0953 -0.6706 -0.6442
  110OSM   H14S11352   6.357  -0.008   9.262 -0.0447 -1.0207  3.2723
  110OSM   H14T11353   6.369   0.173   9.229  0.6108 -0.8577  0.0989
  110OSM   C15S11354   6.184   0.086   9.172 -0.3475  0.0984 -0.2398
  110OSM   H15S11355   6.148   0.186   9.141 -4.2606  0.8372  5.1732
  110OSM   H15T11356   6.104   0.026   9.219 -0.1550 -0.8202 -1.0561
  110OSM   C16S11357   6.220   0.009   9.044  0.5079 -0.2316  1.0493
  110OSM   H16S11358   6.255  -0.093   9.069 -0.2211 -0.1919  2.2841
  110OSM   H16T11359   6.309   0.049   8.991  0.2293 -0.9652 -0.0232
  110OSM   C17S11360   6.101  -0.008   8.941 -0.1662  0.6816 -0.0995
  110OSM   H17S11361   6.057   0.094   8.937 -0.5270  0.5189 -0.2656
  110OSM   H17T11362   6.022  -0.073   8.986 -1.6298  1.1560 -1.8830
  110OSM   C18S11363   6.143  -0.050   8.802  0.4065 -0.0083  0.4665
  110OSM   H18S11364   6.196  -0.148   8.798  0.7072  0.0861  1.8491
  110OSM   H18T11365   6.211   0.025   8.755 -0.3365  0.1233 -0.4395
  110OSM   H18U11366   6.058  -0.048   8.730  0.4441 -1.5584  0.3372
  110OSM    C1F11367   6.788   0.670  10.511  0.0954 -0.4176 -0.4600
  110OSM     OF11368   6.902   0.659  10.558  0.2916  0.5212  0.0644
  110OSM    C2F11369   6.743   0.796  10.442  0.1281  0.1726  0.0626
  110OSM    H2F11370   6.775   0.874  10.514  3.0624 -0.8380  0.0029
  110OSM    H2G11371   6.633   0.793  10.431  0.1656  2.0893 -1.1712
  110OSM    C3F11372   6.823   0.811  10.314  0.2179 -0.4553  0.0113
  110OSM    H3F11373   6.928   0.777  10.317  0.3242 -0.2982 -1.3326
  110OSM    H3G11374   6.821   0.917  10.282 -2.6030 -0.6740 -0.7903
  110OSM    C4F11375   6.767   0.725  10.203  0.0110  0.8592 -0.0518
  110OSM    H4F11376   6.739   0.628  10.251 -1.6866  2.0514  1.5367
  110OSM    H4G11377   6.839   0.709  10.120  0.4600 -2.9879  0.8803
  110OSM    C5F11378   6.641   0.790  10.144 -0.2213  0.5002  0.4921
  110OSM    H5F11379   6.684   0.850  10.060 -0.2610 -0.3557 -0.1523
  110OSM    H5G11380   6.584   0.860  10.209  1.2967  1.6142  0.6741
  110OSM    C6F11381   6.539   0.689  10.084 -0.6496  0.6116  0.0004
  110OSM    H6F11382   6.462   0.740  10.022 -0.8709 -0.5694 -0.7460
  110OSM    H6G11383   6.490   0.638  10.169  0.1960 -1.0232 -0.4464
  110OSM    C7F11384   6.594   0.578   9.993 -0.3747 -0.0972  0.0844
  110OSM    H7F11385   6.516   0.508   9.957  0.3120  0.8244 -3.6393
  110OSM    H7G11386   6.659   0.513  10.056 -1.1676 -0.1864  0.8314
  110OSM    C8F11387   6.666   0.632   9.867 -0.5178 -0.5895 -0.1080
  110OSM    H8F11388   6.724   0.557   9.809 -1.5464 -2.1001  0.7249
  110OSM    H8G11389   6.749   0.694   9.906 -0.6019 -1.1330  0.9563
  110OSM    C9F11390   6.577   0.702   9.765 -0.2048  0.3043  0.8361
  110OSM    H9F11391   6.528   0.790   9.809  2.4735  1.6540  1.3648
  110OSM   C10F11392   6.541   0.652   9.641  0.8429  0.1926  0.0588
  110OSM   H10F11393   6.471   0.711   9.581  0.9961  1.5614  1.1701
  110OSM   C11F11394   6.583   0.525   9.591  0.1001  1.0159 -0.1199
  110OSM   H11F11395   6.530   0.440   9.639 -0.5161  1.2149 -0.4392
  110OSM   H11G11396   6.690   0.496   9.602 -0.6053 -2.1569 -0.5722
  110OSM   C12F11397   6.562   0.511   9.437 -0.1601  0.2653 -0.1908
  110OSM   H12F11398   6.605   0.413   9.406  1.4595  0.1299  2.1938
  110OSM   H12G11399   6.624   0.584   9.379 -0.1638  1.6519  1.4855
  110OSM   C13F11400   6.424   0.533   9.380  0.6345 -0.1901 -0.7748
  110OSM   H13F11401   6.391   0.635   9.411 -0.2495 -0.3667 -1.1043
  110OSM   H13G11402   6.364   0.460   9.439  0.7472 -1.2814 -1.9737
  110OSM   C14F11403   6.418   0.505   9.231 -0.1923  0.2654 -0.1439
  110OSM   H14F11404   6.449   0.400   9.208  0.0051  0.4442 -0.6963
  110OSM   H14G11405   6.500   0.559   9.181 -0.2954 -2.4736 -3.6578
  110OSM   C15F11406   6.280   0.527   9.167  0.2027 -0.2111 -0.2050
  110OSM   H15F11407   6.245   0.632   9.177 -1.3713 -0.4863 -2.2661
  110OSM   H15G11408   6.207   0.469   9.228 -0.9414  0.6010 -0.7638
  110OSM   C16F11409   6.274   0.461   9.026 -0.2461 -0.1815  0.5980
  110OSM   H16F11410   6.308   0.355   9.033 -0.9629 -0.4194  0.5564
  110OSM   H16G11411   6.352   0.504   8.960 -2.8402  1.4446 -1.6209
  110OSM   C17F11412   6.141   0.458   8.951  0.9045  0.1745 -0.4948
  110OSM   H17F11413   6.057   0.488   9.016  0.1086 -0.7579 -1.0744
  110OSM   H17G11414   6.120   0.354   8.918  0.7041 -0.3258  1.1427
  110OSM   C18F11415   6.141   0.552   8.826  0.0017  0.5176 -0.7205
  110OSM   H18F11416   6.045   0.541   8.772 -0.3927 -0.0255  0.0732
  110OSM   H18G11417   6.225   0.522   8.759  0.0529  0.3003 -0.5596
  110OSM   H18H11418   6.158   0.660   8.844 -0.5282  0.2903  1.3320
  111OSM      N11419   5.871   6.538  11.072  0.4861  0.5587 -0.5397
  111OSM    C1511420   6.010   6.563  11.121  0.9533 -0.1593  0.0522
  111OSM   H15A11421   6.065   6.476  11.086 -1.9126 -0.9041 -3.1306
  111OSM   H15B11422   6.004   6.585  11.226 -2.6208  3.1031 -0.6510
  111OSM   H15C11423   6.049   6.653  11.076  2.7352 -0.6961  0.4230
  111OSM    C1411424   5.816   6.426  11.157 -0.0363  0.1871 -0.0566
  111OSM   H14A11425   5.809   6.442  11.263  1.2284  0.1795  0.0411
  111OSM   H14B11426   5.870   6.334  11.143 -0.5883 -0.2022  0.3453
  111OSM   H14C11427   5.714   6.415  11.122 -0.7450  4.2246  0.1986
  111OSM    C1311428   5.795   6.667  11.104  0.2663  0.3697  0.5557
  111OSM   H13A11429   5.690   6.670  11.076  0.1670  1.6623  1.0147
  111OSM   H13B11430   5.834   6.744  11.041  1.5683 -1.2923 -0.7592
  111OSM   H13C11431   5.802   6.692  11.209  1.6312 -0.5641  0.7089
  111OSM    C1211432   5.863   6.500  10.929  0.0571 -0.1324  0.3188
  111OSM   H12A11433   5.769   6.454  10.905  1.2272 -2.8908  0.6093
  111OSM   H12B11434   5.937   6.423  10.915  3.8666  2.8962  1.9205
  111OSM    C1111435   5.896   6.608  10.824  0.0817  0.2619 -0.1054
  111OSM   H11A11436   5.816   6.685  10.832 -0.2092 -0.0557  0.0714
  111OSM   H11B11437   5.884   6.571  10.720  1.6321 -0.2067 -0.1386
  111OSM      P11438   6.068   6.807  10.859  0.0559 -0.4196 -0.4264
  111OSM    O1311439   6.027   6.864  10.986 -0.0681  0.2649 -0.6244
  111OSM    O1411440   6.208   6.821  10.825 -0.2239  0.0633 -0.2894
  111OSM    O1111441   5.983   6.865  10.740 -0.0448  0.1146  0.2468
  111OSM    O1211442   6.032   6.654  10.837  0.2940 -0.2910 -0.0090
  111OSM    C1S11443   6.036   6.847  10.604 -0.2693  0.5242 -0.9605
  111OSM    H1S11444   6.036   6.738  10.582  0.8250  0.0787  1.0152
  111OSM    H1T11445   6.142   6.874  10.588  0.1972  0.1800  1.2522
  111OSM     NF11446   5.980   6.874  10.369  0.0089 -0.3577  0.6230
  111OSM    HNF11447   6.043   6.934  10.320 -1.6944 -1.2623 -3.0614
  111OSM    C2S11448   5.944   6.913  10.508  0.3631 -0.6245 -0.5177
  111OSM    H2S11449   5.840   6.878  10.528  0.2549 -0.9703 -1.6323
  111OSM    C3S11450   5.948   7.067  10.535  0.5853  0.4293 -0.4922
  111OSM    H3S11451   6.052   7.105  10.530  1.2272 -1.2375 -0.6518
  111OSM     O311452   5.914   7.115  10.665 -0.4357 -0.7274  0.0800
  111OSM    HO311453   5.911   7.036  10.720  1.2749  0.9767  2.8777
  111OSM    C4S11454   5.855   7.129  10.435 -0.2740 -0.3344 -0.4502
  111OSM    H4S11455   5.898   7.119  10.334  0.0373 -1.3745 -0.2295
  111OSM    C5S11456   5.732   7.180  10.449  0.0481 -0.3061  0.7109
  111OSM    H5S11457   5.687   7.172  10.549 -0.4303 -1.3580  0.4215
  111OSM    C6S11458   5.648   7.236  10.338 -0.1060 -0.4889 -0.4322
  111OSM    H6S11459   5.641   7.346  10.356  2.7576 -0.2396 -0.3895
  111OSM    H6T11460   5.547   7.191  10.341 -0.4841  0.1559 -2.2387
  111OSM    C7S11461   5.688   7.212  10.187  0.1428 -0.5999  0.2204
  111OSM    H7S11462   5.696   7.104  10.162  0.3293 -0.4776 -0.2491
  111OSM    H7T11463   5.777   7.274  10.165 -1.8193  2.3780  0.1515
  111OSM    C8S11464   5.566   7.252  10.099 -0.1724 -0.3830 -0.2932
  111OSM    H8S11465   5.515   7.340  10.144  0.9167 -0.4721  1.2019
  111OSM    H8T11466   5.488   7.173  10.107  0.7411 -1.3499 -0.7469
  111OSM    C9S11467   5.596   7.253   9.950 -0.4963 -0.9097 -0.0030
  111OSM    H9S11468   5.648   7.159   9.922 -0.8819 -1.9763  2.5759
  111OSM    H9T11469   5.671   7.334   9.932 -2.2808  1.3730  2.0882
  111OSM   C10S11470   5.469   7.259   9.865  0.4936  0.2596 -0.1620
  111OSM   H10S11471   5.413   7.348   9.903 -2.4305 -1.8676  0.8344
  111OSM   H10T11472   5.404   7.170   9.878  0.2402  0.7134  1.9499
  111OSM   C11S11473   5.508   7.296   9.714  0.1016 -0.6250  0.2504
  111OSM   H11S11474   5.577   7.219   9.676  0.5565 -0.0265 -0.1547
  111OSM   H11T11475   5.564   7.392   9.707 -1.7307  0.3790 -1.9269
  111OSM   C12S11476   5.382   7.304   9.631  0.1198  0.2590  0.5128
  111OSM   H12S11477   5.298   7.362   9.676  0.2405  0.9165 -0.0787
  111OSM   H12T11478   5.331   7.207   9.622  1.6519 -0.4692 -0.8577
  111OSM   C13S11479   5.411   7.348   9.484 -0.0455  0.5844  0.0924
  111OSM   H13S11480   5.462   7.256   9.450 -0.7517 -0.3160  1.3910
  111OSM   H13T11481   5.462   7.446   9.476 -0.1180  0.4722 -3.8806
  111OSM   C14S11482   5.279   7.367   9.400  0.0826 -0.3225  0.1552
  111OSM   H14S11483   5.199   7.421   9.454  0.3516  1.4529 -1.0977
  111OSM   H14T11484   5.245   7.269   9.360  1.7588 -1.1495  0.6212
  111OSM   C15S11485   5.316   7.454   9.282 -0.0355  0.5599  0.8597
  111OSM   H15S11486   5.357   7.554   9.306 -0.3721  1.4805 -2.0036
  111OSM   H15T11487   5.218   7.474   9.234  1.4668 -0.1958 -2.8807
  111OSM   C16S11488   5.416   7.387   9.183  0.2801  0.3952  0.3318
  111OSM   H16S11489   5.384   7.280   9.182  0.3643  0.3525  1.1860
  111OSM   H16T11490   5.516   7.376   9.231  0.4803 -0.3893 -0.2577
  111OSM   C17S11491   5.425   7.447   9.043  0.2973 -0.3674  0.5283
  111OSM   H17S11492   5.486   7.389   8.971 -2.1880  2.3425 -4.2339
  111OSM   H17T11493   5.463   7.551   9.047 -0.1888 -0.1988  1.0348
  111OSM   C18S11494   5.283   7.443   8.979  0.7937  0.0480 -0.8956
  111OSM   H18S11495   5.299   7.431   8.870 -1.0922 -1.1882 -1.0739
  111OSM   H18T11496   5.231   7.541   8.991  0.2950 -0.4016  0.8695
  111OSM   H18U11497   5.215   7.362   9.009 -0.8570  1.1917 -1.4284
  111OSM    C1F11498   5.942   6.752  10.319 -0.0081  0.5901  0.4998
  111OSM     OF11499   5.888   6.667  10.392  0.1402 -0.4538  0.2859
  111OSM    C2F11500   5.989   6.721  10.180  0.6042 -0.0102  0.2354
  111OSM    H2F11501   6.032   6.619  10.177 -0.4861 -0.4733 -0.2982
  111OSM    H2G11502   6.068   6.789  10.143  0.5672 -0.0392  0.1033
  111OSM    C3F11503   5.883   6.730  10.077 -0.0428 -0.4358  0.8696
  111OSM    H3F11504   5.811   6.812  10.099  2.5433  2.1717  0.3114
  111OSM    H3G11505   5.813   6.643  10.081 -0.2540 -0.5312 -2.4217
  111OSM    C4F11506   5.934   6.743   9.937  0.0140 -1.3618  1.2382
  111OSM    H4F11507   6.016   6.672   9.912  1.8156  1.6389 -2.3433
  111OSM    H4G11508   5.988   6.840   9.944  1.6667 -2.2966  2.1051
  111OSM    C5F11509   5.829   6.747   9.827 -0.4274  0.2574  0.0224
  111OSM    H5F11510   5.766   6.835   9.855  2.1502  1.6729  1.7849
  111OSM    H5G11511   5.777   6.649   9.819 -1.5257  0.9414 -1.9342
  111OSM    C6F11512   5.910   6.771   9.690 -0.5976  0.0328 -0.6035
  111OSM    H6F11513   5.998   6.706   9.668 -0.2947  0.9465 -2.2479
  111OSM    H6G11514   5.956   6.871   9.704  0.6871 -0.8235  1.8436
  111OSM    C7F11515   5.805   6.758   9.580 -0.3092 -0.2798 -0.5683
  111OSM    H7F11516   5.725   6.833   9.600 -0.2649 -0.5222  0.5499
  111OSM    H7G11517   5.754   6.663   9.606 -1.8515  0.4742 -0.6909
  111OSM    C8F11518   5.874   6.774   9.451 -0.1380  0.2183 -0.1828
  111OSM    H8F11519   5.926   6.677   9.430 -1.9814 -0.8228 -0.1340
  111OSM    H8G11520   5.947   6.858   9.456  1.6718 -1.1992 -1.3258
  111OSM    C9F11521   5.772   6.786   9.346  0.6369  0.2295 -0.0552
  111OSM    H9F11522   5.708   6.697   9.339  0.2434  0.5660 -1.0707
  111OSM   C10F11523   5.747   6.884   9.265 -0.6306 -0.7251  0.7387
  111OSM   H10F11524   5.668   6.884   9.189 -0.1638 -0.2303  0.2407
  111OSM   C11F11525   5.837   7.008   9.254  0.4321  0.1375  0.2371
  111OSM   H11F11526   5.861   7.020   9.146 -0.8492  1.1710  0.0405
  111OSM   H11G11527   5.931   6.995   9.312 -0.6554 -0.4685  1.9592
  111OSM   C12F11528   5.763   7.132   9.318 -1.0208 -1.3258  0.1074
  111OSM   H12F11529   5.705   7.105   9.409 -0.4738 -2.3065  0.1842
  111OSM   H12G11530   5.692   7.174   9.244 -0.3199 -0.7101 -0.2353
  111OSM   C13F11531   5.860   7.247   9.359  0.4020  0.4933  0.2368
  111OSM   H13F11532   5.795   7.335   9.377 -0.1423 -0.3081  2.4997
  111OSM   H13G11533   5.927   7.257   9.271  0.0788 -1.8293 -0.3380
  111OSM   C14F11534   5.952   7.219   9.477 -0.3055  0.1400 -0.5269
  111OSM   H14F11535   6.028   7.300   9.475 -0.5188  0.3525 -0.1897
  111OSM   H14G11536   6.007   7.127   9.452  0.6168  0.7178 -0.6737
  111OSM   C15F11537   5.894   7.207   9.626  0.0505 -0.0384 -0.4928
  111OSM   H15F11538   5.814   7.133   9.606 -0.3884  0.6998 -1.5790
  111OSM   H15G11539   5.833   7.300   9.631  1.5156  0.8754  1.7125
  111OSM   C16F11540   5.997   7.195   9.734 -0.4520  0.0930 -0.0753
  111OSM   H16F11541   6.067   7.278   9.711 -0.6793  0.1050 -0.7498
  111OSM   H16G11542   6.051   7.098   9.740  0.6145  0.5686 -1.4548
  111OSM   C17F11543   5.946   7.243   9.878 -0.1594 -0.3808  0.2805
  111OSM   H17F11544   5.875   7.169   9.919  0.3926 -0.1494  1.7448
  111OSM   H17G11545   5.904   7.345   9.863 -1.3405 -0.9833 -0.6865
  111OSM   C18F11546   6.057   7.258   9.979  0.7060  0.6640 -0.0433
  111OSM   H18F11547   6.105   7.158   9.985  1.5437  0.9219 -1.9605
  111OSM   H18G11548   6.019   7.290  10.079  0.6621 -0.9795  0.5009
  111OSM   H18H11549   6.133   7.333   9.948 -0.3081  0.5235 -3.2108
  112OSM      N11550   0.265   2.121  10.749 -0.2945  0.0148 -0.3094
  112OSM    C1511551   0.411   2.118  10.728  0.8235  0.0354 -0.1341
  112OSM   H15A11552   0.460   2.022  10.716  1.6919  0.1823  1.9482
  112OSM   H15B11553   0.467   2.175  10.800  0.0466  1.6507 -0.7690
  112OSM   H15C11554   0.423   2.167  10.632 -0.5783 -0.0378 -0.3654
  112OSM    C1411555   0.205   2.260  10.726 -0.0917  0.2671  0.0184
  112OSM   H14A11556   0.098   2.258  10.742 -0.0886 -1.4615  0.0990
  112OSM   H14B11557   0.214   2.287  10.622  1.3936  0.2044  0.0963
  112OSM   H14C11558   0.241   2.336  10.794  0.0334 -0.4600  0.7956
  112OSM    C1311559   0.206   2.037  10.634 -0.2627 -0.3854 -0.3669
  112OSM   H13A11560   0.099   2.031  10.640 -0.2362 -0.1944  0.4095
  112OSM   H13B11561   0.233   1.932  10.641  1.2872  0.0871  1.9362
  112OSM   H13C11562   0.244   2.059  10.536 -1.0001 -0.7389 -0.7383
  112OSM    C1211563   0.226   2.067  10.884 -0.2655  0.7688 -0.1227
  112OSM   H12A11564   0.120   2.074  10.903 -0.3038 -1.8058  1.0052
  112OSM   H12B11565   0.262   2.143  10.952  0.8069  0.2852 -0.1201
  112OSM    C1111566   0.288   1.927  10.920  0.1766 -0.5746  0.1447
  112OSM   H11A11567   0.247   1.889  11.016 -1.9524 -0.1179 -0.5226
  112OSM   H11B11568   0.397   1.924  10.943  0.5974 -1.9052 -1.7867
  112OSM      P11569   0.354   1.710  10.778  0.2944 -0.5886 -0.2343
  112OSM    O1311570   0.492   1.764  10.766 -0.3234 -0.0021 -0.2115
  112OSM    O1411571   0.335   1.594  10.868  0.6619 -0.1592 -1.0487
  112OSM    O1111572   0.303   1.689  10.633 -0.1743  0.0560 -0.3703
  112OSM    O1211573   0.258   1.825  10.819  0.3564 -0.4766  0.5459
  112OSM    C1S11574   0.162   1.667  10.601 -0.4488  0.1425 -0.4068
  112OSM    H1S11575   0.102   1.756  10.628 -0.9307 -0.2829 -0.0500
  112OSM    H1T11576   0.124   1.570  10.640 -3.3303  1.5241  0.4660
  112OSM     NF11577   0.010   1.661  10.420  0.5099  0.0080 -0.6543
  112OSM    HNF11578  -0.031   1.571  10.414  0.4074 -0.1037  1.2351
  112OSM    C2S11579   0.152   1.660  10.447 -0.0180  0.3116 -0.4294
  112OSM    H2S11580   0.196   1.754  10.408  0.9417 -0.8314 -2.2014
  112OSM    C3S11581   0.237   1.531  10.397  0.0348 -0.1482 -0.2550
  112OSM    H3S11582   0.180   1.443  10.433  1.6136 -0.1958  2.3739
  112OSM     O311583   0.372   1.518  10.436 -0.1891  0.1966  0.3928
  112OSM    HO311584   0.381   1.588  10.501 -0.0788  0.6752 -0.1191
  112OSM    C4S11585   0.223   1.530  10.245  0.2067 -0.1203 -0.3860
  112OSM    H4S11586   0.120   1.526  10.205  0.6179 -2.2403 -1.4224
  112OSM    C5S11587   0.316   1.528  10.146  0.2185  0.1666 -0.1831
  112OSM    H5S11588   0.424   1.527  10.168  0.2180 -2.8298  0.0582
  112OSM    C6S11589   0.289   1.518  10.000 -0.5478  0.8440  0.5558
  112OSM    H6S11590   0.289   1.619   9.955  1.3799  0.0827 -1.3292
  112OSM    H6T11591   0.195   1.466   9.974 -0.5239  2.1833 -2.5765
  112OSM    C7S11592   0.396   1.420   9.940 -0.4184  0.0894  0.0255
  112OSM    H7S11593   0.384   1.324   9.994  0.9864  1.0836  2.2256
  112OSM    H7T11594   0.500   1.457   9.956 -0.3959  0.0387 -0.0026
  112OSM    C8S11595   0.367   1.393   9.788 -0.4050  0.6638  0.3303
  112OSM    H8S11596   0.274   1.333   9.780  0.2416 -0.8249  2.7389
  112OSM    H8T11597   0.453   1.344   9.736  1.0115  2.7232  0.5979
  112OSM    C9S11598   0.359   1.518   9.713  0.1466  0.6911  0.6175
  112OSM    H9S11599   0.436   1.589   9.749  0.9436 -0.2076  0.7422
  112OSM    H9T11600   0.263   1.560   9.749 -0.7744 -1.5070  0.8556
  112OSM   C10S11601   0.376   1.496   9.567  0.8973  0.5233  0.1943
  112OSM   H10S11602   0.452   1.422   9.535 -1.9865 -1.1895 -3.3611
  112OSM   H10T11603   0.417   1.589   9.521 -0.4485  0.2778 -1.5637
  112OSM   C11S11604   0.238   1.473   9.499  0.1202 -0.1918  0.5703
  112OSM   H11S11605   0.169   1.556   9.523 -0.5483  0.1915 -2.3235
  112OSM   H11T11606   0.203   1.375   9.539  1.8710 -2.1113 -2.2220
  112OSM   C12S11607   0.251   1.460   9.354 -0.5517 -0.3393 -0.2644
  112OSM   H12S11608   0.318   1.377   9.324  0.0068  0.7839 -2.2955
  112OSM   H12T11609   0.305   1.550   9.318 -0.3617 -0.4074 -0.1523
  112OSM   C13S11610   0.116   1.453   9.293  0.3412  0.0865  0.2295
  112OSM   H13S11611   0.054   1.539   9.327  0.7038  0.9913 -1.2679
  112OSM   H13T11612   0.062   1.360   9.319 -0.5427  0.2237 -0.9957
  112OSM   C14S11613   0.128   1.457   9.145 -0.3441  0.5939 -0.2201
  112OSM   H14S11614   0.224   1.497   9.106  0.2809 -0.5077  0.1569
  112OSM   H14T11615   0.041   1.514   9.104  0.2430  2.8563  1.4771
  112OSM   C15S11616   0.113   1.322   9.086 -0.2672 -0.2468 -0.1760
  112OSM   H15S11617   0.017   1.280   9.123 -1.8390  2.6573 -0.6995
  112OSM   H15T11618   0.196   1.266   9.133 -0.5584 -0.7904 -0.2917
  112OSM   C16S11619   0.139   1.308   8.934 -0.6175 -0.1768  0.2113
  112OSM   H16S11620   0.237   1.344   8.894 -0.7810 -0.8859 -0.8834
  112OSM   H16T11621   0.073   1.376   8.876  1.3450 -0.2890 -2.3838
  112OSM   C17S11622   0.125   1.158   8.895 -0.0783 -0.0093 -0.4444
  112OSM   H17S11623   0.135   1.145   8.785 -1.0044 -2.3022 -0.3014
  112OSM   H17T11624   0.023   1.125   8.923 -0.7587  1.2182 -1.3620
  112OSM   C18S11625   0.228   1.062   8.961 -0.0431 -0.1888  0.3810
  112OSM   H18S11626   0.227   1.050   9.072  0.1155  0.8308  0.5082
  112OSM   H18T11627   0.332   1.084   8.931  0.2460  0.2979  1.6482
  112OSM   H18U11628   0.199   0.961   8.925  1.1222  0.0881 -1.4006
  112OSM    C1F11629  -0.074   1.770  10.432 -0.4946 -1.3231 -0.3156
  112OSM     OF11630  -0.018   1.880  10.439  0.3469  0.1558  0.3064
  112OSM    C2F11631  -0.223   1.762  10.441  0.2605 -0.4012  0.1072
  112OSM    H2F11632  -0.260   1.790  10.542 -1.0894 -1.8971  0.0670
  112OSM    H2G11633  -0.269   1.662  10.424  0.5850 -0.6848  0.8686
  112OSM    C3F11634  -0.290   1.860  10.338 -0.3487 -0.3902 -0.2225
  112OSM    H3F11635  -0.277   1.969  10.349 -2.7936 -0.1634  1.2892
  112OSM    H3G11636  -0.396   1.844  10.370  0.2789 -3.2176  0.8061
  112OSM    C4F11637  -0.277   1.830  10.191 -0.7940  0.3210  0.2699
  112OSM    H4F11638  -0.257   1.721  10.181 -0.1465  0.5793 -1.7916
  112OSM    H4G11639  -0.189   1.881  10.146 -0.2832  0.2348  1.1523
  112OSM    C5F11640  -0.403   1.863  10.120  0.0684 -0.3501  0.1660
  112OSM    H5F11641  -0.435   1.969  10.125 -0.2300 -0.3735 -0.9436
  112OSM    H5G11642  -0.490   1.810  10.164 -0.0246 -0.9008 -0.6555
  112OSM    C6F11643  -0.399   1.827   9.969  0.4159  0.2139  0.3064
  112OSM    H6F11644  -0.381   1.717   9.965  3.8320  0.7174 -0.4744
  112OSM    H6G11645  -0.316   1.881   9.919 -0.1438 -0.0047 -0.8933
  112OSM    C7F11646  -0.533   1.849   9.894  0.3099 -0.6038  0.5012
  112OSM    H7F11647  -0.557   1.957   9.902  1.4553 -0.2808 -0.2844
  112OSM    H7G11648  -0.619   1.794   9.939  0.5310  0.2596  2.0550
  112OSM    C8F11649  -0.531   1.806   9.743 -1.2758  0.0879 -0.0261
  112OSM    H8F11650  -0.629   1.837   9.702 -0.4656  2.0348 -0.5943
  112OSM    H8G11651  -0.508   1.697   9.744  1.8211  0.6330 -0.7247
  112OSM    C9F11652  -0.424   1.871   9.656  0.5897 -0.2712  0.4385
  112OSM    H9F11653  -0.323   1.879   9.699  2.0022 -3.6979 -1.8351
  112OSM   C10F11654  -0.440   1.942   9.543 -0.3432 -0.4495  0.1948
  112OSM   H10F11655  -0.344   1.975   9.500 -1.5745  0.6019 -1.8824
  112OSM   C11F11656  -0.562   1.951   9.452  0.5696  0.1455  0.3211
  112OSM   H11F11657  -0.584   2.054   9.416  0.3627 -0.4364 -1.3229
  112OSM   H11G11658  -0.646   1.902   9.505 -0.7748  0.8941 -1.0322
  112OSM   C12F11659  -0.523   1.872   9.326  0.2143 -0.5173 -0.7635
  112OSM   H12F11660  -0.620   1.840   9.281  0.3774 -0.5227 -1.1168
  112OSM   H12G11661  -0.470   1.777   9.350  0.5008 -0.5968 -1.6470
  112OSM   C13F11662  -0.454   1.958   9.221 -0.3638  0.0651 -0.3436
  112OSM   H13F11663  -0.420   1.890   9.140 -1.1523 -0.8969  0.1006
  112OSM   H13G11664  -0.375   2.011   9.277 -0.7238  0.1149  0.1247
  112OSM   C14F11665  -0.543   2.056   9.156 -0.3529  0.3322  0.2950
  112OSM   H14F11666  -0.590   2.121   9.233 -0.2234  1.6551 -0.7083
  112OSM   H14G11667  -0.611   2.000   9.088  0.7247  0.6665 -1.1025
  112OSM   C15F11668  -0.464   2.143   9.058  0.0549 -0.3455 -0.3535
  112OSM   H15F11669  -0.414   2.076   8.984  1.0233  0.2808 -0.2883
  112OSM   H15G11670  -0.383   2.193   9.116 -0.6387 -0.4966  0.7684
  112OSM   C16F11671  -0.556   2.243   8.985  0.3060  0.6034 -0.8395
  112OSM   H16F11672  -0.596   2.314   9.060  2.1155 -0.0473  0.8348
  112OSM   H16G11673  -0.639   2.196   8.928  1.2344 -0.5602 -1.2736
  112OSM   C17F11674  -0.477   2.331   8.891 -0.1040 -0.0646  0.2228
  112OSM   H17F11675  -0.465   2.278   8.794  2.3347  0.8827 -0.0337
  112OSM   H17G11676  -0.378   2.353   8.935  1.6361 -3.4068 -1.6217
  112OSM   C18F11677  -0.547   2.460   8.852  0.1417  0.6196  0.3711
  112OSM   H18F11678  -0.657   2.448   8.838  0.4389  1.1243 -3.2768
  112OSM   H18G11679  -0.504   2.501   8.758 -3.4432  0.6307 -1.4604
  112OSM   H18H11680  -0.554   2.534   8.935 -3.4202  0.0749  0.7399
  113OSM      N11681   2.444   0.452  11.022  0.6244  0.4199  0.1961
  113OSM    C1511682   2.383   0.565  11.095  0.0228  0.3434  0.0263
  113OSM   H15A11683   2.309   0.534  11.168  2.0494  2.1281  3.0452
  113OSM   H15B11684   2.324   0.634  11.037 -0.3945 -0.1638 -0.1681
  113OSM   H15C11685   2.453   0.619  11.157  0.1848 -1.1807  1.2418
  113OSM    C1411686   2.549   0.513  10.939 -0.0732 -0.2977 -0.3196
  113OSM   H14A11687   2.599   0.436  10.883 -0.0528 -0.1481 -0.5081
  113OSM   H14B11688   2.623   0.563  11.001 -1.3869 -1.7671  2.6078
  113OSM   H14C11689   2.524   0.581  10.859  3.1614 -0.7642 -1.9159
  113OSM    C1311690   2.517   0.361  11.118  0.4834  0.0839 -0.3405
  113OSM   H13A11691   2.578   0.299  11.054 -0.5060 -0.1886 -1.0462
  113OSM   H13B11692   2.451   0.296  11.174  1.7159 -1.0179 -0.1216
  113OSM   H13C11693   2.581   0.420  11.182 -1.0605 -0.7760  2.1516
  113OSM    C1211694   2.347   0.383  10.923 -0.1222 -0.3435 -0.1149
  113OSM   H12A11695   2.404   0.315  10.862  1.8925  0.0969  1.1850
  113OSM   H12B11696   2.307   0.448  10.847 -1.7954 -1.2085 -0.0366
  113OSM    C1111697   2.216   0.315  10.986  0.0787 -0.5395  0.0864
  113OSM   H11A11698   2.238   0.224  11.045 -0.7344 -0.9615 -0.2489
  113OSM   H11B11699   2.162   0.288  10.893  1.1729 -0.4311 -0.5943
  113OSM      P11700   2.051   0.525  10.984 -0.1547 -0.5905 -0.2280
  113OSM    O1311701   2.004   0.621  11.086 -0.2281  0.0116 -0.0094
  113OSM    O1411702   2.138   0.581  10.879  0.0545  0.7104 -0.0676
  113OSM    O1111703   1.945   0.438  10.921  0.3896  0.2393 -0.2949
  113OSM    O1211704   2.137   0.415  11.061 -0.1848  0.0860  0.1327
  113OSM    C1S11705   1.834   0.498  10.851 -0.0921  0.4215  0.6044
  113OSM    H1S11706   1.814   0.605  10.876 -2.2803  0.7632 -2.1065
  113OSM    H1T11707   1.737   0.447  10.868 -0.0379  0.0212 -0.2202
  113OSM     NF11708   1.759   0.560  10.623  0.0831 -0.3168 -0.0286
  113OSM    HNF11709   1.713   0.501  10.556  2.1234 -0.1023 -1.7322
  113OSM    C2S11710   1.860   0.487  10.697  0.0756 -0.0748  0.7046
  113OSM    H2S11711   1.961   0.529  10.680  0.3101 -1.5435 -1.9825
  113OSM    C3S11712   1.878   0.340  10.654 -0.4126 -1.5738 -0.6562
  113OSM    H3S11713   1.786   0.279  10.669 -0.7448 -0.3946  3.7145
  113OSM     O311714   1.959   0.271  10.743  0.1096  0.0735 -0.1070
  113OSM    HO311715   1.963   0.332  10.817  1.0011  0.1789 -0.2313
  113OSM    C4S11716   1.926   0.329  10.515 -0.2106  0.2385 -0.7521
  113OSM    H4S11717   2.036   0.339  10.511  0.1243 -2.5748 -0.7251
  113OSM    C5S11718   1.851   0.306  10.406  0.4126  0.2781  0.0362
  113OSM    H5S11719   1.743   0.292  10.422  0.4022 -0.3905 -0.5390
  113OSM    C6S11720   1.895   0.290  10.268  0.6502 -0.3023  0.9497
  113OSM    H6S11721   1.990   0.235  10.248  0.0483 -0.3309 -2.3615
  113OSM    H6T11722   1.903   0.388  10.217 -0.1606 -0.2844  0.8485
  113OSM    C7S11723   1.781   0.222  10.192 -0.5128 -0.4085 -0.1581
  113OSM    H7S11724   1.690   0.285  10.187 -1.2979 -1.4211  0.8995
  113OSM    H7T11725   1.753   0.124  10.237  1.6494 -0.2617  1.7485
  113OSM    C8S11726   1.822   0.189  10.043  0.6967  0.3222  0.0605
  113OSM    H8S11727   1.907   0.117  10.048  0.3457 -0.0037  2.1125
  113OSM    H8T11728   1.848   0.285   9.994  2.9812 -0.7146 -0.9273
  113OSM    C9S11729   1.698   0.138   9.964 -0.3907 -0.3158  0.2813
  113OSM    H9S11730   1.622   0.217   9.984 -0.3330 -0.6711  2.0477
  113OSM    H9T11731   1.663   0.039   9.999 -0.5856 -0.0055  0.9932
  113OSM   C10S11732   1.716   0.141   9.815 -0.2098 -0.0591  0.1097
  113OSM   H10S11733   1.753   0.238   9.774  3.5375 -1.8744 -1.2507
  113OSM   H10T11734   1.621   0.108   9.768  1.8369 -1.6821 -3.2336
  113OSM   C11S11735   1.818   0.038   9.759 -0.0151 -0.3228  0.1992
  113OSM   H11S11736   1.821  -0.053   9.822 -0.2906 -0.8859 -0.5932
  113OSM   H11T11737   1.917   0.088   9.769 -0.3855  0.6974 -0.9845
  113OSM   C12S11738   1.787  -0.002   9.609 -1.0439  0.5951  0.2106
  113OSM   H12S11739   1.693  -0.058   9.588  0.1409 -0.8635 -1.5176
  113OSM   H12T11740   1.874  -0.069   9.591 -1.8834 -0.3583 -0.3972
  113OSM   C13S11741   1.797   0.112   9.507 -1.0568 -0.6722 -0.4216
  113OSM   H13S11742   1.896   0.160   9.525 -0.3669 -2.4186  0.7273
  113OSM   H13T11743   1.723   0.186   9.541  0.4351 -0.4850  2.8029
  113OSM   C14S11744   1.762   0.075   9.361 -0.4031 -0.3816  0.2808
  113OSM   H14S11745   1.839   0.019   9.305 -0.3849 -1.6262  1.4792
  113OSM   H14T11746   1.733   0.169   9.311 -0.8241 -0.0269  1.1638
  113OSM   C15S11747   1.632  -0.009   9.349  0.1218  1.1945  0.1123
  113OSM   H15S11748   1.558   0.043   9.414  0.6333 -1.0784  2.6721
  113OSM   H15T11749   1.634  -0.110   9.395 -3.0668  1.0997  0.3155
  113OSM   C16S11750   1.583  -0.013   9.204  0.4815 -0.3925  0.1893
  113OSM   H16S11751   1.643  -0.090   9.151 -1.4772 -0.9514 -1.2952
  113OSM   H16T11752   1.590   0.084   9.151 -0.8810  0.1302  0.9189
  113OSM   C17S11753   1.441  -0.066   9.193  0.6846  0.2035  0.2920
  113OSM   H17S11754   1.413  -0.061   9.085 -1.4320  1.2046  0.8595
  113OSM   H17T11755   1.374  -0.005   9.256 -0.1004 -0.0971 -0.2442
  113OSM   C18S11756   1.421  -0.215   9.235 -0.2534 -0.1308 -0.2982
  113OSM   H18S11757   1.497  -0.288   9.202 -1.6124 -1.2939 -1.0024
  113OSM   H18T11758   1.321  -0.248   9.198 -0.3501 -0.0581 -0.1060
  113OSM   H18U11759   1.406  -0.221   9.345 -1.2582 -1.0642 -0.4671
  113OSM    C1F11760   1.737   0.690  10.626  0.0101  0.0690 -0.3920
  113OSM     OF11761   1.824   0.755  10.692  0.1316  0.2895 -0.3780
  113OSM    C2F11762   1.619   0.753  10.554 -0.3523 -0.0705 -0.2201
  113OSM    H2F11763   1.647   0.855  10.519  0.7783 -0.5201 -0.6733
  113OSM    H2G11764   1.541   0.762  10.633 -2.9351  0.4109 -2.6949
  113OSM    C3F11765   1.568   0.678  10.435 -0.3133  0.2790  0.3641
  113OSM    H3F11766   1.477   0.726  10.393 -1.9518  0.6309  3.9584
  113OSM    H3G11767   1.523   0.579  10.458  0.0836 -0.3028 -1.2231
  113OSM    C4F11768   1.680   0.665  10.331 -0.1162  0.2505  0.3601
  113OSM    H4F11769   1.780   0.623  10.358 -0.6423  1.2000  4.4616
  113OSM    H4G11770   1.701   0.772  10.311 -0.2842  0.2475  0.1684
  113OSM    C5F11771   1.626   0.586  10.213 -0.0795 -0.4277  0.5355
  113OSM    H5F11772   1.563   0.500  10.243  1.3630 -1.1604  1.5939
  113OSM    H5G11773   1.711   0.547  10.153  0.4438 -0.3097  1.1872
  113OSM    C6F11774   1.546   0.672  10.119 -0.4551 -0.7689  0.3758
  113OSM    H6F11775   1.605   0.762  10.092  0.0431 -1.1899  0.0478
  113OSM    H6G11776   1.455   0.698  10.176  1.2899 -1.2223  3.6767
  113OSM    C7F11777   1.499   0.585  10.004 -0.3614 -0.0243 -0.2395
  113OSM    H7F11778   1.441   0.646   9.932 -1.4876 -0.7044  0.0688
  113OSM    H7G11779   1.432   0.509  10.049 -0.1206  0.2842  0.6619
  113OSM    C8F11780   1.604   0.504   9.920  0.6331  0.0002 -0.8112
  113OSM    H8F11781   1.543   0.446   9.847  0.1353  0.1282 -0.5091
  113OSM    H8G11782   1.658   0.429   9.981  1.9289  1.1948 -0.4437
  113OSM    C9F11783   1.705   0.597   9.863  0.2605  0.1946  0.6782
  113OSM    H9F11784   1.739   0.675   9.933  0.6978  0.0880  0.5875
  113OSM   C10F11785   1.758   0.590   9.737 -0.3777 -0.2022  0.8613
  113OSM   H10F11786   1.834   0.656   9.692 -1.3065 -1.2517 -2.5764
  113OSM   C11F11787   1.720   0.483   9.640  0.3145  0.0322  0.9860
  113OSM   H11F11788   1.636   0.416   9.665 -1.3650  0.7233 -2.2618
  113OSM   H11G11789   1.807   0.419   9.616 -1.9586 -3.2262  0.8790
  113OSM   C12F11790   1.668   0.544   9.510 -0.9757 -0.4537 -0.0217
  113OSM   H12F11791   1.752   0.607   9.474 -0.2385 -1.2251  0.3084
  113OSM   H12G11792   1.568   0.590   9.521 -3.2134 -4.1671 -2.4530
  113OSM   C13F11793   1.645   0.445   9.395 -0.3370  0.9033 -0.3660
  113OSM   H13F11794   1.572   0.365   9.417  0.9075 -0.8102 -2.1509
  113OSM   H13G11795   1.740   0.395   9.370 -1.3517 -0.1535 -2.3427
  113OSM   C14F11796   1.588   0.517   9.281 -0.2836  0.3440 -0.3107
  113OSM   H14F11797   1.651   0.607   9.264  1.2693 -0.2820  1.7391
  113OSM   H14G11798   1.485   0.540   9.315  0.3826  0.8896  1.4409
  113OSM   C15F11799   1.571   0.436   9.149 -0.1494 -0.1015 -0.2867
  113OSM   H15F11800   1.513   0.501   9.079  0.8539  1.5351  0.3330
  113OSM   H15G11801   1.516   0.343   9.173 -1.4223  0.9335  1.0023
  113OSM   C16F11802   1.702   0.390   9.083 -0.3561 -0.0187  0.2415
  113OSM   H16F11803   1.739   0.306   9.146  1.1224  1.2036  1.0851
  113OSM   H16G11804   1.768   0.480   9.082 -2.2750  1.4289  0.0335
  113OSM   C17F11805   1.698   0.347   8.937  0.1142  0.5980 -0.5626
  113OSM   H17F11806   1.796   0.381   8.897  1.4559 -0.4188  1.6926
  113OSM   H17G11807   1.609   0.385   8.882 -2.0701 -2.9974  0.1903
  113OSM   C18F11808   1.693   0.196   8.920  0.1576 -0.0009 -0.2582
  113OSM   H18F11809   1.587   0.165   8.909 -1.2176  3.5345  1.5283
  113OSM   H18G11810   1.738   0.158   9.015  1.2466  2.3975  0.2641
  113OSM   H18H11811   1.749   0.163   8.830  0.3740 -0.9047  0.1971
  114OSM      N11812   0.692   4.858  11.453 -0.5548 -0.2089  0.1228
  114OSM    C1511813   0.630   4.965  11.536  0.1077 -0.8902  0.4335
  114OSM   H15A11814   0.686   5.056  11.549 -1.5474  0.2995 -0.4385
  114OSM   H15B11815   0.613   4.924  11.634  2.1980 -0.9475  0.8088
  114OSM   H15C11816   0.543   5.001  11.484  0.3781 -1.0098 -0.1132
  114OSM    C1411817   0.811   4.809  11.515 -0.0560 -1.0064 -0.4854
  114OSM   H14A11818   0.897   4.872  11.527  0.8340 -1.7099 -2.7353
  114OSM   H14B11819   0.845   4.719  11.466  0.0208 -0.3943 -1.5766
  114OSM   H14C11820   0.786   4.788  11.618  0.9962 -0.7660 -0.1719
  114OSM    C1311821   0.598   4.747  11.437  0.1298  0.2410 -0.0204
  114OSM   H13A11822   0.642   4.673  11.371 -1.8553 -1.8184  0.8425
  114OSM   H13B11823   0.503   4.776  11.396 -0.4368  0.5817  1.4951
  114OSM   H13C11824   0.584   4.693  11.529 -1.5147  2.1026  0.8878
  114OSM    C1211825   0.736   4.923  11.326  0.6330  0.8745  0.1916
  114OSM   H12A11826   0.803   4.855  11.275  0.2058  0.8459 -0.3432
  114OSM   H12B11827   0.812   4.995  11.353  1.1952 -0.5139  2.5895
  114OSM    C1111828   0.634   4.969  11.217  0.7567 -0.2214  0.1119
  114OSM   H11A11829   0.567   4.886  11.186 -0.2201  1.1590 -1.6506
  114OSM   H11B11830   0.692   5.008  11.130 -0.1467  0.0059 -0.4049
  114OSM      P11831   0.414   5.109  11.184 -0.1737 -0.5183  0.0441
  114OSM    O1311832   0.314   5.002  11.208 -0.1237  0.0381 -0.5272
  114OSM    O1411833   0.382   5.247  11.222  0.7647  0.4506 -0.4156
  114OSM    O1111834   0.453   5.104  11.028 -0.2161 -0.0587  0.3966
  114OSM    O1211835   0.548   5.074  11.268 -0.1313  0.0195  0.3281
  114OSM    C1S11836   0.542   5.189  10.959 -0.2328  0.2055 -0.2354
  114OSM    H1S11837   0.645   5.164  10.992 -0.3639 -2.4739 -1.5752
  114OSM    H1T11838   0.512   5.293  10.982  0.2156  0.3209 -0.1581
  114OSM     NF11839   0.648   5.249  10.744  0.2260  0.5291 -0.1039
  114OSM    HNF11840   0.623   5.342  10.720 -1.4156  0.5451  1.4705
  114OSM    C2S11841   0.542   5.173  10.798 -0.2791  0.9115  0.4201
  114OSM    H2S11842   0.560   5.067  10.769 -1.5493  0.5698  0.8193
  114OSM    C3S11843   0.406   5.225  10.747  0.3092 -0.0133  0.0589
  114OSM    H3S11844   0.391   5.330  10.781 -0.7023  0.7231 -2.3909
  114OSM     O311845   0.300   5.152  10.799  0.4521 -0.3742  0.3294
  114OSM    HO311846   0.343   5.107  10.871 -2.1900 -1.4965  1.3557
  114OSM    C4S11847   0.390   5.231  10.595 -0.1297  0.3932  0.0816
  114OSM    H4S11848   0.441   5.153  10.538  0.8264  1.1974 -0.1993
  114OSM    C5S11849   0.330   5.333  10.535  0.2113 -0.1660 -0.1899
  114OSM    H5S11850   0.292   5.415  10.598  3.9425  0.5683  1.3356
  114OSM    C6S11851   0.311   5.347  10.384  0.3222 -0.1975 -0.1734
  114OSM    H6S11852   0.207   5.371  10.354  0.6909  2.7327  0.5558
  114OSM    H6T11853   0.341   5.261  10.320 -2.2320  1.1338 -3.4706
  114OSM    C7S11854   0.390   5.474  10.348  0.4777  0.3887  0.4568
  114OSM    H7S11855   0.499   5.459  10.361 -0.0057 -0.9843  4.4298
  114OSM    H7T11856   0.340   5.554  10.408 -0.0673  0.5533 -0.2014
  114OSM    C8S11857   0.360   5.505  10.199  0.0519 -0.3750 -0.5198
  114OSM    H8S11858   0.392   5.609  10.182 -0.6226  0.3032  1.8942
  114OSM    H8T11859   0.252   5.493  10.174  0.0103  0.5930 -0.8286
  114OSM    C9S11860   0.439   5.412  10.104 -0.4755  0.1352  0.4577
  114OSM    H9S11861   0.407   5.306  10.104 -2.2960  0.6510  0.3719
  114OSM    H9T11862   0.548   5.415  10.124 -0.2139 -0.7691 -0.7217
  114OSM   C10S11863   0.425   5.458   9.959  0.4361  0.1069  0.5582
  114OSM   H10S11864   0.448   5.567   9.954 -1.6163  0.5092 -1.5724
  114OSM   H10T11865   0.322   5.440   9.923  1.0463 -1.7833 -0.3703
  114OSM   C11S11866   0.515   5.386   9.872  0.0467 -0.1402  0.0307
  114OSM   H11S11867   0.485   5.279   9.868  0.3576 -0.2030 -0.8005
  114OSM   H11T11868   0.616   5.383   9.918  0.5126 -1.1207 -1.0288
  114OSM   C12S11869   0.523   5.437   9.730  0.1102 -0.3866  0.0004
  114OSM   H12S11870   0.543   5.546   9.723 -0.6509 -0.1827  0.8692
  114OSM   H12T11871   0.419   5.420   9.697 -0.1357 -0.9550  1.0537
  114OSM   C13S11872   0.617   5.360   9.638  0.1595  0.3747 -0.3250
  114OSM   H13S11873   0.597   5.256   9.672 -1.7236  0.4345 -1.1119
  114OSM   H13T11874   0.721   5.388   9.664 -0.5125  0.4064  2.6533
  114OSM   C14S11875   0.599   5.380   9.486  0.1982 -0.2570  0.1220
  114OSM   H14S11876   0.605   5.489   9.468  1.7871 -0.6788 -2.3761
  114OSM   H14T11877   0.499   5.351   9.448 -0.5722  0.5100  1.4596
  114OSM   C15S11878   0.712   5.317   9.406  0.6008  0.8480 -0.0793
  114OSM   H15S11879   0.681   5.315   9.299  0.0981  0.7268  0.0635
  114OSM   H15T11880   0.741   5.215   9.438 -0.0141  0.2775 -1.2833
  114OSM   C16S11881   0.841   5.404   9.410  0.5141  0.2058  0.5808
  114OSM   H16S11882   0.899   5.372   9.499 -0.1825 -0.3085  0.8645
  114OSM   H16T11883   0.824   5.514   9.413 -2.3626 -0.0700 -1.2165
  114OSM   C17S11884   0.902   5.382   9.271 -0.4093 -0.4488 -0.0164
  114OSM   H17S11885   0.859   5.448   9.193 -0.3288  1.4493  1.4848
  114OSM   H17T11886   0.880   5.281   9.228 -1.3112 -0.6017  0.7654
  114OSM   C18S11887   1.050   5.404   9.265 -0.1688  0.5429 -0.2949
  114OSM   H18S11888   1.093   5.426   9.165 -1.1096  0.6447 -0.6874
  114OSM   H18T11889   1.098   5.315   9.311  0.7318  1.4672  0.6130
  114OSM   H18U11890   1.073   5.495   9.324  0.7511  1.6788 -2.2883
  114OSM    C1F11891   0.776   5.212  10.747 -0.1228 -0.0914  0.4967
  114OSM     OF11892   0.810   5.106  10.793  0.3098  0.4876  0.2290
  114OSM    C2F11893   0.876   5.315  10.688 -0.3576  0.5936  0.4575
  114OSM    H2F11894   0.980   5.278  10.697 -0.1515  0.7455 -1.0890
  114OSM    H2G11895   0.859   5.404  10.753 -2.0872  0.7300 -0.1188
  114OSM    C3F11896   0.845   5.347  10.541 -0.2271  0.6143 -0.0034
  114OSM    H3F11897   0.906   5.429  10.498 -0.5752  1.6456  1.3874
  114OSM    H3G11898   0.749   5.401  10.550  0.1395  1.3101 -0.1944
  114OSM    C4F11899   0.850   5.234  10.438  0.0883  0.1883 -0.5168
  114OSM    H4F11900   0.830   5.133  10.479 -0.3594  0.0624 -1.0297
  114OSM    H4G11901   0.952   5.236  10.395  0.8482 -1.9724  1.0116
  114OSM    C5F11902   0.754   5.268  10.316  0.2709 -0.0357 -0.5098
  114OSM    H5F11903   0.781   5.373  10.291  2.6568 -0.4585 -0.0214
  114OSM    H5G11904   0.649   5.264  10.351 -0.1850  0.8927 -1.7102
  114OSM    C6F11905   0.759   5.187  10.186 -0.7991 -0.0064  0.2832
  114OSM    H6F11906   0.657   5.198  10.142 -0.2514 -1.0412 -1.3586
  114OSM    H6G11907   0.775   5.077  10.196 -2.1497 -0.3695 -1.1388
  114OSM    C7F11908   0.861   5.241  10.081 -0.1266  0.6323 -0.0027
  114OSM    H7F11909   0.965   5.228  10.117  0.5769  2.0181 -1.4362
  114OSM    H7G11910   0.848   5.351  10.068 -0.2959  0.9033  2.0956
  114OSM    C8F11911   0.843   5.166   9.946 -0.4384  0.5572 -0.1670
  114OSM    H8F11912   0.733   5.168   9.935 -0.5387  2.4747  0.7268
  114OSM    H8G11913   0.876   5.060   9.948 -0.1125  0.6149 -1.6581
  114OSM    C9F11914   0.911   5.240   9.833 -0.4061 -0.5247  0.1193
  114OSM    H9F11915   0.881   5.346   9.833  1.0820 -0.0696  0.2397
  114OSM   C10F11916   1.007   5.194   9.750 -0.0879 -0.4854 -0.0810
  114OSM   H10F11917   1.048   5.255   9.668 -0.3798  0.3869  0.4058
  114OSM   C11F11918   1.070   5.051   9.734  0.6651 -0.7289  0.4990
  114OSM   H11F11919   1.002   4.996   9.665 -1.3386  1.7601  0.3522
  114OSM   H11G11920   1.063   4.992   9.828 -3.8765 -2.7752 -0.8181
  114OSM   C12F11921   1.210   5.051   9.677 -0.5556  0.6585 -0.2317
  114OSM   H12F11922   1.254   4.949   9.682  1.4868  1.3516 -2.2926
  114OSM   H12G11923   1.273   5.126   9.729  1.4972 -0.0755 -1.5268
  114OSM   C13F11924   1.217   5.076   9.525  1.2252 -0.0326  0.4148
  114OSM   H13F11925   1.180   5.176   9.492 -1.9012 -0.5325  2.0003
  114OSM   H13G11926   1.147   5.002   9.484  0.1077 -0.2155  2.5019
  114OSM   C14F11927   1.354   5.027   9.470  0.0044  0.2770  0.0978
  114OSM   H14F11928   1.378   4.921   9.494  1.4218  0.1276 -1.7633
  114OSM   H14G11929   1.429   5.095   9.516 -0.3735  1.3478 -0.8129
  114OSM   C15F11930   1.372   5.036   9.320 -0.2187  0.1814  0.0475
  114OSM   H15F11931   1.283   4.982   9.282 -0.2790  0.3956 -0.1208
  114OSM   H15G11932   1.460   4.980   9.282  0.0447  2.0598 -2.3627
  114OSM   C16F11933   1.364   5.176   9.264  0.3089 -0.0057 -0.2673
  114OSM   H16F11934   1.397   5.244   9.346 -1.7003 -1.8624  2.2462
  114OSM   H16G11935   1.259   5.199   9.237  0.3325  1.3407  0.6297
  114OSM   C17F11936   1.458   5.194   9.148  0.6782 -0.6609 -0.2254
  114OSM   H17F11937   1.418   5.130   9.067 -1.0178 -1.8769  1.4638
  114OSM   H17G11938   1.561   5.156   9.166  1.0117  0.4184  0.1819
  114OSM   C18F11939   1.483   5.340   9.113 -0.4460  0.6040  0.3355
  114OSM   H18F11940   1.530   5.397   9.196  0.5320  1.2704 -0.6444
  114OSM   H18G11941   1.386   5.385   9.083 -0.3203 -0.7073 -2.3958
  114OSM   H18H11942   1.549   5.342   9.024 -1.2043  1.4196 -0.2293
  115OSM      N11943   0.613   3.019   5.979 -0.1612 -0.2884  0.4026
  115OSM    C1511944   0.598   3.060   6.123 -0.4048  0.6077  0.5948
  115OSM   H15A11945   0.598   2.975   6.189 -0.8199  1.7846  2.1817
  115OSM   H15B11946   0.512   3.121   6.144 -2.6623 -2.2217  0.0456
  115OSM   H15C11947   0.681   3.120   6.159 -0.5606  1.3384 -0.2230
  115OSM    C1411948   0.622   3.137   5.887  0.2108  0.0601  0.1338
  115OSM   H14A11949   0.636   3.102   5.786  1.5859  0.4711  0.1588
  115OSM   H14B11950   0.709   3.197   5.911 -1.5074  2.4675  0.6248
  115OSM   H14C11951   0.529   3.188   5.907  1.2258  2.1674 -0.1805
  115OSM    C1311952   0.740   2.937   5.981  0.4061  0.2856 -0.2129
  115OSM   H13A11953   0.723   2.838   6.022  0.5861  0.4927  0.3716
  115OSM   H13B11954   0.810   2.992   6.041 -0.4145  2.1647 -0.8840
  115OSM   H13C11955   0.780   2.923   5.881  1.4236 -0.2405  0.2588
  115OSM    C1211956   0.504   2.921   5.934 -0.6977 -0.1022  0.9008
  115OSM   H12A11957   0.519   2.897   5.830  1.1438 -0.4453  1.2121
  115OSM   H12B11958   0.403   2.956   5.952 -0.4235  1.7267 -0.7716
  115OSM    C1111959   0.519   2.767   5.980  0.2249  0.2950  1.2192
  115OSM   H11A11960   0.619   2.737   5.942  0.8176  3.9201 -0.4729
  115OSM   H11B11961   0.450   2.717   5.909  0.2822 -0.8888  1.9597
  115OSM      P11962   0.551   2.619   6.205 -0.2833  0.2460 -0.0522
  115OSM    O1311963   0.483   2.496   6.164  0.3183 -0.3380  0.2304
  115OSM    O1411964   0.697   2.614   6.189  0.0430  0.2065  0.4787
  115OSM    O1111965   0.519   2.659   6.352  0.6832 -0.0776 -0.3105
  115OSM    O1211966   0.501   2.743   6.121  0.0085 -0.7239 -0.2042
  115OSM    C1S11967   0.476   2.550   6.437 -0.4865 -1.2887 -0.2596
  115OSM    H1S11968   0.557   2.478   6.461 -0.8877 -1.0023  2.1323
  115OSM    H1T11969   0.389   2.489   6.404 -1.7765 -0.3129  1.2467
  115OSM     NF11970   0.433   2.485   6.675 -0.6096 -0.1522 -0.2081
  115OSM    HNF11971   0.349   2.435   6.693 -0.9005  0.5865  0.5260
  115OSM    C2S11972   0.426   2.597   6.578  0.5954 -0.3696 -0.7103
  115OSM    H2S11973   0.497   2.678   6.605 -0.7204  0.5837 -0.0111
  115OSM    C3S11974   0.285   2.664   6.574 -0.5563 -0.3275 -0.2331
  115OSM    H3S11975   0.210   2.585   6.552 -2.5490  1.5800 -0.6401
  115OSM     O311976   0.273   2.774   6.482  0.3121  0.3728  0.0144
  115OSM    HO311977   0.349   2.763   6.425  1.1098 -0.6783  1.2275
  115OSM    C4S11978   0.266   2.718   6.716 -0.5466  0.4909  0.1980
  115OSM    H4S11979   0.249   2.634   6.786  1.1173 -0.7140 -0.7509
  115OSM    C5S11980   0.278   2.840   6.770 -0.0652 -0.0737  0.7764
  115OSM    H5S11981   0.276   2.919   6.693 -1.4531  0.8470  1.7289
  115OSM    C6S11982   0.259   2.878   6.914  1.2926  0.4735 -0.3040
  115OSM    H6S11983   0.154   2.905   6.934  1.6972  1.4748  0.5317
  115OSM    H6T11984   0.305   2.977   6.932 -1.0611  1.3547  1.2805
  115OSM    C7S11985   0.313   2.796   7.029  0.4907 -0.3316  1.7139
  115OSM    H7S11986   0.272   2.693   7.033 -0.3125 -0.1698 -0.6590
  115OSM    H7T11987   0.278   2.853   7.118 -1.0084  0.5143  0.6288
  115OSM    C8S11988   0.465   2.791   7.034 -0.3892 -0.1333 -0.4922
  115OSM    H8S11989   0.524   2.885   7.032 -0.3830 -0.0730  1.2707
  115OSM    H8T11990   0.499   2.745   6.939  1.5015 -1.3879  0.7333
  115OSM    C9S11991   0.518   2.694   7.142  0.4880 -0.0904  0.7029
  115OSM    H9S11992   0.616   2.656   7.106 -0.0665 -0.9219  0.0510
  115OSM    H9T11993   0.445   2.613   7.163 -0.1112  0.3600  0.4105
  115OSM   C10S11994   0.556   2.765   7.276  0.6570  1.0399  0.7279
  115OSM   H10S11995   0.627   2.848   7.255 -1.1502  2.3566 -0.4992
  115OSM   H10T11996   0.594   2.690   7.348  1.9082 -1.0750 -1.9714
  115OSM   C11S11997   0.441   2.843   7.348 -0.1209 -0.4289  0.3211
  115OSM   H11S11998   0.365   2.764   7.368  0.7593 -1.3699  0.0303
  115OSM   H11T11999   0.398   2.914   7.275 -0.8178  0.8562  1.9068
  115OSM   C12S12000   0.470   2.925   7.472 -0.5824  0.1503  0.6201
  115OSM   H12S12001   0.376   2.972   7.508 -1.2042 -0.7737  0.2642
  115OSM   H12T12002   0.543   3.007   7.456 -0.2865 -0.1971  0.1840
  115OSM   C13S12003   0.524   2.843   7.587  0.2385  0.0596  0.1099
  115OSM   H13S12004   0.591   2.908   7.647  2.4672 -1.8889 -0.1264
  115OSM   H13T12005   0.595   2.768   7.549  1.5944  2.5322 -2.6592
  115OSM   C14S12006   0.411   2.786   7.674  0.5012  0.6916 -0.5737
  115OSM   H14S12007   0.335   2.734   7.612  0.1165 -1.3186  1.4781
  115OSM   H14T12008   0.355   2.865   7.729  0.2488  0.1597 -0.0645
  115OSM   C15S12009   0.461   2.683   7.775 -0.0357 -0.4124 -0.0412
  115OSM   H15S12010   0.510   2.594   7.729  1.2789  1.4221 -2.4542
  115OSM   H15T12011   0.364   2.651   7.819 -0.3383 -1.6461 -1.4863
  115OSM   C16S12012   0.563   2.725   7.885  0.4942  0.3495  0.1685
  115OSM   H16S12013   0.654   2.742   7.823  0.0089  0.1431 -0.6097
  115OSM   H16T12014   0.581   2.639   7.953 -0.2403 -1.4313 -1.7872
  115OSM   C17S12015   0.546   2.856   7.957  0.4743  0.2361 -0.0660
  115OSM   H17S12016   0.525   2.935   7.882  0.5706 -0.9306 -1.3658
  115OSM   H17T12017   0.642   2.881   8.006  0.7564 -0.2115 -0.3819
  115OSM   C18S12018   0.433   2.854   8.062  0.1581 -0.1638  0.7846
  115OSM   H18S12019   0.443   2.750   8.100  1.5981  0.2033  1.4861
  115OSM   H18T12020   0.335   2.870   8.013  0.7297 -0.9943 -0.7104
  115OSM   H18U12021   0.433   2.939   8.134 -1.9301  0.6714 -0.1134
  115OSM    C1F12022   0.548   2.431   6.711  0.1958 -0.1198  0.3081
  115OSM     OF12023   0.645   2.484   6.671  0.5282  0.1592  0.5269
  115OSM    C2F12024   0.554   2.295   6.781 -0.6061  0.2247 -0.0567
  115OSM    H2F12025   0.537   2.217   6.704 -3.7756 -0.5149  1.2349
  115OSM    H2G12026   0.471   2.298   6.855 -0.9398 -1.8685 -0.3069
  115OSM    C3F12027   0.690   2.275   6.858  0.0138  0.1735 -0.1469
  115OSM    H3F12028   0.728   2.365   6.911 -1.1209  1.4449 -1.3917
  115OSM    H3G12029   0.761   2.256   6.774  0.1447 -0.1739  0.0428
  115OSM    C4F12030   0.698   2.162   6.964 -0.3691 -0.3495 -0.1032
  115OSM    H4F12031   0.663   2.070   6.913 -1.0950 -0.6731  0.9634
  115OSM    H4G12032   0.644   2.186   7.058 -0.0162  0.6600 -0.1446
  115OSM    C5F12033   0.846   2.154   7.003 -0.4059 -0.1394 -0.0308
  115OSM    H5F12034   0.875   2.250   7.051 -2.2840 -1.1204  3.4793
  115OSM    H5G12035   0.905   2.137   6.911 -0.0862 -0.2840  0.1988
  115OSM    C6F12036   0.877   2.030   7.095  0.7386 -0.3266 -0.1394
  115OSM    H6F12037   0.843   1.946   7.031  2.3547 -1.8684  0.9307
  115OSM    H6G12038   0.807   2.035   7.182  0.9847 -0.6608  0.0765
  115OSM    C7F12039   1.022   2.019   7.138 -0.2769  0.2258  0.8504
  115OSM    H7F12040   1.050   2.121   7.173 -1.3741  0.4385  1.1378
  115OSM    H7G12041   1.074   1.988   7.045 -1.3475 -0.6455  0.5135
  115OSM    C8F12042   1.048   1.914   7.248 -0.1239  0.4951 -0.4130
  115OSM    H8F12043   1.158   1.908   7.263 -0.3728 -0.3206  1.3115
  115OSM    H8G12044   1.008   1.815   7.219 -0.4989  0.6846 -0.5488
  115OSM    C9F12045   0.993   1.933   7.384 -0.0659 -0.5779 -0.7975
  115OSM    H9F12046   0.906   1.999   7.385 -0.1987 -0.7112  1.5570
  115OSM   C10F12047   1.029   1.886   7.507  0.0788  0.5496  0.5976
  115OSM   H10F12048   0.963   1.923   7.587 -2.4918  1.6687 -1.8755
  115OSM   C11F12049   1.145   1.798   7.531 -0.2882 -0.0142 -0.5870
  115OSM   H11F12050   1.230   1.837   7.471 -0.1564 -0.7162 -0.8775
  115OSM   H11G12051   1.135   1.692   7.496  4.4499 -1.4593  1.5596
  115OSM   C12F12052   1.173   1.780   7.685  0.0053 -0.1369  1.0429
  115OSM   H12F12053   1.256   1.707   7.696  0.7885  0.8676  2.1735
  115OSM   H12G12054   1.092   1.733   7.745 -1.0253 -1.0040 -0.9567
  115OSM   C13F12055   1.232   1.909   7.753  0.1962 -0.3572  0.8226
  115OSM   H13F12056   1.153   1.986   7.744 -0.7690 -1.3765  0.3069
  115OSM   H13G12057   1.314   1.941   7.685  1.5707 -1.1725  2.0191
  115OSM   C14F12058   1.272   1.869   7.899 -0.0404 -0.2560 -0.2152
  115OSM   H14F12059   1.321   1.961   7.937  1.4881 -0.6010 -1.2790
  115OSM   H14G12060   1.352   1.791   7.901  1.1846  0.9132  2.7044
  115OSM   C15F12061   1.150   1.833   7.986  0.1766 -0.0086  0.1233
  115OSM   H15F12062   1.100   1.739   7.955 -0.0681  0.2037 -0.1341
  115OSM   H15G12063   1.076   1.915   7.994 -0.4046 -0.6188  1.3232
  115OSM   C16F12064   1.190   1.801   8.129  0.2993  0.0643 -0.4636
  115OSM   H16F12065   1.240   1.890   8.173  3.4631 -1.3854 -0.8939
  115OSM   H16G12066   1.259   1.715   8.124 -1.0497 -1.1260  0.5964
  115OSM   C17F12067   1.080   1.762   8.228 -0.1993  0.7046 -0.2985
  115OSM   H17F12068   1.017   1.848   8.259  0.7402  1.1959  0.2825
  115OSM   H17G12069   1.116   1.728   8.327  1.9862  3.1728 -0.1396
  115OSM   C18F12070   0.976   1.657   8.180  0.0225  0.0611 -0.7011
  115OSM   H18F12071   0.934   1.680   8.080 -0.7170 -1.1656 -0.7062
  115OSM   H18G12072   0.888   1.645   8.247  1.0174 -1.5380  0.3818
  115OSM   H18H12073   1.015   1.553   8.178 -1.5525 -0.6856  1.9647
  116OSM      N12074   1.460   1.127   6.013 -1.1100  0.3908  0.0781
  116OSM    C1512075   1.609   1.069   6.028 -0.1966 -0.3077 -0.5006
  116OSM   H15A12076   1.683   1.147   6.020  0.6598 -0.8499  1.5437
  116OSM   H15B12077   1.624   0.994   5.952  0.2392 -2.1075  1.2886
  116OSM   H15C12078   1.621   1.016   6.121  0.3332  1.1620  0.2953
  116OSM    C1412079   1.443   1.173   5.871 -0.1522  0.5942 -0.2088
  116OSM   H14A12080   1.346   1.214   5.847 -0.5071 -0.3737 -0.4820
  116OSM   H14B12081   1.453   1.096   5.795 -2.3451  1.2027 -1.1938
  116OSM   H14C12082   1.515   1.249   5.845 -0.2658  0.3964 -1.1554
  116OSM    C1312083   1.378   1.010   6.042  0.5669  0.1111 -0.3367
  116OSM   H13A12084   1.283   1.040   6.001  0.4598  1.8582  1.0644
  116OSM   H13B12085   1.371   1.008   6.150  2.7899  1.9701 -0.0986
  116OSM   H13C12086   1.405   0.913   6.003 -3.1398 -1.3722  0.2906
  116OSM    C1212087   1.434   1.231   6.123 -0.5806  0.4637  0.2738
  116OSM   H12A12088   1.331   1.261   6.126 -0.7111  0.0285  0.2425
  116OSM   H12B12089   1.487   1.322   6.098  0.0252  1.3105  4.1062
  116OSM    C1112090   1.478   1.203   6.265 -0.2191 -0.0399  0.4400
  116OSM   H11A12091   1.474   1.301   6.318 -0.0019  0.0490  0.2893
  116OSM   H11B12092   1.584   1.172   6.269 -0.7195 -1.8035  1.4235
  116OSM      P12093   1.264   1.120   6.373  0.3025 -0.0100  0.2135
  116OSM    O1312094   1.194   1.229   6.302  0.3092 -0.2002 -0.4552
  116OSM    O1412095   1.188   0.995   6.381  0.2089 -0.2915  0.1699
  116OSM    O1112096   1.287   1.171   6.518  0.2581  0.5814 -0.1295
  116OSM    O1212097   1.410   1.087   6.321  0.3771  0.1071  0.0431
  116OSM    C1S12098   1.399   1.128   6.604  1.1182 -0.4119  0.7704
  116OSM    H1S12099   1.493   1.138   6.546  0.8337 -0.5886  0.2674
  116OSM    H1T12100   1.388   1.024   6.641 -0.9216 -0.4412  0.2382
  116OSM     NF12101   1.509   1.159   6.829 -0.4870  0.1788  0.3746
  116OSM    HNF12102   1.467   1.115   6.908 -0.6902 -3.8451 -1.7362
  116OSM    C2S12103   1.422   1.218   6.731  0.6906 -0.8052 -0.5400
  116OSM    H2S12104   1.477   1.309   6.699  0.6137 -0.4729  0.2434
  116OSM    C3S12105   1.290   1.274   6.803  0.8001  0.5610  0.0702
  116OSM    H3S12106   1.236   1.185   6.841  1.0769  0.8961  1.3045
  116OSM     O312107   1.191   1.333   6.712 -0.0765  0.1023 -0.2922
  116OSM    HO312108   1.207   1.289   6.628 -0.3598  0.1084 -0.3508
  116OSM    C4S12109   1.320   1.363   6.920  0.0646  0.1715  0.2994
  116OSM    H4S12110   1.297   1.309   7.013  0.0080  0.6835  0.5879
  116OSM    C5S12111   1.349   1.493   6.909  0.0418 -0.1693 -0.1553
  116OSM    H5S12112   1.362   1.543   6.812  3.9952 -0.9874 -0.2177
  116OSM    C6S12113   1.382   1.586   7.026 -0.9555 -0.0770  0.4094
  116OSM    H6S12114   1.339   1.687   7.010  0.7830  0.9986  2.1333
  116OSM    H6T12115   1.490   1.610   7.043 -1.2777  1.6360  0.1963
  116OSM    C7S12116   1.332   1.529   7.154 -0.3491 -0.2462 -0.1731
  116OSM    H7S12117   1.374   1.428   7.172  0.6396  0.1292 -0.2997
  116OSM    H7T12118   1.224   1.503   7.153 -0.5456  0.4726  0.6835
  116OSM    C8S12119   1.375   1.616   7.279  0.8980 -0.9953  0.3871
  116OSM    H8S12120   1.307   1.701   7.300 -1.3088 -2.2083 -1.4258
  116OSM    H8T12121   1.473   1.666   7.261 -0.4036  1.2922 -0.7587
  116OSM    C9S12122   1.415   1.533   7.405  0.0108 -0.1085  0.2537
  116OSM    H9S12123   1.461   1.441   7.364  2.2170  1.3918 -0.8124
  116OSM    H9T12124   1.321   1.504   7.456 -0.7910  0.5007 -0.8258
  116OSM   C10S12125   1.503   1.611   7.504 -0.1504  0.1314  0.7247
  116OSM   H10S12126   1.451   1.706   7.529  1.2367  0.4339  2.7325
  116OSM   H10T12127   1.599   1.628   7.452 -0.4780  0.2430  0.1539
  116OSM   C11S12128   1.531   1.538   7.630  0.1067  0.3426  0.0067
  116OSM   H11S12129   1.563   1.436   7.603  0.6875  0.8582 -1.3645
  116OSM   H11T12130   1.427   1.518   7.665  0.4390 -1.4250  0.0607
  116OSM   C12S12131   1.610   1.621   7.735 -0.0164  0.5194  0.4680
  116OSM   H12S12132   1.555   1.715   7.754 -0.2417  0.6253 -0.6522
  116OSM   H12T12133   1.702   1.643   7.677 -0.6382 -0.5731 -0.9809
  116OSM   C13S12134   1.636   1.526   7.853  0.3061  0.4501 -0.4703
  116OSM   H13S12135   1.693   1.432   7.836 -0.7776  0.0028 -1.8073
  116OSM   H13T12136   1.533   1.491   7.878 -0.8934  3.1513 -1.2191
  116OSM   C14S12137   1.704   1.583   7.977  0.1843 -0.2822  0.3574
  116OSM   H14S12138   1.635   1.654   8.027 -0.5208 -1.0621  0.5061
  116OSM   H14T12139   1.792   1.643   7.945 -2.6676  3.2002 -1.6481
  116OSM   C15S12140   1.754   1.490   8.094  0.3895 -0.4975 -0.0523
  116OSM   H15S12141   1.846   1.538   8.133  0.8548  0.6490 -2.3895
  116OSM   H15T12142   1.791   1.396   8.047  2.3660  0.8925 -1.4474
  116OSM   C16S12143   1.649   1.476   8.200 -0.3685  0.5464  0.3177
  116OSM   H16S12144   1.558   1.442   8.145 -0.2356  1.3986 -0.4491
  116OSM   H16T12145   1.640   1.574   8.250 -1.4734  1.2059 -1.0857
  116OSM   C17S12146   1.668   1.371   8.311  0.2515 -0.2595 -0.5758
  116OSM   H17S12147   1.728   1.426   8.387 -0.3472  1.5251 -1.3398
  116OSM   H17T12148   1.733   1.287   8.279  1.7278 -0.3143  2.2080
  116OSM   C18S12149   1.539   1.328   8.370  0.1496 -0.0823  0.2513
  116OSM   H18S12150   1.479   1.277   8.292  0.0515  1.5202 -0.7693
  116OSM   H18T12151   1.473   1.410   8.407 -2.5080 -0.7682 -2.6048
  116OSM   H18U12152   1.560   1.264   8.458 -0.5685 -2.2328 -1.0609
  116OSM    C1F12153   1.644   1.144   6.818 -0.3848  1.0967  0.0710
  116OSM     OF12154   1.702   1.192   6.722 -0.1706 -0.0717  0.1711
  116OSM    C2F12155   1.728   1.076   6.923 -0.5980 -0.7609  0.4736
  116OSM    H2F12156   1.667   0.992   6.962 -0.1873 -0.9383  0.7514
  116OSM    H2G12157   1.747   1.148   7.006 -0.3559 -0.0822 -0.1697
  116OSM    C3F12158   1.875   1.037   6.883 -0.0264 -0.2544  0.0196
  116OSM    H3F12159   1.942   1.123   6.867 -1.8752  1.7110  2.0974
  116OSM    H3G12160   1.855   0.986   6.786 -0.4640  0.5647 -0.3273
  116OSM    C4F12161   1.958   0.950   6.977  0.2074  0.3801  0.9447
  116OSM    H4F12162   2.051   0.919   6.924  1.3667  1.2613  2.3737
  116OSM    H4G12163   1.903   0.856   6.998  0.9295 -0.3340 -0.2362
  116OSM    C5F12164   1.997   1.024   7.100 -0.0827 -0.0490 -0.3573
  116OSM    H5F12165   1.901   1.047   7.151 -0.2069 -0.7193 -0.2880
  116OSM    H5G12166   2.042   1.123   7.078 -1.3596  0.3281 -1.3829
  116OSM    C6F12167   2.091   0.950   7.200 -0.1221 -0.1423 -0.1358
  116OSM    H6F12168   2.184   0.941   7.140 -1.4357 -0.4274 -2.2161
  116OSM    H6G12169   2.047   0.851   7.224  1.9240 -1.2088 -0.5635
  116OSM    C7F12170   2.109   1.032   7.332 -0.2016 -0.0466 -0.6263
  116OSM    H7F12171   2.006   1.037   7.371  0.3528  1.3027  0.7691
  116OSM    H7G12172   2.148   1.135   7.314  0.2727 -0.4519 -2.0937
  116OSM    C8F12173   2.201   0.972   7.440  0.2723 -0.3226  0.7446
  116OSM    H8F12174   2.310   0.977   7.419  0.4307 -2.9267  0.6741
  116OSM    H8G12175   2.185   0.863   7.436  0.3157 -0.2886 -1.8093
  116OSM    C9F12176   2.172   1.050   7.567 -0.9660  0.5297  0.2188
  116OSM    H9F12177   2.144   1.155   7.550  0.2688  1.1482  1.7534
  116OSM   C10F12178   2.171   0.992   7.690  0.6387  0.0205 -0.4100
  116OSM   H10F12179   2.135   1.052   7.775  2.0765 -0.6255  0.6976
  116OSM   C11F12180   2.199   0.847   7.718 -0.8077 -0.1320  0.3210
  116OSM   H11F12181   2.251   0.806   7.629  0.9037  0.0516  1.1989
  116OSM   H11G12182   2.103   0.793   7.732 -1.0900 -0.4616 -2.2792
  116OSM   C12F12183   2.289   0.816   7.838  0.2126 -0.5792  0.0750
  116OSM   H12F12184   2.380   0.880   7.838  1.9954 -2.9695  0.1256
  116OSM   H12G12185   2.332   0.713   7.837  0.1876 -0.5877 -0.0426
  116OSM   C13F12186   2.224   0.836   7.975 -0.1496 -0.2853 -0.7122
  116OSM   H13F12187   2.124   0.788   7.987 -1.0162  1.9969  2.4803
  116OSM   H13G12188   2.201   0.944   7.987 -1.6921 -0.6004 -0.5119
  116OSM   C14F12189   2.314   0.780   8.084  1.1427 -0.4599  0.4408
  116OSM   H14F12190   2.411   0.834   8.089  0.3261  1.3443 -1.7747
  116OSM   H14G12191   2.342   0.674   8.062  3.2823  0.5438 -2.1667
  116OSM   C15F12192   2.243   0.792   8.223 -0.0009 -0.8153 -0.1686
  116OSM   H15F12193   2.137   0.757   8.222 -0.1517 -0.4176  0.7844
  116OSM   H15G12194   2.234   0.902   8.238  0.0374 -0.4328 -2.5256
  116OSM   C16F12195   2.317   0.721   8.327 -0.0055 -0.3010  0.1848
  116OSM   H16F12196   2.407   0.779   8.354 -0.9452  0.5251  1.6857
  116OSM   H16G12197   2.337   0.621   8.282  2.4384 -0.3440  1.2043
  116OSM   C17F12198   2.240   0.704   8.458  0.4527 -0.0673 -0.5277
  116OSM   H17F12199   2.136   0.667   8.446 -0.3980  2.3049 -1.0207
  116OSM   H17G12200   2.241   0.803   8.509  2.1114 -1.1130  1.6529
  116OSM   C18F12201   2.300   0.603   8.558 -0.2331  0.3165 -0.4658
  116OSM   H18F12202   2.403   0.633   8.584 -0.2163  0.5114 -0.7507
  116OSM   H18G12203   2.303   0.498   8.522  0.3592  0.5219 -1.0388
  116OSM   H18H12204   2.248   0.605   8.656  2.5438  0.8871  1.1014
  117OSM      N12205   6.547   1.525   5.939 -0.0474  0.2047  0.3622
  117OSM    C1512206   6.526   1.378   5.964  0.1047  0.3457 -0.3798
  117OSM   H15A12207   6.460   1.357   6.046  1.3131 -1.5481  0.1789
  117OSM   H15B12208   6.618   1.339   6.005 -0.5636 -0.4217  0.4396
  117OSM   H15C12209   6.498   1.315   5.880 -2.1732 -0.6479  1.0479
  117OSM    C1412210   6.671   1.540   5.863 -0.7050 -0.5307  0.0323
  117OSM   H14A12211   6.671   1.474   5.778 -1.8088 -1.8919  1.0368
  117OSM   H14B12212   6.761   1.517   5.917  2.0326  1.7084 -3.2013
  117OSM   H14C12213   6.681   1.642   5.827  1.1797  0.2598  2.5374
  117OSM    C1312214   6.439   1.575   5.858  0.5935  0.5808 -0.0709
  117OSM   H13A12215   6.456   1.676   5.826  0.1497  0.6260 -0.1778
  117OSM   H13B12216   6.339   1.554   5.895  0.4911  0.0139 -0.6355
  117OSM   H13C12217   6.438   1.514   5.769  1.7052 -1.4626  1.2239
  117OSM    C1212218   6.551   1.593   6.071 -0.4384 -0.3087  0.3007
  117OSM   H12A12219   6.450   1.603   6.109 -0.2879  0.8661  0.3984
  117OSM   H12B12220   6.591   1.691   6.053 -1.0821 -0.1993 -0.6310
  117OSM    C1112221   6.610   1.523   6.200  0.3031 -0.3372  0.3900
  117OSM   H11A12222   6.525   1.455   6.223  0.1773 -0.1757  0.4104
  117OSM   H11B12223   6.601   1.593   6.286 -4.3209 -1.4378  1.0931
  117OSM      P12224   6.866   1.557   6.190  0.2851 -0.0380 -0.1388
  117OSM    O1312225   6.982   1.493   6.121 -0.4114  0.4052 -0.5606
  117OSM    O1412226   6.828   1.697   6.145 -0.1711 -0.1771 -0.1894
  117OSM    O1112227   6.898   1.561   6.342 -0.2200  0.9017  0.1906
  117OSM    O1212228   6.742   1.462   6.171  0.1948  0.4165 -0.2181
  117OSM    C1S12229   6.882   1.443   6.422  0.7146  0.2860 -0.5216
  117OSM    H1S12230   6.963   1.372   6.392 -2.1378 -2.8932 -1.3499
  117OSM    H1T12231   6.787   1.389   6.402  0.6377  0.5399 -0.8461
  117OSM     NF12232   6.904   1.348   6.643  0.5094 -0.0865 -0.5743
  117OSM    HNF12233   6.827   1.299   6.684  1.4999 -1.6468 -0.5417
  117OSM    C2S12234   6.883   1.475   6.577 -0.8846  0.2461 -0.2795
  117OSM    H2S12235   6.961   1.553   6.582 -0.6520  0.2369 -2.5503
  117OSM    C3S12236   6.747   1.536   6.612  0.3332 -0.1234 -0.0309
  117OSM    H3S12237   6.667   1.459   6.604 -1.0313  1.3191 -0.8757
  117OSM     O312238   6.703   1.641   6.525  0.2683  0.3230  0.1891
  117OSM    HO312239   6.764   1.634   6.451  0.1998  4.5994 -0.4924
  117OSM    C4S12240   6.748   1.585   6.749 -0.1870  0.1311 -0.8534
  117OSM    H4S12241   6.723   1.508   6.823  2.9997 -0.1952  0.0406
  117OSM    C5S12242   6.777   1.704   6.803 -0.2552 -0.3162  0.2519
  117OSM    H5S12243   6.798   1.787   6.735 -0.6963 -1.9155 -1.9455
  117OSM    C6S12244   6.783   1.737   6.955 -0.5042 -0.2284  0.1616
  117OSM    H6S12245   6.770   1.847   6.971 -0.3854 -0.4911  2.3428
  117OSM    H6T12246   6.881   1.704   6.995  1.5147  1.0356 -3.2545
  117OSM    C7S12247   6.664   1.672   7.031  0.4432 -0.3551  0.1594
  117OSM    H7S12248   6.665   1.562   7.016 -0.2468 -0.4540  0.7762
  117OSM    H7T12249   6.568   1.704   6.986  0.0749 -2.9639 -1.1331
  117OSM    C8S12250   6.648   1.713   7.175 -0.2429  0.5759 -0.2665
  117OSM    H8S12251   6.540   1.732   7.187 -0.2201  2.1291 -2.0172
  117OSM    H8T12252   6.708   1.805   7.194  1.8041 -0.7630  0.0801
  117OSM    C9S12253   6.706   1.605   7.280 -0.7871 -0.5847 -0.2985
  117OSM    H9S12254   6.812   1.590   7.251 -0.4813 -1.8774  1.2793
  117OSM    H9T12255   6.654   1.508   7.265 -0.3399 -0.9405  0.3891
  117OSM   C10S12256   6.691   1.661   7.418  0.8766  0.5553  0.7222
  117OSM   H10S12257   6.587   1.696   7.436  0.7805 -0.3101  2.0292
  117OSM   H10T12258   6.751   1.754   7.422  1.2049  0.4093 -0.4092
  117OSM   C11S12259   6.724   1.571   7.529  0.0420  1.0910 -0.0550
  117OSM   H11S12260   6.826   1.532   7.508  0.0415  1.8159 -1.4974
  117OSM   H11T12261   6.660   1.480   7.539  0.9764  0.4292 -0.0037
  117OSM   C12S12262   6.732   1.642   7.665  0.1611  0.4483 -0.4865
  117OSM   H12S12263   6.624   1.665   7.682 -0.3431 -2.1658  0.3387
  117OSM   H12T12264   6.793   1.735   7.657 -0.0503  0.5179 -1.3674
  117OSM   C13S12265   6.774   1.566   7.789 -0.0014 -0.2075  0.1054
  117OSM   H13S12266   6.881   1.541   7.771 -0.2554 -0.3072 -1.4573
  117OSM   H13T12267   6.705   1.479   7.794  0.7366 -0.7356  1.4326
  117OSM   C14S12268   6.768   1.646   7.916 -0.8837  0.1779  0.0726
  117OSM   H14S12269   6.667   1.649   7.962 -0.6184 -1.2673  0.8066
  117OSM   H14T12270   6.792   1.752   7.891  0.4418 -0.3858 -1.1576
  117OSM   C15S12271   6.881   1.593   8.021  1.0349  0.3166 -0.2729
  117OSM   H15S12272   6.979   1.644   8.008  2.6423 -2.6772 -0.9562
  117OSM   H15T12273   6.885   1.483   8.005 -0.7760  0.4927 -2.3458
  117OSM   C16S12274   6.844   1.609   8.167  0.2146  0.8816  0.8453
  117OSM   H16S12275   6.766   1.542   8.208  1.2315 -0.6653  0.3345
  117OSM   H16T12276   6.813   1.715   8.179  1.3712  1.0841  2.4132
  117OSM   C17S12277   6.963   1.603   8.261  0.0499 -0.4975 -0.4901
  117OSM   H17S12278   7.038   1.681   8.235  1.4751 -1.4416  0.6172
  117OSM   H17T12279   7.001   1.501   8.239  0.7221 -0.1505 -1.0021
  117OSM   C18S12280   6.911   1.612   8.411 -0.4984 -0.8963  0.6568
  117OSM   H18S12281   6.990   1.582   8.484  0.4906 -1.3433 -0.5701
  117OSM   H18T12282   6.817   1.556   8.433 -2.5222  2.1460  0.3518
  117OSM   H18U12283   6.879   1.712   8.448  0.8114 -1.5250  3.8495
  117OSM    C1F12284   7.028   1.294   6.647  0.1048  0.3213  0.4490
  117OSM     OF12285   7.121   1.339   6.576  0.4911  0.4863 -0.0006
  117OSM    C2F12286   7.036   1.171   6.730 -0.1437  0.2185 -0.0727
  117OSM    H2F12287   7.024   1.075   6.676  0.3231 -0.5957  1.2127
  117OSM    H2G12288   6.961   1.187   6.811  0.3402  0.7914  0.2674
  117OSM    C3F12289   7.177   1.154   6.796  0.0230 -0.8586 -0.2960
  117OSM    H3F12290   7.194   1.247   6.853  1.4331 -1.4418  0.2710
  117OSM    H3G12291   7.248   1.148   6.711  0.5611  2.3606 -0.2069
  117OSM    C4F12292   7.180   1.033   6.889  0.3514  0.2477  0.9565
  117OSM    H4F12293   7.176   0.946   6.820 -1.0801  0.5328  0.6402
  117OSM    H4G12294   7.087   1.012   6.947  1.1932  0.0196  2.2612
  117OSM    C5F12295   7.314   1.019   6.963 -0.7795  0.0490 -0.0209
  117OSM    H5F12296   7.399   1.014   6.891  0.2157 -0.0490  1.1235
  117OSM    H5G12297   7.320   0.928   7.027  0.2230  0.7305  0.8901
  117OSM    C6F12298   7.351   1.133   7.064  0.4061 -0.8621  0.4054
  117OSM    H6F12299   7.260   1.195   7.080  0.7253 -0.4646  0.6987
  117OSM    H6G12300   7.418   1.203   7.009  0.1716 -1.0531 -0.1334
  117OSM    C7F12301   7.404   1.089   7.202 -0.1585  0.0781 -0.0902
  117OSM    H7F12302   7.504   1.044   7.184  0.0940  0.8253 -0.5977
  117OSM    H7G12303   7.335   1.010   7.238 -0.8039  0.9010  0.4833
  117OSM    C8F12304   7.419   1.203   7.296 -0.1157  0.0343 -0.2371
  117OSM    H8F12305   7.330   1.268   7.277  2.0031  2.7714 -1.5318
  117OSM    H8G12306   7.513   1.248   7.258 -0.1249  0.1418 -0.1348
  117OSM    C9F12307   7.434   1.161   7.439  0.5485  0.4754  0.2533
  117OSM    H9F12308   7.531   1.119   7.470 -0.0998  1.6010  4.5001
  117OSM   C10F12309   7.347   1.175   7.536  0.0585 -0.0522  0.3077
  117OSM   H10F12310   7.382   1.134   7.632  4.0985 -0.7032 -1.2589
  117OSM   C11F12311   7.205   1.227   7.538 -0.7472 -0.4712  0.0880
  117OSM   H11F12312   7.145   1.157   7.599  0.8926  1.0618  3.7338
  117OSM   H11G12313   7.159   1.234   7.437 -4.0341 -1.0918  1.4284
  117OSM   C12F12314   7.183   1.360   7.606  0.2060  0.2811 -0.1651
  117OSM   H12F12315   7.114   1.424   7.547 -1.2743 -0.3224  0.8659
  117OSM   H12G12316   7.278   1.418   7.597  0.5511 -0.5587 -2.7308
  117OSM   C13F12317   7.126   1.367   7.752  0.2164 -0.4387 -0.0182
  117OSM   H13F12318   7.021   1.331   7.752  0.7472 -2.0787 -0.0797
  117OSM   H13G12319   7.135   1.471   7.790  1.3074 -0.5307 -0.0100
  117OSM   C14F12320   7.214   1.280   7.842  0.3510  0.2272 -0.4460
  117OSM   H14F12321   7.322   1.297   7.819 -0.0646  1.7678 -1.3532
  117OSM   H14G12322   7.194   1.172   7.824  2.8467 -0.0422 -2.2365
  117OSM   C15F12323   7.183   1.323   7.984 -0.4283  0.2358 -0.1620
  117OSM   H15F12324   7.075   1.297   7.993  0.0658 -2.6154 -1.2081
  117OSM   H15G12325   7.196   1.433   7.994 -3.2630  0.7508 -1.0484
  117OSM   C16F12326   7.262   1.244   8.084 -0.4642  0.0732  0.6459
  117OSM   H16F12327   7.252   1.139   8.047  0.4327 -0.3868  1.6872
  117OSM   H16G12328   7.209   1.246   8.182 -0.2332 -1.0517  0.8054
  117OSM   C17F12329   7.412   1.270   8.104 -0.2788  0.9074  0.4009
  117OSM   H17F12330   7.468   1.255   8.009  2.3924  1.3918  1.7958
  117OSM   H17G12331   7.427   1.376   8.136  1.6800  1.4247 -1.9096
  117OSM   C18F12332   7.455   1.168   8.207  0.2774 -1.1467  0.7732
  117OSM   H18F12333   7.553   1.206   8.243 -1.7147  3.1923  2.3075
  117OSM   H18G12334   7.458   1.065   8.165 -1.4014 -0.8963 -0.0384
  117OSM   H18H12335   7.388   1.168   8.296 -1.9128  1.4532 -0.7510
  118OSM      N12336   3.082   2.935   6.056 -0.1547 -0.3987 -0.0696
  118OSM    C1512337   3.007   2.927   5.927 -0.6466 -0.4874  0.5615
  118OSM   H15A12338   2.962   2.829   5.925  0.6660 -1.1107  0.6370
  118OSM   H15B12339   3.079   2.937   5.847  2.1772 -1.1327  2.8266
  118OSM   H15C12340   2.924   2.994   5.914  0.5847  0.9093 -0.5097
  118OSM    C1412341   2.986   2.917   6.169  0.5318 -0.0766 -0.7379
  118OSM   H14A12342   3.040   2.952   6.255 -0.9649  1.0524 -0.2099
  118OSM   H14B12343   2.955   2.813   6.174  0.6615 -0.0623  0.9559
  118OSM   H14C12344   2.903   2.986   6.167  1.0775  0.8500  2.4931
  118OSM    C1312345   3.177   2.822   6.055  0.0390  0.3751 -0.3641
  118OSM   H13A12346   3.122   2.730   6.046  1.6554 -0.6806  0.0844
  118OSM   H13B12347   3.226   2.819   6.151 -1.3986  1.5384  0.4533
  118OSM   H13C12348   3.243   2.831   5.970  0.2346 -0.3479 -0.2940
  118OSM    C1212349   3.154   3.071   6.072 -0.3967  1.1849  0.1349
  118OSM   H12A12350   3.092   3.151   6.034 -0.2426  1.4827  0.5120
  118OSM   H12B12351   3.240   3.059   6.008  0.7524  0.2560  1.7794
  118OSM    C1112352   3.224   3.097   6.216 -0.3030 -0.5595 -0.7206
  118OSM   H11A12353   3.153   3.130   6.295 -0.1866  0.4704 -1.0303
  118OSM   H11B12354   3.282   3.191   6.205 -0.1502 -0.4701  0.6365
  118OSM      P12355   3.457   2.981   6.264 -0.3716  0.0020  0.0386
  118OSM    O1312356   3.492   2.847   6.313  0.4915  0.1696 -0.3271
  118OSM    O1412357   3.507   3.027   6.131  1.0361  0.0147 -0.5466
  118OSM    O1112358   3.509   3.083   6.376 -0.0257 -0.4600 -0.7067
  118OSM    O1212359   3.302   2.988   6.267  0.3221 -0.5104 -0.5812
  118OSM    C1S12360   3.450   3.092   6.505 -0.0524 -0.3435 -0.0537
  118OSM    H1S12361   3.518   3.030   6.568 -0.8117 -0.7750  0.3456
  118OSM    H1T12362   3.346   3.057   6.524  0.8969 -2.0943  2.5768
  118OSM     NF12363   3.419   3.230   6.700  0.3016  0.6658  0.0070
  118OSM    HNF12364   3.323   3.252   6.719 -0.6889 -1.5800 -1.8585
  118OSM    C2S12365   3.458   3.229   6.564 -0.2203  0.2801 -1.1359
  118OSM    H2S12366   3.565   3.254   6.548 -0.1046  0.3714 -0.2498
  118OSM    C3S12367   3.379   3.330   6.479  0.1799  0.2384 -0.3753
  118OSM    H3S12368   3.278   3.282   6.478  0.2517 -0.1115  2.0956
  118OSM     O312369   3.423   3.343   6.346 -0.8087 -0.0059 -0.2572
  118OSM    HO312370   3.466   3.260   6.323  0.4620  0.1083  1.5314
  118OSM    C4S12371   3.370   3.461   6.547 -0.6347 -0.1435  0.7647
  118OSM    H4S12372   3.272   3.495   6.582 -1.8067 -2.1017 -0.4611
  118OSM    C5S12373   3.475   3.545   6.557 -0.4061  0.1069 -0.0314
  118OSM    H5S12374   3.576   3.525   6.520 -0.4732  1.9816 -1.3708
  118OSM    C6S12375   3.467   3.683   6.619  0.6424 -0.0231  0.5792
  118OSM    H6S12376   3.364   3.723   6.629  0.1673 -0.8503 -0.7222
  118OSM    H6T12377   3.503   3.767   6.556 -0.1045  0.0205  0.1974
  118OSM    C7S12378   3.559   3.699   6.742 -0.6643  0.3116  0.5495
  118OSM    H7S12379   3.502   3.663   6.831 -1.5749  1.8406  0.6205
  118OSM    H7T12380   3.573   3.809   6.748 -0.5784  0.2508  1.5545
  118OSM    C8S12381   3.694   3.620   6.731  0.0162 -0.1503 -0.4255
  118OSM    H8S12382   3.754   3.662   6.647  0.7980  2.1251  1.1750
  118OSM    H8T12383   3.682   3.510   6.726  0.1237 -0.2828  1.4118
  118OSM    C9S12384   3.787   3.645   6.855 -0.1215  0.5292  0.5818
  118OSM    H9S12385   3.817   3.752   6.859 -3.1407  1.4994 -0.3494
  118OSM    H9T12386   3.879   3.581   6.857  0.4340  1.3283  1.6758
  118OSM   C10S12387   3.717   3.623   6.989  0.7964  0.2655 -0.7341
  118OSM   H10S12388   3.670   3.522   6.995  0.8928  0.3051  1.4708
  118OSM   H10T12389   3.637   3.699   6.988  2.3244  1.9702 -2.7649
  118OSM   C11S12390   3.798   3.654   7.112 -0.2519 -0.2167  0.2583
  118OSM   H11S12391   3.818   3.763   7.118  3.1648 -0.7481  5.7197
  118OSM   H11T12392   3.901   3.614   7.099 -0.4708 -1.2327  1.4660
  118OSM   C12S12393   3.725   3.622   7.241  0.0443 -0.0317 -0.1650
  118OSM   H12S12394   3.716   3.513   7.260  0.8101  0.0822  0.9494
  118OSM   H12T12395   3.630   3.679   7.240  1.9016  3.3693 -2.3127
  118OSM   C13S12396   3.791   3.696   7.356 -0.0365 -0.2517 -0.1611
  118OSM   H13S12397   3.779   3.806   7.347 -0.7206 -0.3292 -0.2240
  118OSM   H13T12398   3.901   3.680   7.355  0.5861  3.1645  0.8913
  118OSM   C14S12399   3.728   3.669   7.494  0.4734 -0.2032  0.4284
  118OSM   H14S12400   3.754   3.568   7.533 -1.2786 -0.8176  0.1275
  118OSM   H14T12401   3.618   3.682   7.481  0.8390  1.9327 -1.1183
  118OSM   C15S12402   3.768   3.779   7.598  0.4825  0.8676 -0.2841
  118OSM   H15S12403   3.775   3.880   7.552  0.5195  1.3379  0.7204
  118OSM   H15T12404   3.868   3.749   7.636  1.2890  1.3898 -1.8983
  118OSM   C16S12405   3.683   3.784   7.723  0.2517  0.0236 -0.1705
  118OSM   H16S12406   3.659   3.681   7.757 -0.1988  0.1336 -0.1534
  118OSM   H16T12407   3.585   3.832   7.703  1.1665  2.7589  1.3378
  118OSM   C17S12408   3.752   3.866   7.835  0.4974 -0.0598  0.6189
  118OSM   H17S12409   3.744   3.973   7.808 -0.1614 -0.2770 -0.0992
  118OSM   H17T12410   3.860   3.840   7.835  1.1062  2.2253  1.4113
  118OSM   C18S12411   3.699   3.853   7.977 -0.4824 -0.0136 -0.5428
  118OSM   H18S12412   3.759   3.915   8.048 -0.7290 -0.0134 -0.3334
  118OSM   H18T12413   3.693   3.745   8.003 -0.8935  0.3928  1.2034
  118OSM   H18U12414   3.598   3.899   7.973 -0.0894  0.8433 -0.8889
  118OSM    C1F12415   3.502   3.198   6.798  0.0129 -0.4319  0.0763
  118OSM     OF12416   3.611   3.158   6.772 -0.3583 -0.5284 -0.1512
  118OSM    C2F12417   3.454   3.204   6.936 -0.5922  0.0633  1.0025
  118OSM    H2F12418   3.390   3.114   6.953 -2.4407  1.0395 -0.3736
  118OSM    H2G12419   3.391   3.295   6.949 -0.7374  0.1112  0.0615
  118OSM    C3F12420   3.569   3.193   7.042 -0.1517  0.7517  1.0366
  118OSM    H3F12421   3.637   3.281   7.036 -0.1987  0.8613  1.9337
  118OSM    H3G12422   3.628   3.103   7.015 -2.5437 -0.5854 -0.0772
  118OSM    C4F12423   3.507   3.168   7.175  0.2916  0.1806 -0.0221
  118OSM    H4F12424   3.523   3.061   7.202 -2.1343  0.3947  2.6446
  118OSM    H4G12425   3.398   3.187   7.178  0.2874  0.0854  2.2933
  118OSM    C5F12426   3.577   3.250   7.286 -1.3348  0.0763 -0.3941
  118OSM    H5F12427   3.566   3.359   7.269  2.7087  0.4515 -1.4736
  118OSM    H5G12428   3.684   3.231   7.265 -1.8111 -0.8461 -2.2573
  118OSM    C6F12429   3.539   3.207   7.426  0.5128 -0.5014  0.3961
  118OSM    H6F12430   3.611   3.247   7.500 -1.4383 -1.0674  2.7367
  118OSM    H6G12431   3.545   3.096   7.431  4.2819 -0.4601 -0.0359
  118OSM    C7F12432   3.400   3.258   7.463 -0.5161  0.2684  0.0419
  118OSM    H7F12433   3.328   3.210   7.393 -1.7878  4.1275 -1.6050
  118OSM    H7G12434   3.394   3.365   7.433  2.6689  1.0758  1.8465
  118OSM    C8F12435   3.356   3.249   7.604 -0.0275  0.0191 -0.8073
  118OSM    H8F12436   3.335   3.142   7.627 -2.9820  1.1693  2.9232
  118OSM    H8G12437   3.255   3.295   7.609  0.5224  1.4046 -1.6956
  118OSM    C9F12438   3.444   3.302   7.713  0.5759 -0.5707  0.1917
  118OSM    H9F12439   3.539   3.257   7.742  1.4132  0.5776 -0.6794
  118OSM   C10F12440   3.414   3.429   7.765  0.6541  0.9438  0.5393
  118OSM   H10F12441   3.487   3.469   7.838  1.1112 -0.8901  1.1397
  118OSM   C11F12442   3.301   3.515   7.725  0.3289 -0.0167  0.3026
  118OSM   H11F12443   3.222   3.509   7.803 -0.6913 -1.1088 -0.7633
  118OSM   H11G12444   3.269   3.499   7.619 -0.0658  2.2131  0.0275
  118OSM   C12F12445   3.348   3.661   7.717  0.9119  0.1391  0.2346
  118OSM   H12F12446   3.443   3.661   7.660  0.4822 -1.1988 -0.5275
  118OSM   H12G12447   3.390   3.701   7.812  3.2984  2.8819 -1.8165
  118OSM   C13F12448   3.246   3.752   7.649 -0.7415  0.1974 -1.0926
  118OSM   H13F12449   3.249   3.849   7.702 -1.5981  0.2568 -1.1373
  118OSM   H13G12450   3.141   3.716   7.655 -1.3633  2.1372  2.5353
  118OSM   C14F12451   3.272   3.785   7.503 -0.2824 -0.3738  0.6103
  118OSM   H14F12452   3.361   3.852   7.505 -0.0899 -0.6288  0.5663
  118OSM   H14G12453   3.199   3.854   7.454  1.5709  3.2229  2.4473
  118OSM   C15F12454   3.282   3.664   7.416 -0.1805  0.8885  0.1614
  118OSM   H15F12455   3.186   3.609   7.415 -0.3547  1.1837 -1.1574
  118OSM   H15G12456   3.359   3.587   7.442 -0.1358  0.0254 -2.3358
  118OSM   C16F12457   3.291   3.704   7.258 -0.0887  0.6380  0.4303
  118OSM   H16F12458   3.393   3.744   7.241 -1.2052  4.0308  0.9598
  118OSM   H16G12459   3.214   3.779   7.228 -0.7490 -0.9325 -2.0970
  118OSM   C17F12460   3.273   3.574   7.175 -0.3304 -0.2578  1.0262
  118OSM   H17F12461   3.166   3.552   7.155  0.1566 -0.7560 -1.3550
  118OSM   H17G12462   3.317   3.493   7.237  3.3597  2.2132  1.9916
  118OSM   C18F12463   3.351   3.582   7.044  0.7227  0.4941  0.4744
  118OSM   H18F12464   3.459   3.567   7.063  0.9309 -0.4546 -1.3240
  118OSM   H18G12465   3.321   3.678   6.997 -1.7016 -0.0431  0.7970
  118OSM   H18H12466   3.321   3.505   6.971  2.8278 -1.7774  1.8410
  119OSM      N12467   4.099   3.440   5.937 -0.1447  0.8337  0.2591
  119OSM    C1512468   4.135   3.563   5.865 -1.0172  0.2423  0.3921
  119OSM   H15A12469   4.242   3.575   5.855 -1.2694  2.7861 -0.0480
  119OSM   H15B12470   4.102   3.656   5.908 -0.7196  1.2634 -1.4633
  119OSM   H15C12471   4.096   3.558   5.764 -0.0589 -0.1102  0.0311
  119OSM    C1412472   3.952   3.422   5.956 -0.3123  0.0024  0.0886
  119OSM   H14A12473   3.889   3.428   5.869 -3.4589 -0.9467  2.1403
  119OSM   H14B12474   3.923   3.502   6.022  1.2942  1.8803 -1.3671
  119OSM   H14C12475   3.918   3.331   6.005 -0.4874 -0.5624 -1.0504
  119OSM    C1312476   4.166   3.322   5.866  0.0094  0.0613  0.5115
  119OSM   H13A12477   4.178   3.241   5.935  2.3715  0.5749  0.8010
  119OSM   H13B12478   4.262   3.359   5.832 -0.4689 -0.3851 -1.4681
  119OSM   H13C12479   4.107   3.284   5.784  0.5750  1.8568 -0.8072
  119OSM    C1212480   4.157   3.446   6.081 -0.0642 -0.5453  0.9823
  119OSM   H12A12481   4.140   3.539   6.135 -0.9608 -0.6092  0.8209
  119OSM   H12B12482   4.263   3.436   6.067 -0.1479 -0.1044 -0.0771
  119OSM    C1112483   4.115   3.331   6.170  0.5885 -0.3499 -0.2650
  119OSM   H11A12484   4.011   3.352   6.203 -0.0096 -2.2708 -0.7557
  119OSM   H11B12485   4.173   3.328   6.265 -0.7742 -1.0795  0.5717
  119OSM      P12486   4.019   3.087   6.163 -0.1065 -0.2119 -0.7964
  119OSM    O1312487   3.897   3.108   6.086  0.2164 -0.2166 -0.2297
  119OSM    O1412488   4.087   2.952   6.167 -0.0289 -0.0620 -0.3633
  119OSM    O1112489   3.983   3.117   6.316  0.0570  0.0446 -0.0907
  119OSM    O1212490   4.121   3.200   6.115 -1.0053  0.5437  0.3366
  119OSM    C1S12491   3.868   3.050   6.371 -0.2825 -0.1820 -0.6581
  119OSM    H1S12492   3.872   2.939   6.369 -0.1909 -0.2352  1.0377
  119OSM    H1T12493   3.774   3.090   6.328 -0.9684 -0.6172  0.4096
  119OSM     NF12494   3.777   2.995   6.602  0.3487  0.2598 -0.5582
  119OSM    HNF12495   3.714   3.048   6.659  0.9125  1.9536 -1.4559
  119OSM    C2S12496   3.873   3.079   6.526 -0.0416  0.6089 -0.1945
  119OSM    H2S12497   3.971   3.051   6.570  0.4465 -0.3015 -1.7541
  119OSM    C3S12498   3.865   3.234   6.558  0.0699  0.3015  1.0017
  119OSM    H3S12499   3.757   3.260   6.554  0.3311  1.3010 -1.0470
  119OSM     O312500   3.923   3.320   6.463  0.2280 -0.0550  0.2706
  119OSM    HO312501   3.939   3.261   6.389  0.0231  0.3241 -0.0757
  119OSM    C4S12502   3.916   3.261   6.691  0.3758 -0.9552 -0.2861
  119OSM    H4S12503   3.838   3.283   6.766  1.7034 -0.2538  0.9394
  119OSM    C5S12504   4.047   3.271   6.716  0.4783  0.3853  0.4716
  119OSM    H5S12505   4.109   3.257   6.626 -1.9946  1.1572 -1.4498
  119OSM    C6S12506   4.120   3.294   6.850  0.7202 -0.6947 -0.3289
  119OSM    H6S12507   4.177   3.388   6.844  0.4174 -0.1961  2.6585
  119OSM    H6T12508   4.183   3.205   6.872 -0.6079 -1.7227 -0.4967
  119OSM    C7S12509   4.019   3.315   6.966  0.6771  0.4724  0.2681
  119OSM    H7S12510   3.959   3.222   6.977  0.5187  0.8251  3.4937
  119OSM    H7T12511   3.959   3.406   6.948 -2.3481 -1.2365  0.8952
  119OSM    C8S12512   4.086   3.339   7.100 -0.5197 -0.3336 -0.1058
  119OSM    H8S12513   4.130   3.441   7.101 -1.5625  0.1655  2.1557
  119OSM    H8T12514   4.168   3.265   7.112 -1.6293 -1.9232 -1.8142
  119OSM    C9S12515   3.985   3.321   7.215  0.0687 -0.4064 -0.3390
  119OSM    H9S12516   3.964   3.215   7.236 -0.6512  0.2733  2.8990
  119OSM    H9T12517   3.892   3.379   7.196 -0.7037 -0.8332  1.8989
  119OSM   C10S12518   4.049   3.356   7.353  0.1222  0.0171 -0.0186
  119OSM   H10S12519   4.086   3.460   7.349 -1.1859  0.5712  1.2718
  119OSM   H10T12520   4.140   3.295   7.370 -0.0471  0.0186  0.9825
  119OSM   C11S12521   3.962   3.327   7.476 -0.6920  0.2683 -0.5486
  119OSM   H11S12522   3.932   3.221   7.484 -2.0626  0.4850 -2.1751
  119OSM   H11T12523   3.865   3.381   7.473 -0.4961  0.8577  1.6967
  119OSM   C12S12524   4.026   3.377   7.608  0.4646 -0.2504 -1.0464
  119OSM   H12S12525   4.068   3.479   7.597 -0.5501  0.1108 -1.7502
  119OSM   H12T12526   4.117   3.321   7.636  0.8991  0.6672 -0.6005
  119OSM   C13S12527   3.922   3.363   7.718  0.3158 -0.1304 -0.9069
  119OSM   H13S12528   3.892   3.256   7.723 -0.8892  0.2366  1.2729
  119OSM   H13T12529   3.820   3.402   7.700 -0.5327 -0.5867  2.3252
  119OSM   C14S12530   3.959   3.402   7.868 -0.8271 -0.0461 -0.2536
  119OSM   H14S12531   4.001   3.504   7.861  0.0756 -0.4272 -0.4535
  119OSM   H14T12532   4.035   3.328   7.899  0.1884  1.4284  0.8534
  119OSM   C15S12533   3.835   3.407   7.950 -0.3848 -0.1282  0.1876
  119OSM   H15S12534   3.790   3.305   7.950 -1.2506  0.2253  1.2424
  119OSM   H15T12535   3.753   3.471   7.910 -1.5422 -0.7423  1.4859
  119OSM   C16S12536   3.854   3.440   8.106 -0.2021 -0.0065  1.0012
  119OSM   H16S12537   3.879   3.548   8.107  3.1025 -0.6793  0.9384
  119OSM   H16T12538   3.938   3.374   8.135 -0.5756 -0.9539 -0.0252
  119OSM   C17S12539   3.736   3.422   8.200  0.2583 -0.4086  0.2940
  119OSM   H17S12540   3.710   3.315   8.192  1.3700 -0.6944  0.2431
  119OSM   H17T12541   3.652   3.483   8.161  1.3254  1.1411  0.3134
  119OSM   C18S12542   3.777   3.460   8.342  0.6923 -0.5596  0.1385
  119OSM   H18S12543   3.888   3.460   8.351  0.6290  0.5714  1.1268
  119OSM   H18T12544   3.738   3.390   8.419  0.2600 -1.2988 -0.7190
  119OSM   H18U12545   3.739   3.561   8.366  0.0551 -0.9912  0.9857
  119OSM    C1F12546   3.784   2.862   6.606  0.0781  0.0460  0.1540
  119OSM     OF12547   3.874   2.801   6.544  0.3666  0.1161  0.0664
  119OSM    C2F12548   3.676   2.793   6.683  0.4281 -0.3184 -0.2428
  119OSM    H2F12549   3.652   2.697   6.633 -2.3616 -0.5369  1.3345
  119OSM    H2G12550   3.597   2.870   6.683  0.9723  0.2530 -0.0496
  119OSM    C3F12551   3.710   2.763   6.828 -0.0848 -0.7176 -0.3950
  119OSM    H3F12552   3.769   2.846   6.871 -2.3146  0.9993 -0.4403
  119OSM    H3G12553   3.791   2.688   6.837 -0.3043 -0.7647  1.8849
  119OSM    C4F12554   3.595   2.723   6.914  0.3668 -0.0253 -0.2164
  119OSM    H4F12555   3.615   2.629   6.970 -2.4873 -1.8172 -1.9286
  119OSM    H4G12556   3.510   2.694   6.848 -0.0025  0.9495 -0.1763
  119OSM    C5F12557   3.544   2.822   7.022  0.4717  0.1358  0.2620
  119OSM    H5F12558   3.477   2.899   6.978  0.9915  0.7945  0.6139
  119OSM    H5G12559   3.635   2.872   7.062  0.8664 -0.3568 -0.0027
  119OSM    C6F12560   3.456   2.757   7.134 -0.5022  0.2399  0.1746
  119OSM    H6F12561   3.456   2.824   7.223  2.3067 -1.3370  1.4983
  119OSM    H6G12562   3.505   2.667   7.176 -1.4136  0.5218  1.9557
  119OSM    C7F12563   3.312   2.718   7.096 -0.4814  0.1984 -0.1668
  119OSM    H7F12564   3.316   2.610   7.068 -1.5653  0.5671 -1.9147
  119OSM    H7G12565   3.300   2.762   6.995  3.4190 -2.6344 -2.1529
  119OSM    C8F12566   3.212   2.768   7.200  0.0187  0.0090 -0.8816
  119OSM    H8F12567   3.109   2.743   7.167 -0.5424  0.1330  0.7038
  119OSM    H8G12568   3.212   2.879   7.196  1.6543  0.0257 -1.2826
  119OSM    C9F12569   3.229   2.708   7.336 -0.0735 -0.1930 -0.2802
  119OSM    H9F12570   3.234   2.598   7.340  1.3652 -0.1309  3.0084
  119OSM   C10F12571   3.221   2.762   7.457 -0.1541 -0.3002 -0.0438
  119OSM   H10F12572   3.244   2.691   7.538  2.7974 -1.0366 -1.3858
  119OSM   C11F12573   3.191   2.904   7.492  0.4288  0.0862  0.4163
  119OSM   H11F12574   3.121   2.957   7.423 -1.0106  0.1888  1.8903
  119OSM   H11G12575   3.281   2.969   7.492 -0.5860  1.5965 -1.7072
  119OSM   C12F12576   3.140   2.920   7.627  0.8408 -0.4669 -0.0123
  119OSM   H12F12577   3.042   2.868   7.638  0.2295 -0.0004 -2.5696
  119OSM   H12G12578   3.121   3.028   7.641 -0.0310 -0.7867  1.5386
  119OSM   C13F12579   3.230   2.882   7.736  0.0354 -0.7521 -0.0967
  119OSM   H13F12580   3.333   2.921   7.720 -0.1308 -1.1237 -2.4583
  119OSM   H13G12581   3.230   2.771   7.742 -1.6832 -0.7480  0.5720
  119OSM   C14F12582   3.174   2.925   7.876  0.3392  0.6276  1.3901
  119OSM   H14F12583   3.064   2.910   7.871  0.7082 -2.3802  0.6627
  119OSM   H14G12584   3.198   3.033   7.884  0.9032  0.5430  0.9000
  119OSM   C15F12585   3.238   2.836   7.986 -0.1054 -0.5816  0.2838
  119OSM   H15F12586   3.344   2.870   7.989  0.3933 -2.1142  1.8455
  119OSM   H15G12587   3.237   2.726   7.968  0.1694 -0.7387  1.1607
  119OSM   C16F12588   3.175   2.854   8.120 -0.1139  0.3802 -2.0170
  119OSM   H16F12589   3.074   2.811   8.113 -0.1762  0.0090  0.2409
  119OSM   H16G12590   3.167   2.962   8.147  0.3141  0.0251 -0.3186
  119OSM   C17F12591   3.262   2.788   8.225  0.4798 -0.4848  0.3485
  119OSM   H17F12592   3.370   2.812   8.234 -0.0143  1.7159  0.9163
  119OSM   H17G12593   3.258   2.678   8.211  0.9588 -0.3604 -0.8573
  119OSM   C18F12594   3.212   2.800   8.370  0.1857  0.1830 -0.5910
  119OSM   H18F12595   3.253   2.898   8.402  2.4299 -0.4107 -1.3823
  119OSM   H18G12596   3.254   2.722   8.436  1.1986  0.1107 -1.2920
  119OSM   H18H12597   3.101   2.804   8.368  0.1906  0.2151 -1.4951
  120OSM      N12598   0.868   6.296   6.091  0.1592 -0.5905  0.1451
  120OSM    C1512599   0.729   6.260   6.056 -0.0231  0.7051  0.3621
  120OSM   H15A12600   0.719   6.157   6.086  1.5786  0.9713  2.0384
  120OSM   H15B12601   0.707   6.271   5.951 -2.8856 -1.0302  0.6919
  120OSM   H15C12602   0.664   6.311   6.125  1.6996  0.9274  1.9127
  120OSM    C1412603   0.967   6.196   6.039 -0.3112 -0.2684 -0.9994
  120OSM   H14A12604   0.959   6.182   5.932  1.7520  0.1040 -1.2516
  120OSM   H14B12605   0.934   6.106   6.088 -1.3371  1.1892  1.1233
  120OSM   H14C12606   1.069   6.209   6.072 -1.1717  0.1450  1.7322
  120OSM    C1312607   0.906   6.427   6.029 -0.2383  0.2889 -0.7750
  120OSM   H13A12608   1.014   6.434   6.031 -0.1751 -0.2242 -1.7355
  120OSM   H13B12609   0.867   6.517   6.075 -0.5758  0.3260 -1.1193
  120OSM   H13C12610   0.877   6.425   5.925 -1.3753  1.2295 -0.4944
  120OSM    C1212611   0.877   6.311   6.247 -0.1329  0.2319  0.0301
  120OSM   H12A12612   0.798   6.376   6.280 -0.7993  0.0332 -1.0920
  120OSM   H12B12613   0.971   6.361   6.261  0.3461 -1.2324  2.6465
  120OSM    C1112614   0.880   6.184   6.335 -0.6632  0.4178  0.0108
  120OSM   H11A12615   0.802   6.116   6.294 -1.9614  0.9205  1.5367
  120OSM   H11B12616   0.847   6.212   6.438 -4.2530  1.7580 -1.3432
  120OSM      P12617   1.134   6.172   6.381  0.2651 -0.4440  0.1366
  120OSM    O1312618   1.230   6.066   6.398  0.2980  0.8509  0.0391
  120OSM    O1412619   1.177   6.293   6.312  0.1139  0.0312  0.3246
  120OSM    O1112620   1.071   6.203   6.520 -0.5981 -0.7597 -0.3360
  120OSM    O1212621   1.003   6.116   6.319 -0.3437  0.4112  0.9539
  120OSM    C1S12622   1.032   6.098   6.612 -0.5538  0.0240 -0.4003
  120OSM    H1S12623   1.116   6.026   6.619 -0.2944  0.4645  1.4093
  120OSM    H1T12624   0.945   6.036   6.583 -0.4929 -0.0979 -0.3232
  120OSM     NF12625   1.005   6.065   6.861 -0.4118 -0.3217 -0.1992
  120OSM    HNF12626   0.921   6.020   6.889  0.0064 -0.8659  0.2139
  120OSM    C2S12627   1.009   6.161   6.755  0.6406 -0.0914  0.7560
  120OSM    H2S12628   1.094   6.228   6.779  3.0559 -2.3160 -1.0602
  120OSM    C3S12629   0.873   6.242   6.754  0.0912  0.9062 -0.1585
  120OSM    H3S12630   0.789   6.175   6.728  0.0924  1.4794 -1.7181
  120OSM     O312631   0.865   6.335   6.645 -0.7924  0.0827  0.0289
  120OSM    HO312632   0.943   6.301   6.599 -0.6382  0.4934 -0.0170
  120OSM    C4S12633   0.843   6.313   6.886  0.1572  0.8342 -0.0014
  120OSM    H4S12634   0.783   6.258   6.960  2.2644 -0.1197  1.0608
  120OSM    C5S12635   0.885   6.436   6.928  0.3796  0.5285  0.2332
  120OSM    H5S12636   0.944   6.502   6.863 -2.2313 -0.8815 -3.9146
  120OSM    C6S12637   0.827   6.505   7.047 -1.1464  0.1036  0.1464
  120OSM    H6S12638   0.729   6.456   7.070  1.1456 -4.3050  1.8660
  120OSM    H6T12639   0.812   6.614   7.036 -1.7924 -0.1082 -1.2412
  120OSM    C7S12640   0.918   6.477   7.166 -0.0626  1.0877 -0.2383
  120OSM    H7S12641   1.007   6.540   7.146 -1.9018  3.0034 -2.9852
  120OSM    H7T12642   0.948   6.371   7.183  1.1224  1.7474  2.2409
  120OSM    C8S12643   0.848   6.540   7.285  0.1785 -0.4777 -0.2649
  120OSM    H8S12644   0.742   6.505   7.291  0.5010 -1.2054  1.7971
  120OSM    H8T12645   0.857   6.651   7.292 -3.5605 -0.1300  1.9440
  120OSM    C9S12646   0.905   6.493   7.422  0.3396  0.8241 -1.1002
  120OSM    H9S12647   1.009   6.530   7.440  0.6252 -1.0931  1.8361
  120OSM    H9T12648   0.904   6.384   7.444  0.8510  0.6897 -1.6790
  120OSM   C10S12649   0.823   6.545   7.544  0.2261  0.9450 -0.6926
  120OSM   H10S12650   0.719   6.523   7.513  0.3591 -1.8487  0.6038
  120OSM   H10T12651   0.821   6.656   7.549 -0.6743  0.9485 -0.8798
  120OSM   C11S12652   0.851   6.475   7.676  0.3514  0.0020  0.0074
  120OSM   H11S12653   0.830   6.367   7.667 -2.4443  0.3624  1.3202
  120OSM   H11T12654   0.783   6.510   7.757 -1.2601 -2.0758 -0.3840
  120OSM   C12S12655   0.990   6.496   7.731 -0.7761 -0.0094  0.1387
  120OSM   H12S12656   1.014   6.604   7.721 -1.1122  0.0893  0.3623
  120OSM   H12T12657   1.070   6.443   7.676 -0.9168  1.2467 -1.3318
  120OSM   C13S12658   0.999   6.460   7.882  0.0326  0.0206  0.8927
  120OSM   H13S12659   1.094   6.413   7.913  0.5531  2.1259  2.7588
  120OSM   H13T12660   0.920   6.390   7.917 -0.1130  0.9300  2.5203
  120OSM   C14S12661   1.003   6.590   7.962  0.8136  0.7823 -0.8419
  120OSM   H14S12662   0.904   6.638   7.945  0.3843  0.1998 -0.0370
  120OSM   H14T12663   1.086   6.653   7.925  2.1855 -0.5383 -0.1282
  120OSM   C15S12664   1.029   6.573   8.113 -0.2593 -0.5164  0.1415
  120OSM   H15S12665   1.134   6.535   8.115  0.0161  0.2500  0.6482
  120OSM   H15T12666   0.964   6.499   8.164 -0.3575 -0.9317 -0.5744
  120OSM   C16S12667   1.036   6.702   8.200  0.1339 -0.0352 -0.3385
  120OSM   H16S12668   0.939   6.754   8.185 -0.2224 -1.1115 -2.1324
  120OSM   H16T12669   1.115   6.770   8.160 -0.9733  0.5636 -1.6069
  120OSM   C17S12670   1.048   6.672   8.355 -0.1101 -0.2473  0.7169
  120OSM   H17S12671   1.084   6.760   8.413 -1.3254  1.0423 -0.4049
  120OSM   H17T12672   1.131   6.600   8.371  0.8501  0.8970  1.0369
  120OSM   C18S12673   0.920   6.627   8.423 -0.1294  0.5517 -0.1182
  120OSM   H18S12674   0.878   6.532   8.382  1.3084 -0.0375 -0.2617
  120OSM   H18T12675   0.840   6.704   8.417 -1.6533 -1.0413 -1.9388
  120OSM   H18U12676   0.938   6.613   8.532 -1.0407 -1.1646 -0.1400
  120OSM    C1F12677   1.125   6.010   6.896  0.0007 -0.6876 -0.2410
  120OSM     OF12678   1.235   6.048   6.856 -0.2290  0.1443 -0.7830
  120OSM    C2F12679   1.112   5.902   6.998  0.1318 -0.8315 -0.0234
  120OSM    H2F12680   1.132   5.807   6.944  0.1870 -1.3216  0.8518
  120OSM    H2G12681   1.011   5.905   7.044 -0.3627  0.7785 -1.1240
  120OSM    C3F12682   1.217   5.913   7.111 -0.4006 -0.1475 -0.5221
  120OSM    H3F12683   1.211   6.013   7.159 -1.4955 -1.3758  2.0689
  120OSM    H3G12684   1.322   5.920   7.073  0.8788  0.1748  2.7294
  120OSM    C4F12685   1.200   5.801   7.205 -0.3230  0.2396 -0.9153
  120OSM    H4F12686   1.228   5.700   7.166 -0.2806 -0.8057  1.6371
  120OSM    H4G12687   1.092   5.792   7.230  0.0493  0.5239  0.9525
  120OSM    C5F12688   1.264   5.826   7.348  0.3533 -0.6594  0.2993
  120OSM    H5F12689   1.220   5.921   7.387 -0.7348 -1.6340  1.5206
  120OSM    H5G12690   1.372   5.835   7.324  0.0715  2.4795 -0.3162
  120OSM    C6F12691   1.213   5.713   7.438  0.3731 -0.7651  0.7738
  120OSM    H6F12692   1.192   5.619   7.383 -2.1069  1.0620 -1.6371
  120OSM    H6G12693   1.120   5.745   7.490  0.9108  0.1333  1.1973
  120OSM    C7F12694   1.296   5.689   7.569 -0.7235 -0.1187  0.4981
  120OSM    H7F12695   1.314   5.792   7.606 -0.7009  0.2086 -0.4046
  120OSM    H7G12696   1.397   5.653   7.541 -0.8047 -1.0301  1.3204
  120OSM    C8F12697   1.219   5.595   7.671 -0.4343  0.0519 -0.2541
  120OSM    H8F12698   1.169   5.502   7.637 -1.7521  0.2920  0.9358
  120OSM    H8G12699   1.135   5.660   7.703  0.2220  0.3281  0.9725
  120OSM    C9F12700   1.300   5.584   7.791  0.1256  0.2267 -0.3068
  120OSM    H9F12701   1.406   5.613   7.780 -0.2700  2.3188  0.8510
  120OSM   C10F12702   1.268   5.552   7.916 -0.2019  0.4368  0.6301
  120OSM   H10F12703   1.343   5.554   7.997 -1.6722  0.1977  2.0664
  120OSM   C11F12704   1.123   5.533   7.968 -0.4360  0.5348  0.6644
  120OSM   H11F12705   1.109   5.426   7.995 -1.0333  0.2852 -0.5816
  120OSM   H11G12706   1.047   5.547   7.888  1.7364  1.1116 -1.4032
  120OSM   C12F12707   1.087   5.619   8.086  0.1879  0.1312 -0.5973
  120OSM   H12F12708   0.976   5.627   8.095  0.0512  0.2789 -2.1039
  120OSM   H12G12709   1.137   5.718   8.076 -0.8072  0.9279  1.6107
  120OSM   C13F12710   1.157   5.560   8.215  0.4284  0.2984  0.3779
  120OSM   H13F12711   1.260   5.520   8.202  0.4155 -1.0429  3.3986
  120OSM   H13G12712   1.082   5.483   8.244 -2.3832  2.1192 -1.6018
  120OSM   C14F12713   1.167   5.662   8.328  0.0268 -0.1138  0.0607
  120OSM   H14F12714   1.068   5.696   8.364  1.1033  1.5491  1.6466
  120OSM   H14G12715   1.223   5.748   8.284  0.6013  0.4743  1.8804
  120OSM   C15F12716   1.240   5.614   8.457  0.0795  0.1608  0.2606
  120OSM   H15F12717   1.326   5.551   8.425 -0.5098  0.4150 -2.0258
  120OSM   H15G12718   1.181   5.545   8.520  0.3038 -0.2551  0.0165
  120OSM   C16F12719   1.285   5.724   8.552  0.1780 -0.7588  0.3907
  120OSM   H16F12720   1.198   5.781   8.591  0.7836 -0.3659  1.1872
  120OSM   H16G12721   1.351   5.798   8.500  0.1006  0.3330  1.7918
  120OSM   C17F12722   1.353   5.679   8.676 -0.9424  0.3864  0.1466
  120OSM   H17F12723   1.450   5.631   8.651 -0.1088  1.9407  0.2526
  120OSM   H17G12724   1.288   5.598   8.716  0.0826 -1.3689 -1.6177
  120OSM   C18F12725   1.372   5.788   8.784 -0.9145  0.6488  0.0905
  120OSM   H18F12726   1.378   5.735   8.882 -0.2781  0.3856 -0.0906
  120OSM   H18G12727   1.284   5.856   8.790 -0.7991  0.6915  3.1199
  120OSM   H18H12728   1.468   5.843   8.770  0.7109 -1.6018  1.6872
  121OSM      N12729   1.737   2.661   6.239  0.0828  0.0355 -0.1387
  121OSM    C1512730   1.619   2.755   6.219 -0.2428  0.0749  0.1119
  121OSM   H15A12731   1.654   2.846   6.173  0.1368  0.4909  1.1719
  121OSM   H15B12732   1.598   2.790   6.319 -0.7694  0.0236  0.0200
  121OSM   H15C12733   1.536   2.705   6.173  0.1973  0.0341 -0.6510
  121OSM    C1412734   1.680   2.528   6.240 -0.4951 -0.6138 -0.5416
  121OSM   H14A12735   1.614   2.513   6.323  0.4704  1.4087  0.6845
  121OSM   H14B12736   1.751   2.447   6.239  0.2284 -0.0298  0.9698
  121OSM   H14C12737   1.617   2.509   6.154 -1.9720 -0.0038  0.3672
  121OSM    C1312738   1.832   2.668   6.127  1.0146  0.8664 -0.0123
  121OSM   H13A12739   1.894   2.756   6.127  1.0508  0.8698 -1.7006
  121OSM   H13B12740   1.779   2.661   6.033 -0.4169  2.8156  0.5852
  121OSM   H13C12741   1.899   2.584   6.123  0.3487  0.3693 -1.5644
  121OSM    C1212742   1.820   2.672   6.370 -0.3226 -0.5126 -0.2793
  121OSM   H12A12743   1.750   2.655   6.450 -0.2381 -2.4135 -0.5597
  121OSM   H12B12744   1.871   2.764   6.394  1.2772 -1.9698  2.4540
  121OSM    C1112745   1.939   2.577   6.398 -0.1974  0.0834  0.3527
  121OSM   H11A12746   1.894   2.476   6.393  2.0342 -0.8956 -0.8926
  121OSM   H11B12747   1.974   2.597   6.501 -0.9413 -3.0965  1.3284
  121OSM      P12748   2.174   2.654   6.309 -0.4799  0.1896  0.2962
  121OSM    O1312749   2.278   2.553   6.339 -0.6795  0.6697  0.0531
  121OSM    O1412750   2.196   2.752   6.198  0.4427  0.0926  0.1980
  121OSM    O1112751   2.152   2.736   6.440 -0.3820 -0.1708  0.0522
  121OSM    O1212752   2.035   2.583   6.292  0.0845  0.0833  0.3225
  121OSM    C1S12753   2.223   2.854   6.463  0.2975  0.6017  0.4225
  121OSM    H1S12754   2.152   2.927   6.419 -0.9053 -1.0597 -0.4944
  121OSM    H1T12755   2.326   2.866   6.422  0.0630  2.2960  0.2520
  121OSM     NF12756   2.257   3.024   6.644 -0.4188  0.0610 -0.5290
  121OSM    HNF12757   2.350   3.054   6.664 -0.6728  1.3988 -1.2327
  121OSM    C2S12758   2.237   2.880   6.620  0.0091 -0.2646  0.4440
  121OSM    H2S12759   2.136   2.850   6.655 -0.8767  0.8084 -1.0488
  121OSM    C3S12760   2.341   2.790   6.679 -0.2974  0.2378  0.9109
  121OSM    H3S12761   2.432   2.805   6.617  0.6442 -1.4325  1.8196
  121OSM     O312762   2.312   2.655   6.648  0.1961  0.3051  0.0910
  121OSM    HO312763   2.251   2.656   6.574  1.1452 -0.9777 -0.7583
  121OSM    C4S12764   2.365   2.814   6.819  0.1229 -0.7469 -0.7311
  121OSM    H4S12765   2.454   2.878   6.832  0.6710 -1.1034 -2.4408
  121OSM    C5S12766   2.305   2.764   6.926  0.2514  0.6067 -0.0295
  121OSM    H5S12767   2.218   2.696   6.918  0.4307  0.1232  1.7211
  121OSM    C6S12768   2.344   2.796   7.063  0.1474  0.0653 -0.7012
  121OSM    H6S12769   2.435   2.857   7.080  0.7895 -1.4992  2.2267
  121OSM    H6T12770   2.371   2.701   7.113 -2.5029 -0.3298  0.1679
  121OSM    C7S12771   2.223   2.862   7.136 -0.6192 -0.1347 -0.4320
  121OSM    H7S12772   2.129   2.805   7.130 -1.1841  0.3479  2.3401
  121OSM    H7T12773   2.190   2.962   7.098 -2.8781 -0.6456  0.0493
  121OSM    C8S12774   2.251   2.886   7.288  0.0692 -0.2262 -0.5092
  121OSM    H8S12775   2.171   2.953   7.327  0.5471 -0.2198  0.5108
  121OSM    H8T12776   2.349   2.937   7.301 -0.6778  1.1156  0.1193
  121OSM    C9S12777   2.232   2.760   7.365 -0.0752  0.6254 -0.2509
  121OSM    H9S12778   2.265   2.671   7.308 -3.6380  0.0298 -1.6607
  121OSM    H9T12779   2.125   2.744   7.391 -0.1748  0.6374 -0.6451
  121OSM   C10S12780   2.308   2.761   7.497 -0.3291  0.6205 -0.4425
  121OSM   H10S12781   2.276   2.847   7.560  0.3803 -1.2151  2.6738
  121OSM   H10T12782   2.419   2.767   7.490 -0.0091 -1.1263  1.7527
  121OSM   C11S12783   2.278   2.626   7.568  0.2717 -0.0042  0.0728
  121OSM   H11S12784   2.314   2.546   7.500 -3.2796 -2.6833  1.0303
  121OSM   H11T12785   2.168   2.610   7.565  0.3417 -0.6756  0.7026
  121OSM   C12S12786   2.331   2.615   7.707  0.3455  0.3584  0.3053
  121OSM   H12S12787   2.292   2.708   7.754  1.4049  0.7320  0.4624
  121OSM   H12T12788   2.441   2.626   7.718  0.3445 -0.2760  1.0354
  121OSM   C13S12789   2.296   2.486   7.784  0.3733  0.3664 -0.7551
  121OSM   H13S12790   2.329   2.391   7.738  3.0350 -0.0534  1.7389
  121OSM   H13T12791   2.185   2.474   7.784  0.5437 -2.5793  1.8609
  121OSM   C14S12792   2.343   2.483   7.922 -0.7509  0.2372  0.0804
  121OSM   H14S12793   2.332   2.579   7.977 -1.2314  0.7377 -0.8813
  121OSM   H14T12794   2.452   2.457   7.927 -0.4423  1.3912 -0.4458
  121OSM   C15S12795   2.272   2.378   8.018  0.3040  0.8851  0.2475
  121OSM   H15S12796   2.287   2.282   7.964  0.0804  0.0948  1.5346
  121OSM   H15T12797   2.163   2.397   8.029  0.1266 -0.1076  0.3526
  121OSM   C16S12798   2.330   2.352   8.161 -0.6217 -0.7500 -0.0349
  121OSM   H16S12799   2.355   2.450   8.208 -1.5684  0.7728 -2.4751
  121OSM   H16T12800   2.429   2.303   8.154 -0.2207  0.2476 -4.3126
  121OSM   C17S12801   2.229   2.281   8.246  0.1434  0.0688 -0.1824
  121OSM   H17S12802   2.134   2.334   8.267 -0.2513 -1.7965  3.7997
  121OSM   H17T12803   2.270   2.262   8.348 -0.8566  0.2561  0.2632
  121OSM   C18S12804   2.200   2.142   8.192  0.4224  0.4189 -0.8474
  121OSM   H18S12805   2.117   2.099   8.252 -1.8322  3.5241 -1.5157
  121OSM   H18T12806   2.285   2.070   8.191  1.1837  1.2987 -0.8708
  121OSM   H18U12807   2.167   2.149   8.086  0.3443  0.4009 -0.8242
  121OSM    C1F12808   2.164   3.114   6.634  0.2762  0.0390 -0.5545
  121OSM     OF12809   2.063   3.083   6.571 -0.0452  0.1855 -0.0230
  121OSM    C2F12810   2.175   3.252   6.695 -0.0086  0.6189 -0.4922
  121OSM    H2F12811   2.163   3.321   6.609  4.8254  1.7681 -0.5440
  121OSM    H2G12812   2.280   3.262   6.731 -0.4296  0.2982  0.8795
  121OSM    C3F12813   2.075   3.294   6.803  0.5123 -0.1535 -0.0528
  121OSM    H3F12814   1.975   3.310   6.758  0.6284  0.0833 -0.2289
  121OSM    H3G12815   2.106   3.384   6.862 -1.8960  0.8019 -0.1448
  121OSM    C4F12816   2.071   3.183   6.914 -0.3101  0.4627 -0.1664
  121OSM    H4F12817   2.175   3.191   6.954  0.3047  1.3180 -1.8385
  121OSM    H4G12818   2.038   3.087   6.869 -0.5550  0.8671 -0.8547
  121OSM    C5F12819   1.982   3.212   7.029 -0.4843  0.2404  0.5002
  121OSM    H5F12820   1.948   3.120   7.081 -0.6614 -1.1596 -1.9660
  121OSM    H5G12821   1.891   3.267   6.997 -2.1011 -1.6950  1.6048
  121OSM    C6F12822   2.048   3.313   7.119  0.3045 -0.6801  0.2868
  121OSM    H6F12823   2.091   3.393   7.055 -1.0860  0.0282  0.2020
  121OSM    H6G12824   2.120   3.244   7.169  1.1043 -0.9824 -1.2246
  121OSM    C7F12825   1.950   3.368   7.228 -0.3206  0.1743 -0.2155
  121OSM    H7F12826   1.862   3.301   7.244 -0.2616 -0.3421 -1.8353
  121OSM    H7G12827   1.916   3.453   7.166  0.1594 -0.1038 -0.8737
  121OSM    C8F12828   2.011   3.403   7.358 -0.4603 -0.2166  0.2121
  121OSM    H8F12829   1.948   3.488   7.393 -0.0670 -0.5512  1.8045
  121OSM    H8G12830   2.116   3.436   7.339 -0.7164 -0.5615 -2.1133
  121OSM    C9F12831   2.004   3.287   7.451  0.9657 -0.5435  0.1586
  121OSM    H9F12832   2.029   3.193   7.400 -0.7552 -0.7015 -0.4799
  121OSM   C10F12833   1.976   3.283   7.581  0.3011 -0.2992  0.2353
  121OSM   H10F12834   1.996   3.191   7.638  1.0516 -1.5603 -1.9534
  121OSM   C11F12835   1.936   3.399   7.662 -0.3217 -0.1995 -0.6475
  121OSM   H11F12836   1.857   3.373   7.735  0.4992 -0.4869  0.1581
  121OSM   H11G12837   1.894   3.478   7.595 -2.2943 -0.8710 -0.2578
  121OSM   C12F12838   2.041   3.461   7.750 -0.5895 -0.5772 -0.3146
  121OSM   H12F12839   1.994   3.537   7.816  0.3024  1.0699 -1.5168
  121OSM   H12G12840   2.107   3.516   7.681  0.4602 -0.9155  0.4014
  121OSM   C13F12841   2.114   3.353   7.838 -0.1769  0.1119 -0.3408
  121OSM   H13F12842   2.207   3.400   7.878  0.7753 -1.7299 -0.2593
  121OSM   H13G12843   2.150   3.276   7.767  0.0861 -1.3438  1.3224
  121OSM   C14F12844   2.037   3.289   7.958  0.1746 -1.3134 -0.0321
  121OSM   H14F12845   1.940   3.251   7.919 -1.2392  1.7964  0.1921
  121OSM   H14G12846   2.010   3.361   8.038  0.5413  0.7892 -1.7374
  121OSM   C15F12847   2.128   3.192   8.042  0.5088  0.2081 -0.8440
  121OSM   H15F12848   2.229   3.232   8.064  0.9952 -1.3432 -0.1009
  121OSM   H15G12849   2.147   3.099   7.984 -2.5263 -0.2535 -1.3061
  121OSM   C16F12850   2.053   3.137   8.164 -0.0632  0.0394  0.0024
  121OSM   H16F12851   2.093   3.033   8.168  0.6025  0.1880 -1.8079
  121OSM   H16G12852   1.949   3.137   8.126  0.0167  1.3564 -0.2533
  121OSM   C17F12853   2.085   3.216   8.295  0.2978 -0.2618 -0.1355
  121OSM   H17F12854   2.063   3.322   8.271  0.5331 -0.2355 -0.2332
  121OSM   H17G12855   2.191   3.207   8.325  0.3167 -0.2307 -0.1940
  121OSM   C18F12856   2.007   3.178   8.419  0.2695 -0.3522 -0.7499
  121OSM   H18F12857   2.039   3.082   8.467 -0.6352  0.2422  1.1467
  121OSM   H18G12858   1.904   3.154   8.386  0.0789  0.6229 -0.8846
  121OSM   H18H12859   2.010   3.256   8.498 -1.9930 -0.7594 -0.1929
  122OSM      N12860   2.670   4.072   5.990 -0.5759 -0.7591 -0.3441
  122OSM    C1512861   2.801   4.141   6.037  0.1075 -0.3234 -0.2983
  122OSM   H15A12862   2.770   4.243   6.056  1.1941 -0.0934  0.3372
  122OSM   H15B12863   2.878   4.143   5.962 -0.0446 -2.0156 -0.5339
  122OSM   H15C12864   2.838   4.115   6.135  1.7826 -2.5680 -1.4565
  122OSM    C1412865   2.631   4.146   5.863 -0.3055 -0.0857 -0.4599
  122OSM   H14A12866   2.712   4.138   5.792 -0.7871  1.4984 -1.2370
  122OSM   H14B12867   2.610   4.251   5.878  2.1168  0.3919 -0.1020
  122OSM   H14C12868   2.545   4.094   5.822 -0.3919  1.7085 -2.8176
  122OSM    C1312869   2.694   3.934   5.959  0.0623  0.3238  0.8552
  122OSM   H13A12870   2.783   3.916   5.901 -0.5186  0.3434 -0.0586
  122OSM   H13B12871   2.620   3.889   5.894  1.6808  0.6010 -1.2876
  122OSM   H13C12872   2.710   3.877   6.049  1.5779  1.8432  1.5953
  122OSM    C1212873   2.552   4.087   6.082 -0.1169  0.5289 -0.2583
  122OSM   H12A12874   2.466   4.043   6.033  0.1221 -1.5073  1.0584
  122OSM   H12B12875   2.538   4.193   6.101  0.7276  0.8376 -1.2443
  122OSM    C1112876   2.554   4.014   6.217 -0.2911  0.5384  0.8020
  122OSM   H11A12877   2.483   4.061   6.289 -3.1451 -2.8484  0.4838
  122OSM   H11B12878   2.656   4.018   6.260 -0.7748  1.0792  1.9406
  122OSM      P12879   2.377   3.837   6.189  0.2802  0.0360 -0.0506
  122OSM    O1312880   2.321   3.905   6.077 -0.1123 -0.4935 -0.1508
  122OSM    O1412881   2.357   3.691   6.192 -0.1264 -0.9394  0.3256
  122OSM    O1112882   2.301   3.898   6.315 -0.0576 -0.6717  0.2149
  122OSM    O1212883   2.525   3.871   6.205 -0.2149 -0.1473  0.3016
  122OSM    C1S12884   2.309   3.838   6.440 -0.1208 -0.2020 -0.4171
  122OSM    H1S12885   2.409   3.856   6.485 -0.9613 -0.4892  1.6676
  122OSM    H1T12886   2.278   3.732   6.432  0.7500 -0.4149 -1.1747
  122OSM     NF12887   2.243   3.838   6.667 -0.5120  0.3845 -0.1425
  122OSM    HNF12888   2.189   3.756   6.686  1.3311 -1.0367 -0.6957
  122OSM    C2S12889   2.215   3.903   6.539  0.0358 -0.1834  0.6925
  122OSM    H2S12890   2.247   4.008   6.557  2.0243 -0.1373 -2.3690
  122OSM    C3S12891   2.068   3.888   6.501 -0.4469  0.1359 -0.1437
  122OSM    H3S12892   2.039   3.782   6.512 -0.4067  0.2362  1.2023
  122OSM     O312893   2.044   3.929   6.364 -0.2715  0.1476 -0.2575
  122OSM    HO312894   2.137   3.947   6.347 -0.3357  1.9867  1.1017
  122OSM    C4S12895   1.981   3.969   6.592  0.0164 -0.1922 -0.1337
  122OSM    H4S12896   1.988   4.078   6.580  2.8021 -0.1235  1.3146
  122OSM    C5S12897   1.901   3.908   6.684 -0.1566 -0.0414  0.3771
  122OSM    H5S12898   1.896   3.798   6.692 -0.9218  0.0319  0.9780
  122OSM    C6S12899   1.818   3.974   6.784  0.5858 -0.2864 -0.0497
  122OSM    H6S12900   1.710   3.973   6.759  0.8412 -0.3841 -1.1783
  122OSM    H6T12901   1.857   4.078   6.791  0.7669 -0.3634  0.1166
  122OSM    C7S12902   1.845   3.914   6.926  0.0773 -0.3239  0.1914
  122OSM    H7S12903   1.813   3.809   6.909 -0.5837 -0.6803  3.0245
  122OSM    H7T12904   1.770   3.957   6.996 -0.8112  0.0262 -0.9591
  122OSM    C8S12905   1.989   3.907   6.977  0.3652 -0.2551 -0.0819
  122OSM    H8S12906   2.039   4.006   6.965 -0.1768  0.1105  0.6059
  122OSM    H8T12907   2.054   3.841   6.917 -0.5990 -1.4482  0.1566
  122OSM    C9S12908   1.993   3.871   7.131 -0.6442 -0.2915  0.6013
  122OSM    H9S12909   1.941   3.773   7.139 -0.6933 -0.5785 -2.2185
  122OSM    H9T12910   1.953   3.952   7.197  0.4297  0.0884  0.8055
  122OSM   C10S12911   2.148   3.854   7.160  0.9915 -0.3310 -0.4008
  122OSM   H10S12912   2.199   3.947   7.123  3.3469 -1.5790 -0.5128
  122OSM   H10T12913   2.172   3.775   7.086  1.6445 -1.4698  0.9884
  122OSM   C11S12914   2.178   3.828   7.313 -0.2188 -0.1042  0.2447
  122OSM   H11S12915   2.168   3.929   7.356 -0.1365 -0.4900  1.1922
  122OSM   H11T12916   2.280   3.792   7.340 -1.0123 -2.1446  0.7460
  122OSM   C12S12917   2.088   3.730   7.396 -0.0919  0.4334 -0.1735
  122OSM   H12S12918   2.156   3.645   7.421  0.0205  0.7375  0.5815
  122OSM   H12T12919   2.004   3.693   7.333  0.2275 -0.1388 -0.2645
  122OSM   C13S12920   2.030   3.790   7.526  0.4029 -0.3337  0.0090
  122OSM   H13S12921   1.960   3.721   7.578 -0.9044  2.1437  1.7262
  122OSM   H13T12922   1.986   3.888   7.497  2.3873  1.6217  3.0227
  122OSM   C14S12923   2.141   3.822   7.618  0.0703  0.0486  0.6398
  122OSM   H14S12924   2.226   3.866   7.561 -0.5535 -1.0230 -1.2009
  122OSM   H14T12925   2.176   3.728   7.665 -2.3062 -0.8880  0.7018
  122OSM   C15S12926   2.093   3.912   7.737  0.1755  0.3049 -0.2074
  122OSM   H15S12927   2.013   3.862   7.795  0.6096 -1.3104 -0.9582
  122OSM   H15T12928   2.055   4.012   7.706 -1.1235  0.5336  1.8902
  122OSM   C16S12929   2.211   3.936   7.838  0.3200  0.6541  0.3623
  122OSM   H16S12930   2.285   4.003   7.789 -0.5741  1.4270  0.0364
  122OSM   H16T12931   2.253   3.838   7.866  0.3596  0.8067  0.8428
  122OSM   C17S12932   2.163   4.008   7.967 -0.0835  0.7599 -0.3523
  122OSM   H17S12933   2.074   3.945   7.989  1.7174 -1.4995  1.0350
  122OSM   H17T12934   2.123   4.109   7.947  1.6539  1.2911 -1.3500
  122OSM   C18S12935   2.271   4.003   8.088 -0.8340 -0.5602 -0.5084
  122OSM   H18S12936   2.354   4.074   8.073 -0.5318 -0.6243  0.7464
  122OSM   H18T12937   2.299   3.895   8.087 -2.2002 -0.9669  0.8580
  122OSM   H18U12938   2.208   4.021   8.177 -1.8052 -0.4778 -1.1929
  122OSM    C1F12939   2.347   3.854   6.747  0.1045 -1.1790  0.5620
  122OSM     OF12940   2.420   3.951   6.736 -0.2033  0.0939 -0.0050
  122OSM    C2F12941   2.360   3.754   6.858 -0.4257 -0.0619  0.0915
  122OSM    H2F12942   2.275   3.682   6.853 -0.8245  0.4755 -1.3320
  122OSM    H2G12943   2.358   3.802   6.958  0.3353  0.0097  0.0809
  122OSM    C3F12944   2.487   3.667   6.848 -0.3143 -0.1825 -0.0695
  122OSM    H3F12945   2.571   3.738   6.835 -0.1736 -0.2317  0.5161
  122OSM    H3G12946   2.482   3.591   6.767 -1.3639 -1.0915  0.8187
  122OSM    C4F12947   2.507   3.584   6.979  0.1242 -0.3274  0.5922
  122OSM    H4F12948   2.483   3.642   7.071  1.0315 -0.0035  0.6328
  122OSM    H4G12949   2.613   3.552   6.980  0.9200  2.1162  0.6084
  122OSM    C5F12950   2.418   3.455   6.965  0.1872  0.3810 -0.1421
  122OSM    H5F12951   2.441   3.411   6.866 -0.2580  2.0416 -1.0136
  122OSM    H5G12952   2.315   3.491   6.946 -0.2637 -0.9029 -0.2128
  122OSM    C6F12953   2.416   3.355   7.086  0.5445 -0.1137  0.4945
  122OSM    H6F12954   2.513   3.301   7.078  0.6060 -0.1206  1.1985
  122OSM    H6G12955   2.342   3.273   7.075 -0.8940  0.9834  1.5722
  122OSM    C7F12956   2.403   3.428   7.223 -0.6016 -0.1189  0.2743
  122OSM    H7F12957   2.306   3.481   7.212 -1.6484 -1.9445  0.2876
  122OSM    H7G12958   2.489   3.497   7.234 -1.3541  0.7692  0.6317
  122OSM    C8F12959   2.410   3.352   7.353  0.2733 -0.0418  0.1635
  122OSM    H8F12960   2.308   3.311   7.368 -0.7648  1.9711 -0.8764
  122OSM    H8G12961   2.418   3.427   7.435  0.1441 -1.1352  1.2035
  122OSM    C9F12962   2.513   3.241   7.373 -0.6378  0.3027  0.7787
  122OSM    H9F12963   2.592   3.242   7.297  0.2213  0.6325  1.6570
  122OSM   C10F12964   2.521   3.144   7.460 -0.2222 -0.4965 -0.0697
  122OSM   H10F12965   2.598   3.066   7.455 -2.1175 -2.6073  1.4006
  122OSM   C11F12966   2.436   3.122   7.581 -0.0658 -0.1795  0.6776
  122OSM   H11F12967   2.393   3.020   7.569  1.7962 -0.7426 -2.0327
  122OSM   H11G12968   2.352   3.195   7.590  0.6265  0.7574 -0.1993
  122OSM   C12F12969   2.522   3.127   7.710  1.0495 -0.1248  0.3958
  122OSM   H12F12970   2.546   3.232   7.738 -1.8846  0.7580 -0.0495
  122OSM   H12G12971   2.620   3.078   7.693  0.4589 -1.8059  1.5371
  122OSM   C13F12972   2.429   3.049   7.816 -0.3828  0.1039 -0.0789
  122OSM   H13F12973   2.420   2.947   7.773  0.0527 -0.3181  0.7848
  122OSM   H13G12974   2.329   3.092   7.833  0.5750  1.4912  2.7735
  122OSM   C14F12975   2.496   3.027   7.949  0.2591  0.0925  0.4336
  122OSM   H14F12976   2.483   3.112   8.019  1.4697  0.1548  0.6091
  122OSM   H14G12977   2.605   3.009   7.939  0.2021 -0.0860  0.1151
  122OSM   C15F12978   2.427   2.914   8.024 -0.0873  0.7640  0.3835
  122OSM   H15F12979   2.415   2.830   7.951  1.8776  0.3163  0.5218
  122OSM   H15G12980   2.323   2.934   8.059 -0.5545 -0.4470 -0.2419
  122OSM   C16F12981   2.514   2.862   8.139  0.2926 -0.0865  0.0118
  122OSM   H16F12982   2.620   2.855   8.106  0.5279  0.0468  0.7177
  122OSM   H16G12983   2.474   2.764   8.173  1.4024  0.2369  2.4723
  122OSM   C17F12984   2.528   2.955   8.260  0.2749  0.1638 -0.6576
  122OSM   H17F12985   2.564   3.053   8.222 -3.1367  1.6913 -0.2955
  122OSM   H17G12986   2.613   2.915   8.318 -1.1229  0.2420  1.5704
  122OSM   C18F12987   2.402   2.969   8.350  0.5901  0.4481  0.0812
  122OSM   H18F12988   2.387   2.868   8.393  2.8369  0.2953  0.6327
  122OSM   H18G12989   2.311   3.001   8.295  0.3578 -0.5273 -0.1260
  122OSM   H18H12990   2.416   3.048   8.427 -3.9544  2.0598 -0.4258
  123OSM      N12991   6.365   6.433   6.459 -0.5000  0.2267  0.5255
  123OSM    C1512992   6.500   6.410   6.404  0.5786 -0.0080 -0.6360
  123OSM   H15A12993   6.520   6.467   6.314  2.7198 -0.8051 -0.7290
  123OSM   H15B12994   6.510   6.303   6.392 -2.8253 -0.7362  1.5399
  123OSM   H15C12995   6.582   6.436   6.469  0.7954 -2.2560  0.0669
  123OSM    C1412996   6.262   6.403   6.355 -0.3510  0.9967 -0.7668
  123OSM   H14A12997   6.286   6.438   6.256  1.1274 -0.8627 -1.1192
  123OSM   H14B12998   6.163   6.434   6.384 -0.1675  1.3550 -0.5170
  123OSM   H14C12999   6.248   6.297   6.335  0.1459  0.5537  1.0414
  123OSM    C1313000   6.350   6.331   6.574 -0.3303  0.1713 -0.7317
  123OSM   H13A13001   6.377   6.232   6.538 -1.5674 -0.4489 -0.0157
  123OSM   H13B13002   6.254   6.327   6.622 -0.6773  1.2165 -1.3092
  123OSM   H13C13003   6.416   6.342   6.658 -0.2391 -2.5910 -0.3434
  123OSM    C1213004   6.348   6.578   6.504 -0.4526 -0.1349 -0.6494
  123OSM   H12A13005   6.359   6.643   6.418  1.0708  1.3369  0.5860
  123OSM   H12B13006   6.431   6.608   6.567 -0.9100 -2.2045  1.0339
  123OSM    C1113007   6.224   6.612   6.594  0.0915 -0.9463  0.2378
  123OSM   H11A13008   6.232   6.719   6.620 -1.0863 -1.2550  2.0549
  123OSM   H11B13009   6.220   6.546   6.683  1.1086  0.6948  1.5684
  123OSM      P13010   6.051   6.698   6.428 -0.1378 -0.1175 -0.3590
  123OSM    O1313011   6.168   6.750   6.356 -0.2727  0.1925 -0.0419
  123OSM    O1413012   5.933   6.659   6.345  0.5050 -1.0127 -0.1249
  123OSM    O1113013   6.008   6.808   6.533 -0.2983 -0.5132 -0.3225
  123OSM    O1213014   6.101   6.586   6.525 -0.1908  0.4508  0.0097
  123OSM    C1S13015   5.903   6.781   6.629 -0.8082 -0.4429  0.1708
  123OSM    H1S13016   5.892   6.670   6.636 -1.1468 -0.4769 -0.8041
  123OSM    H1T13017   5.808   6.832   6.604 -1.1135 -0.9975  0.1937
  123OSM     NF13018   5.855   6.764   6.872 -0.1965 -0.0299  1.8347
  123OSM    HNF13019   5.777   6.820   6.897  0.6365  2.3864 -0.5056
  123OSM    C2S13020   5.941   6.830   6.773  0.0358 -0.3241  0.5905
  123OSM    H2S13021   6.046   6.796   6.787  0.2884  0.1639 -0.0677
  123OSM    C3S13022   5.938   6.985   6.776 -0.4401 -0.2339  0.3281
  123OSM    H3S13023   5.829   6.998   6.788 -0.2289  0.2545  1.9207
  123OSM     O313024   5.979   7.056   6.657 -0.3566  0.6100 -0.2210
  123OSM    HO313025   5.993   6.991   6.588  0.6472 -0.1319  0.6489
  123OSM    C4S13026   6.026   7.032   6.890 -0.3872  0.0663  0.3410
  123OSM    H4S13027   6.097   6.954   6.919  0.6387 -0.3413 -2.9140
  123OSM    C5S13028   6.016   7.152   6.957 -0.4577  0.1927 -0.2456
  123OSM    H5S13029   5.930   7.216   6.931  0.7942  1.0848 -2.4310
  123OSM    C6S13030   6.098   7.200   7.065 -0.5247 -0.4289 -0.5043
  123OSM    H6S13031   6.148   7.297   7.046  0.7227 -0.7462  0.9581
  123OSM    H6T13032   6.184   7.133   7.084  0.5621  1.6402  2.4480
  123OSM    C7S13033   6.033   7.190   7.204  0.3330  0.0545  0.1168
  123OSM    H7S13034   5.997   7.086   7.222  0.5662 -0.3787 -1.7233
  123OSM    H7T13035   5.940   7.252   7.203  0.1231 -0.2565  0.0508
  123OSM    C8S13036   6.122   7.232   7.326 -0.3170 -0.2183  0.6619
  123OSM    H8S13037   6.167   7.330   7.301  0.3449 -0.4463  0.9389
  123OSM    H8T13038   6.191   7.145   7.329  1.1963  0.8860 -0.5454
  123OSM    C9S13039   6.053   7.233   7.461  0.0360 -0.0796 -0.0909
  123OSM    H9S13040   6.011   7.135   7.492  0.1979  0.3121  1.4505
  123OSM    H9T13041   5.973   7.311   7.462  0.0315 -0.0853 -0.0053
  123OSM   C10S13042   6.149   7.263   7.577  0.1669 -0.0226 -0.0338
  123OSM   H10S13043   6.175   7.370   7.558  0.6653  0.2768  2.0226
  123OSM   H10T13044   6.236   7.196   7.564  0.1372  0.3097 -2.4440
  123OSM   C11S13045   6.088   7.239   7.724  0.6305 -0.2858  0.5607
  123OSM   H11S13046   6.092   7.128   7.726  0.5612 -0.2874  0.5966
  123OSM   H11T13047   5.981   7.264   7.737  0.5784  1.3168 -2.1849
  123OSM   C12S13048   6.175   7.298   7.841  0.1224  0.4275  0.1244
  123OSM   H12S13049   6.172   7.409   7.834 -1.5132  0.8159  4.4465
  123OSM   H12T13050   6.281   7.265   7.838 -0.4012 -1.4425  0.9526
  123OSM   C13S13051   6.116   7.259   7.979 -0.1565 -0.0319 -0.6287
  123OSM   H13S13052   6.104   7.149   7.982 -1.4985  0.1152  1.4641
  123OSM   H13T13053   6.017   7.300   8.009  0.7424 -0.8662  4.4194
  123OSM   C14S13054   6.209   7.305   8.099  0.4982 -0.4785  0.1308
  123OSM   H14S13055   6.312   7.268   8.080  1.4647  1.6814  0.8909
  123OSM   H14T13056   6.177   7.251   8.190  0.8071  1.2344  1.2980
  123OSM   C15S13057   6.199   7.453   8.105 -0.4173 -0.2752  0.7441
  123OSM   H15S13058   6.094   7.486   8.096 -1.1487 -2.0081  2.4129
  123OSM   H15T13059   6.252   7.500   8.019 -1.3060  2.1069  1.4375
  123OSM   C16S13060   6.251   7.514   8.238 -0.1204 -0.1108 -0.4717
  123OSM   H16S13061   6.286   7.619   8.224  6.9064 -1.4578  2.6297
  123OSM   H16T13062   6.341   7.465   8.280  1.4458  4.0809  1.7005
  123OSM   C17S13063   6.148   7.502   8.348  0.0557 -0.1829 -0.0547
  123OSM   H17S13064   6.089   7.408   8.354 -0.5074  0.0835 -1.1470
  123OSM   H17T13065   6.066   7.568   8.312  0.9285  2.2680  2.1461
  123OSM   C18S13066   6.201   7.556   8.475 -0.4229 -0.0364  0.5978
  123OSM   H18S13067   6.291   7.495   8.500 -1.9777 -2.3014  1.0158
  123OSM   H18T13068   6.126   7.549   8.557 -0.0179 -0.6742  0.9184
  123OSM   H18U13069   6.237   7.661   8.468 -2.0034  0.5261  0.4131
  123OSM    C1F13070   5.844   6.633   6.895  0.6653 -0.4099  0.1783
  123OSM     OF13071   5.911   6.544   6.852 -0.3487 -0.1772 -0.4165
  123OSM    C2F13072   5.738   6.600   7.000 -0.2910  0.0458 -0.1951
  123OSM    H2F13073   5.637   6.615   6.956 -0.3151  2.6043  0.5725
  123OSM    H2G13074   5.745   6.657   7.095 -0.9901 -1.1733  0.6128
  123OSM    C3F13075   5.739   6.446   7.040  0.2348 -0.6091  0.1587
  123OSM    H3F13076   5.843   6.419   7.070 -0.1485 -0.9260  1.2568
  123OSM    H3G13077   5.713   6.378   6.957 -1.0953 -1.0928  0.9332
  123OSM    C4F13078   5.640   6.415   7.157 -0.4064 -0.2075  0.1441
  123OSM    H4F13079   5.638   6.304   7.161  1.0584 -0.2958 -0.7419
  123OSM    H4G13080   5.544   6.460   7.123 -0.8692  0.2792  1.9930
  123OSM    C5F13081   5.681   6.477   7.291  0.2483 -0.1001 -0.7292
  123OSM    H5F13082   5.632   6.577   7.299 -2.3145 -1.4129  1.7101
  123OSM    H5G13083   5.791   6.491   7.291  0.3437  0.0483  2.7409
  123OSM    C6F13084   5.647   6.424   7.431 -0.1569 -0.1534  0.2718
  123OSM    H6F13085   5.632   6.314   7.431  1.9472 -0.5838 -2.8331
  123OSM    H6G13086   5.551   6.478   7.449  0.7078  1.6380 -0.2490
  123OSM    C7F13087   5.754   6.459   7.530 -0.0292 -0.7780  0.1521
  123OSM    H7F13088   5.773   6.569   7.519  2.8433 -1.1185  0.7878
  123OSM    H7G13089   5.841   6.399   7.497 -0.2661  0.4169 -2.9706
  123OSM    C8F13090   5.722   6.443   7.680 -0.3405  0.0000 -0.6984
  123OSM    H8F13091   5.806   6.484   7.740  0.7292  1.1457 -2.8931
  123OSM    H8G13092   5.725   6.332   7.690 -2.2931 -0.0251  0.0353
  123OSM    C9F13093   5.586   6.483   7.732  0.0935  0.7696 -0.3973
  123OSM    H9F13094   5.505   6.425   7.685  1.4808 -1.0362 -0.6746
  123OSM   C10F13095   5.551   6.571   7.827  0.3063  0.7591 -0.1778
  123OSM   H10F13096   5.453   6.571   7.876  1.3351  0.1956  2.0046
  123OSM   C11F13097   5.642   6.664   7.892 -0.1639 -0.0354  0.0741
  123OSM   H11F13098   5.723   6.682   7.819  0.7795  0.9922  1.3210
  123OSM   H11G13099   5.691   6.624   7.984  0.4497  1.7308  0.5525
  123OSM   C12F13100   5.589   6.797   7.946 -0.2363 -0.3784 -0.1233
  123OSM   H12F13101   5.659   6.848   8.015  0.2377  1.6659 -2.0206
  123OSM   H12G13102   5.497   6.769   8.002 -0.9437  3.4036  0.8865
  123OSM   C13F13103   5.532   6.900   7.844 -0.2570 -0.2302  0.0414
  123OSM   H13F13104   5.453   6.966   7.886 -0.9273 -1.3897  0.6283
  123OSM   H13G13105   5.475   6.832   7.777  0.6010  0.4280 -1.4333
  123OSM   C14F13106   5.630   6.972   7.746 -0.8750  0.4333  0.5358
  123OSM   H14F13107   5.729   6.923   7.750 -1.2974 -0.3750  1.4833
  123OSM   H14G13108   5.636   7.082   7.763 -1.9384  0.4246  1.1051
  123OSM   C15F13109   5.580   6.951   7.602 -0.1265  0.4992  0.5717
  123OSM   H15F13110   5.472   6.975   7.590 -0.4853 -0.8731  0.9352
  123OSM   H15G13111   5.583   6.841   7.586 -0.0019  0.5698  0.0791
  123OSM   C16F13112   5.662   7.016   7.502  0.0790  0.2556  0.0277
  123OSM   H16F13113   5.771   6.999   7.516  0.1653  1.0079  0.3527
  123OSM   H16G13114   5.663   7.127   7.509  1.9672  0.3245 -0.6969
  123OSM   C17F13115   5.634   6.971   7.363 -0.8408 -0.5807 -0.2575
  123OSM   H17F13116   5.531   6.992   7.327 -1.6525  0.0778  2.2571
  123OSM   H17G13117   5.648   6.861   7.374  1.1165 -0.7120 -3.1070
  123OSM   C18F13118   5.728   7.032   7.261 -0.3729 -0.6916 -0.6361
  123OSM   H18F13119   5.834   7.016   7.289 -0.7517  0.3697  1.6386
  123OSM   H18G13120   5.724   7.140   7.236  0.3645 -0.9198 -1.8165
  123OSM   H18H13121   5.705   6.992   7.160 -0.8551  0.1240 -0.8588
  124OSM      N13122   1.881   4.325   6.161 -0.3279 -0.3807 -0.3374
  124OSM    C1513123   1.769   4.245   6.107 -0.9244 -0.3500 -0.4615
  124OSM   H15A13124   1.802   4.153   6.060  2.4642  0.9789 -0.9635
  124OSM   H15B13125   1.724   4.297   6.023 -0.3100  0.3812 -0.3465
  124OSM   H15C13126   1.694   4.238   6.185 -1.1595  3.8327 -0.0693
  124OSM    C1413127   1.968   4.365   6.049 -0.0254  0.4236  0.8040
  124OSM   H14A13128   2.053   4.421   6.083  0.7098  0.5331 -1.1182
  124OSM   H14B13129   1.926   4.443   5.988 -0.5332  0.5064  1.2459
  124OSM   H14C13130   2.016   4.289   5.990 -0.3771  2.5116 -2.4351
  124OSM    C1313131   1.818   4.446   6.220  0.1868  0.2982 -0.2427
  124OSM   H13A13132   1.747   4.424   6.299  0.1323 -1.5596 -0.7617
  124OSM   H13B13133   1.752   4.492   6.148  1.5605 -0.3622 -1.9770
  124OSM   H13C13134   1.888   4.521   6.252  0.2691 -0.0993  0.5493
  124OSM    C1213135   1.957   4.252   6.268 -0.1785  0.0831  0.0587
  124OSM   H12A13136   1.979   4.153   6.233 -1.0924 -0.9454  2.2067
  124OSM   H12B13137   1.888   4.228   6.347 -0.3865  0.6233  0.0472
  124OSM    C1113138   2.074   4.320   6.335  1.1526  0.1622  0.6924
  124OSM   H11A13139   2.094   4.275   6.435  1.0814 -0.8771  0.2541
  124OSM   H11B13140   2.053   4.427   6.352  2.5599  0.7188 -0.8502
  124OSM      P13141   2.306   4.407   6.234 -0.0519 -0.3595 -0.0925
  124OSM    O1313142   2.408   4.348   6.145  0.4004 -0.2118  0.0526
  124OSM    O1413143   2.238   4.533   6.199 -0.1829  0.1317  0.8270
  124OSM    O1113144   2.362   4.425   6.386 -0.6761 -0.1268  0.4206
  124OSM    O1213145   2.193   4.303   6.261  0.3446  0.2856  0.0456
  124OSM    C1S13146   2.439   4.308   6.437  0.6301  0.5278 -0.4200
  124OSM    H1S13147   2.531   4.298   6.376 -0.7306  2.0802 -2.8937
  124OSM    H1T13148   2.382   4.213   6.434  2.2957 -0.7519  2.7656
  124OSM     NF13149   2.547   4.208   6.630 -0.0671 -0.3561  0.6004
  124OSM    HNF13150   2.497   4.128   6.662 -0.9950  0.7537  2.0171
  124OSM    C2S13151   2.465   4.325   6.587  0.2488  0.6061  1.5358
  124OSM    H2S13152   2.524   4.417   6.606  0.9356  0.3162  0.8667
  124OSM    C3S13153   2.328   4.336   6.658 -0.3760  0.1558 -0.4432
  124OSM    H3S13154   2.270   4.250   6.618 -1.2254 -0.0060  1.0551
  124OSM     O313155   2.250   4.445   6.629  0.4583 -0.1102 -0.3772
  124OSM    HO313156   2.273   4.475   6.541 -0.1243  2.6250  0.3113
  124OSM    C4S13157   2.340   4.328   6.807 -0.5101 -0.2421 -0.3181
  124OSM    H4S13158   2.414   4.393   6.855 -0.2608  0.8620 -2.1222
  124OSM    C5S13159   2.249   4.256   6.882 -0.5562 -0.5088  0.7742
  124OSM    H5S13160   2.174   4.191   6.835 -0.6603 -1.0342  1.6478
  124OSM    C6S13161   2.242   4.244   7.030  0.3368 -0.3380 -0.0119
  124OSM    H6S13162   2.345   4.211   7.054  1.4570  2.8064 -0.0773
  124OSM    H6T13163   2.166   4.168   7.059 -0.0744  0.1471  0.2025
  124OSM    C7S13164   2.200   4.375   7.099  0.4334 -0.4998 -0.0387
  124OSM    H7S13165   2.105   4.418   7.060  0.7807  0.1348 -0.1920
  124OSM    H7T13166   2.275   4.453   7.072  0.9520 -0.8799  0.2845
  124OSM    C8S13167   2.190   4.378   7.250 -0.3209  0.7088 -0.1782
  124OSM    H8S13168   2.173   4.479   7.292 -2.3267 -0.7826  2.9891
  124OSM    H8T13169   2.286   4.331   7.281  0.7795  0.6911 -3.3161
  124OSM    C9S13170   2.078   4.294   7.313  0.3702 -0.1226 -0.5173
  124OSM    H9S13171   2.087   4.194   7.265 -1.2817 -0.3523 -0.3882
  124OSM    H9T13172   1.982   4.339   7.281  1.3335  2.0525 -0.5085
  124OSM   C10S13173   2.085   4.267   7.466  0.4869  1.1032 -0.8755
  124OSM   H10S13174   2.178   4.207   7.479  0.0582  0.8393  1.1883
  124OSM   H10T13175   2.000   4.197   7.487  0.3401  1.0501 -1.5973
  124OSM   C11S13176   2.082   4.393   7.557  0.7062  0.2946  0.5211
  124OSM   H11S13177   2.000   4.462   7.528  0.1564 -0.7523 -0.4765
  124OSM   H11T13178   2.168   4.455   7.524 -0.0206  1.7302  1.2589
  124OSM   C12S13179   2.093   4.376   7.711 -0.2368 -0.4189 -0.0397
  124OSM   H12S13180   2.098   4.476   7.760  1.2662 -1.1053  1.3272
  124OSM   H12T13181   2.191   4.333   7.744  1.0554  4.0386  2.9508
  124OSM   C13S13182   1.976   4.306   7.778  0.8232  0.0524 -0.6190
  124OSM   H13S13183   1.968   4.197   7.757 -1.2504 -0.4340  2.1124
  124OSM   H13T13184   1.882   4.360   7.756  0.0345 -0.8856  0.3178
  124OSM   C14S13185   1.984   4.337   7.930  0.6930  0.2438 -0.2110
  124OSM   H14S13186   1.960   4.444   7.946  2.7599  1.0057 -1.6893
  124OSM   H14T13187   2.091   4.321   7.956  0.1326 -1.5782  1.1716
  124OSM   C15S13188   1.900   4.248   8.017 -0.2509  0.2815  0.2756
  124OSM   H15S13189   1.964   4.165   8.053  0.2926  0.9842  0.9458
  124OSM   H15T13190   1.812   4.206   7.964  0.2577 -1.2724  0.6057
  124OSM   C16S13191   1.854   4.346   8.133 -0.3192 -0.9777 -0.6227
  124OSM   H16S13192   1.807   4.437   8.089 -1.0868 -1.3125 -0.5149
  124OSM   H16T13193   1.938   4.377   8.198 -0.9486  1.9775 -1.0895
  124OSM   C17S13194   1.744   4.267   8.214 -0.3394  0.7665 -0.2017
  124OSM   H17S13195   1.722   4.342   8.294 -1.2791  0.7691 -0.4563
  124OSM   H17T13196   1.770   4.172   8.266  0.5463  1.5215  0.7873
  124OSM   C18S13197   1.616   4.237   8.139  0.1830  0.1084 -0.6004
  124OSM   H18S13198   1.527   4.245   8.205  1.3091  2.9817  0.7833
  124OSM   H18T13199   1.630   4.131   8.108 -0.0062 -0.4148  1.0089
  124OSM   H18U13200   1.602   4.300   8.049 -1.2119 -0.9480 -1.1445
  124OSM    C1F13201   2.673   4.190   6.584 -0.2804 -0.1443  0.3272
  124OSM     OF13202   2.734   4.271   6.517 -0.0144  0.1213 -0.3640
  124OSM    C2F13203   2.740   4.059   6.626 -1.1326 -0.9179 -0.1575
  124OSM    H2F13204   2.797   4.025   6.537 -0.5844  2.3847 -1.1836
  124OSM    H2G13205   2.670   3.986   6.673  0.1557 -1.8217  0.4488
  124OSM    C3F13206   2.849   4.100   6.734 -0.4412  0.1533 -0.0541
  124OSM    H3F13207   2.911   4.180   6.690  0.5580 -0.1298  0.8101
  124OSM    H3G13208   2.911   4.008   6.735  2.3193  1.8800 -0.8849
  124OSM    C4F13209   2.799   4.158   6.868  0.0779  0.2080 -0.0839
  124OSM    H4F13210   2.738   4.250   6.853  0.4407  0.4661  0.0262
  124OSM    H4G13211   2.895   4.179   6.919  0.3139 -3.2971  1.1586
  124OSM    C5F13212   2.714   4.063   6.948  0.3558 -0.2858  0.5001
  124OSM    H5F13213   2.792   3.996   6.990  1.2144  0.6084  0.3496
  124OSM    H5G13214   2.631   4.017   6.890 -0.7257 -0.9993  2.5064
  124OSM    C6F13215   2.657   4.139   7.075 -0.1918  0.0195  0.0876
  124OSM    H6F13216   2.585   4.214   7.035 -0.2722  0.0176  0.2271
  124OSM    H6G13217   2.736   4.191   7.132  0.5326 -1.8713  0.8717
  124OSM    C7F13218   2.572   4.032   7.152 -0.3496 -0.1035 -0.3512
  124OSM    H7F13219   2.641   3.945   7.165 -0.4596  0.1249  2.3584
  124OSM    H7G13220   2.498   4.005   7.074  0.6173 -0.1379 -1.2894
  124OSM    C8F13221   2.513   4.080   7.292  0.2115 -0.8608  1.0231
  124OSM    H8F13222   2.442   4.003   7.327 -1.5143  1.1257  2.1215
  124OSM    H8G13223   2.453   4.173   7.280  0.6717 -0.7790 -1.0244
  124OSM    C9F13224   2.610   4.116   7.402 -0.5640  0.4579 -0.6261
  124OSM    H9F13225   2.703   4.057   7.397 -0.3801  0.8407 -3.4967
  124OSM   C10F13226   2.597   4.217   7.490 -0.0061  0.2475 -0.2827
  124OSM   H10F13227   2.680   4.235   7.561 -1.2238  0.4194  1.1436
  124OSM   C11F13228   2.493   4.324   7.505 -0.3111  0.3420  0.4812
  124OSM   H11F13229   2.475   4.316   7.614 -0.9955  2.8247  0.6115
  124OSM   H11G13230   2.397   4.307   7.452 -1.3023  0.8251  2.0775
  124OSM   C12F13231   2.557   4.463   7.472 -0.6425  0.6814 -0.1555
  124OSM   H12F13232   2.654   4.483   7.523 -1.3967  0.2692  1.5192
  124OSM   H12G13233   2.491   4.538   7.520 -0.3316 -0.9505  3.1187
  124OSM   C13F13234   2.578   4.483   7.327 -0.0825 -0.2652 -0.5396
  124OSM   H13F13235   2.478   4.469   7.281 -0.8334 -0.1222  0.9617
  124OSM   H13G13236   2.650   4.412   7.283  0.1625  0.4583 -1.3400
  124OSM   C14F13237   2.648   4.617   7.300 -0.3368  0.3638 -0.3658
  124OSM   H14F13238   2.743   4.618   7.357  0.1445  2.8655 -1.0738
  124OSM   H14G13239   2.591   4.708   7.331 -2.1321 -0.2469 -1.6747
  124OSM   C15F13240   2.694   4.632   7.154  0.2338  0.5406  0.1002
  124OSM   H15F13241   2.758   4.545   7.130 -0.0842  0.1579  0.6249
  124OSM   H15G13242   2.757   4.723   7.142  0.2984  0.4972  0.1102
  124OSM   C16F13243   2.576   4.636   7.055  0.0160 -0.9196  0.4937
  124OSM   H16F13244   2.516   4.725   7.082 -1.4966 -1.6251 -0.3430
  124OSM   H16G13245   2.514   4.545   7.072  2.7947 -3.0933 -0.1891
  124OSM   C17F13246   2.607   4.639   6.903 -0.0052 -0.1699  0.1151
  124OSM   H17F13247   2.661   4.723   6.853 -2.9444 -0.6162 -4.4526
  124OSM   H17G13248   2.505   4.645   6.859 -0.2733 -2.5071  0.3011
  124OSM   C18F13249   2.679   4.518   6.850  0.0241 -0.1247  0.6914
  124OSM   H18F13250   2.789   4.535   6.846  0.1085 -0.7962 -1.3943
  124OSM   H18G13251   2.643   4.507   6.745 -2.6147  1.0601  1.3974
  124OSM   H18H13252   2.657   4.431   6.915  0.0771 -0.4122  0.3286
  125OSM      N13253   4.916   2.528   5.975 -0.1737 -0.1531  0.1881
  125OSM    C1513254   5.003   2.554   5.860 -0.5958 -1.2346  0.1250
  125OSM   H15A13255   5.063   2.642   5.880 -1.0838 -1.3576  2.3960
  125OSM   H15B13256   4.955   2.550   5.763  0.3155  0.4024 -0.4376
  125OSM   H15C13257   5.080   2.478   5.858 -0.3100 -0.9366 -1.4416
  125OSM    C1413258   4.841   2.658   5.999 -0.0878  0.2084  0.4742
  125OSM   H14A13259   4.913   2.732   6.032 -1.1799  1.2542  0.5403
  125OSM   H14B13260   4.764   2.649   6.074 -0.3313 -0.8720  0.1170
  125OSM   H14C13261   4.794   2.685   5.906  1.0332  1.9887  0.3690
  125OSM    C1313262   4.812   2.419   5.936 -0.3246  0.0717  0.1687
  125OSM   H13A13263   4.727   2.465   5.888  1.0315  1.4746 -1.0082
  125OSM   H13B13264   4.787   2.366   6.027  1.3822 -1.5106 -0.2199
  125OSM   H13C13265   4.860   2.342   5.878  0.0849  1.2796 -1.1530
  125OSM    C1213266   5.000   2.493   6.096 -0.3250  0.2838 -1.1603
  125OSM   H12A13267   5.069   2.572   6.121 -0.6568 -0.0848  1.0622
  125OSM   H12B13268   5.071   2.413   6.076 -0.4360  0.3705 -1.9633
  125OSM    C1113269   4.929   2.468   6.231 -0.9724  0.3371  0.9430
  125OSM   H11A13270   4.884   2.564   6.266  1.4769  1.5848  0.8501
  125OSM   H11B13271   4.999   2.445   6.315 -0.2125  2.6156  1.0061
  125OSM      P13272   4.853   2.222   6.246 -0.0223  0.3096 -0.1642
  125OSM    O1313273   4.749   2.151   6.170  0.3949 -0.5071 -0.1518
  125OSM    O1413274   4.992   2.189   6.218  0.0919 -0.1652  0.6618
  125OSM    O1113275   4.829   2.206   6.400 -0.2578 -0.2205  0.2000
  125OSM    O1213276   4.829   2.377   6.221 -0.0279  0.1396  0.1964
  125OSM    C1S13277   4.743   2.297   6.474  0.5283  0.2132 -0.1087
  125OSM    H1S13278   4.637   2.285   6.444  0.2198  1.2134  0.5384
  125OSM    H1T13279   4.766   2.403   6.452 -1.4655  0.2295 -2.5762
  125OSM     NF13280   4.656   2.352   6.696  0.8673 -0.4754  0.2645
  125OSM    HNF13281   4.681   2.425   6.758 -1.2970 -1.1651  2.0664
  125OSM    C2S13282   4.756   2.277   6.628 -0.3012 -0.0760 -0.1298
  125OSM    H2S13283   4.746   2.168   6.649  0.6663  0.2710  2.4592
  125OSM    C3S13284   4.901   2.314   6.669  0.5856 -0.1526 -0.3529
  125OSM    H3S13285   4.924   2.417   6.634 -0.3465  0.3336  0.4367
  125OSM     O313286   4.999   2.242   6.593 -0.0564 -0.0938 -0.8242
  125OSM    HO313287   4.950   2.201   6.522 -1.8520 -1.2593  0.9822
  125OSM    C4S13288   4.922   2.297   6.815 -0.7685  0.9726 -0.2966
  125OSM    H4S13289   4.943   2.190   6.833 -3.0324  0.4585 -0.3985
  125OSM    C5S13290   4.930   2.390   6.909 -0.4960 -0.7855  0.0540
  125OSM    H5S13291   4.917   2.496   6.881 -2.5789 -1.5308 -2.2191
  125OSM    C6S13292   4.943   2.351   7.056  0.1508 -0.3786  0.1674
  125OSM    H6S13293   5.045   2.387   7.084 -0.4638  2.1813 -0.6038
  125OSM    H6T13294   4.956   2.242   7.073  1.7170 -1.1583 -4.6535
  125OSM    C7S13295   4.850   2.430   7.151  0.0209 -0.3498  0.0140
  125OSM    H7S13296   4.746   2.406   7.118  0.6064  0.7614 -2.9381
  125OSM    H7T13297   4.862   2.537   7.126 -1.8786 -0.3449 -1.0815
  125OSM    C8S13298   4.866   2.402   7.310 -0.6515  0.1814  0.7140
  125OSM    H8S13299   4.969   2.420   7.346 -0.4468 -2.0059  1.3599
  125OSM    H8T13300   4.825   2.300   7.326 -2.1956  0.4774 -0.9523
  125OSM    C9S13301   4.773   2.502   7.379  0.2168 -0.5933  0.7326
  125OSM    H9S13302   4.671   2.498   7.336  0.0246  1.7988  0.8447
  125OSM    H9T13303   4.807   2.607   7.370 -0.1327 -0.3326  2.2921
  125OSM   C10S13304   4.757   2.464   7.526 -0.1451 -0.1334  0.6780
  125OSM   H10S13305   4.839   2.508   7.586  0.9373  0.6829 -1.3130
  125OSM   H10T13306   4.758   2.352   7.528 -1.0755 -0.3418 -3.3609
  125OSM   C11S13307   4.626   2.515   7.589  0.1764  0.3641 -0.2748
  125OSM   H11S13308   4.548   2.439   7.566 -1.6653  1.4775  1.8937
  125OSM   H11T13309   4.600   2.615   7.550  2.1111  1.0119  0.0140
  125OSM   C12S13310   4.623   2.507   7.738  0.1399 -0.0293  0.3394
  125OSM   H12S13311   4.522   2.540   7.770  0.7818  1.0592  1.3381
  125OSM   H12T13312   4.691   2.579   7.790  2.9065 -1.9931 -0.3202
  125OSM   C13S13313   4.654   2.377   7.802 -0.3506  0.3894  0.5697
  125OSM   H13S13314   4.764   2.371   7.787  0.1856  2.1145  3.1266
  125OSM   H13T13315   4.597   2.294   7.755 -0.1762 -0.0100  1.0520
  125OSM   C14S13316   4.626   2.376   7.951 -0.4021 -0.3731  0.0047
  125OSM   H14S13317   4.567   2.287   7.982  0.1088 -0.5335  0.5330
  125OSM   H14T13318   4.569   2.470   7.964 -1.5179 -0.9457 -0.5729
  125OSM   C15S13319   4.755   2.390   8.035  0.4497 -0.2790 -0.1120
  125OSM   H15S13320   4.827   2.455   7.981 -1.3090  1.3978 -0.5422
  125OSM   H15T13321   4.820   2.300   8.039 -0.8380 -1.2114  0.5531
  125OSM   C16S13322   4.737   2.442   8.182 -0.0284 -0.3311  0.1420
  125OSM   H16S13323   4.712   2.549   8.172 -3.2094 -1.0311 -0.6639
  125OSM   H16T13324   4.835   2.437   8.234  0.8510  3.2416 -0.8892
  125OSM   C17S13325   4.630   2.376   8.273  0.0704 -0.5669 -0.4729
  125OSM   H17S13326   4.660   2.270   8.289  1.7596  0.0809  1.0320
  125OSM   H17T13327   4.535   2.380   8.215  0.1680  1.0226 -0.5551
  125OSM   C18S13328   4.617   2.455   8.403 -0.0857  0.6026 -0.1232
  125OSM   H18S13329   4.577   2.557   8.387 -0.4509  0.2046 -1.9605
  125OSM   H18T13330   4.709   2.463   8.464 -0.5145  1.6226  0.4102
  125OSM   H18U13331   4.545   2.397   8.466  0.9281 -0.5848 -0.0120
  125OSM    C1F13332   4.535   2.291   6.713 -0.2545 -0.3453 -0.0541
  125OSM     OF13333   4.500   2.212   6.630  0.1025  0.1164 -0.0383
  125OSM    C2F13334   4.455   2.319   6.835  0.2286  0.1731 -0.5979
  125OSM    H2F13335   4.402   2.222   6.852 -0.7878  0.3992 -2.1843
  125OSM    H2G13336   4.387   2.392   6.787  0.4954  2.2483  1.9801
  125OSM    C3F13337   4.546   2.353   6.958 -0.3548 -0.5442  0.2658
  125OSM    H3F13338   4.608   2.439   6.924 -0.5202 -1.4544 -2.6112
  125OSM    H3G13339   4.618   2.270   6.976  0.3853  0.0605  0.1482
  125OSM    C4F13340   4.461   2.396   7.084 -0.6086  0.0038  0.4278
  125OSM    H4F13341   4.522   2.398   7.177 -0.4399 -3.7395  0.5387
  125OSM    H4G13342   4.382   2.323   7.111 -0.2479 -0.1010  1.2438
  125OSM    C5F13343   4.393   2.530   7.054 -0.1332  0.4679  0.6603
  125OSM    H5F13344   4.336   2.522   6.959 -1.6329 -1.9676  1.6621
  125OSM    H5G13345   4.475   2.605   7.051  1.3002 -1.0534  0.8245
  125OSM    C6F13346   4.295   2.588   7.159 -0.1157  0.0181  0.1650
  125OSM    H6F13347   4.201   2.529   7.146  0.7095 -1.0985 -0.8705
  125OSM    H6G13348   4.264   2.690   7.127  0.2449 -0.6297 -2.4603
  125OSM    C7F13349   4.345   2.595   7.304  0.4263  0.1147  0.0868
  125OSM    H7F13350   4.427   2.668   7.318 -1.1864  2.0110 -0.0038
  125OSM    H7G13351   4.384   2.495   7.334  1.3296  0.9945  1.9637
  125OSM    C8F13352   4.239   2.627   7.410  0.0938 -0.1286 -0.3064
  125OSM    H8F13353   4.197   2.729   7.405 -1.0882 -0.4538  2.0137
  125OSM    H8G13354   4.299   2.629   7.503 -0.3836 -0.4073  0.0085
  125OSM    C9F13355   4.123   2.533   7.425  0.0925  0.5616  0.1796
  125OSM    H9F13356   4.041   2.545   7.352 -0.6186  0.0726  0.8766
  125OSM   C10F13357   4.111   2.453   7.537 -0.2170 -0.0999 -0.4347
  125OSM   H10F13358   4.018   2.393   7.536 -0.7142  0.6530 -1.7966
  125OSM   C11F13359   4.197   2.443   7.658 -0.0518 -0.0088  0.7366
  125OSM   H11F13360   4.300   2.476   7.634  0.1265 -2.4488 -2.5110
  125OSM   H11G13361   4.213   2.335   7.680 -3.2914 -0.9216 -0.7090
  125OSM   C12F13362   4.142   2.504   7.783  0.1533  0.0561  0.7281
  125OSM   H12F13363   4.050   2.450   7.814 -0.5487  1.6110  1.4427
  125OSM   H12G13364   4.123   2.608   7.749  0.9413 -0.4282 -1.3464
  125OSM   C13F13365   4.248   2.513   7.894  0.5856 -0.5450 -0.2791
  125OSM   H13F13366   4.328   2.587   7.870 -0.5096 -0.1327 -2.9860
  125OSM   H13G13367   4.283   2.408   7.893 -0.2914 -0.8383 -0.9903
  125OSM   C14F13368   4.182   2.561   8.024 -0.1883  0.4284 -0.5762
  125OSM   H14F13369   4.264   2.557   8.098 -0.6808 -1.3917 -0.0781
  125OSM   H14G13370   4.109   2.480   8.046 -1.4211  1.4984 -0.5665
  125OSM   C15F13371   4.098   2.690   8.014  0.4900 -0.5397  0.7125
  125OSM   H15F13372   4.002   2.655   7.970  0.2659 -1.3131  1.7865
  125OSM   H15G13373   4.141   2.759   7.939 -0.8713 -0.8221 -0.3841
  125OSM   C16F13374   4.080   2.767   8.141  0.1027 -0.3073  0.5362
  125OSM   H16F13375   4.178   2.801   8.182  1.2989 -2.0435 -0.7910
  125OSM   H16G13376   4.034   2.699   8.216  0.9860  1.0103  2.3648
  125OSM   C17F13377   3.994   2.887   8.117  0.3917 -0.0565  0.1491
  125OSM   H17F13378   3.942   2.907   8.213 -1.7071 -0.9402 -0.7424
  125OSM   H17G13379   3.907   2.855   8.057  0.2852  0.9061 -0.2342
  125OSM   C18F13380   4.069   3.010   8.068  0.1752 -0.8474 -0.4136
  125OSM   H18F13381   4.124   2.991   7.974 -1.0071 -0.3658 -1.2291
  125OSM   H18G13382   4.145   3.040   8.144  1.2585  0.2029 -1.8621
  125OSM   H18H13383   4.000   3.095   8.049  1.4603 -0.2253 -2.5223
  126OSM      N13384   2.935   5.880   6.581  1.0366 -0.2178  0.3965
  126OSM    C1513385   2.993   5.910   6.714 -0.1645  0.3512 -0.3298
  126OSM   H15A13386   2.932   5.865   6.791 -1.6752  2.1020 -0.4223
  126OSM   H15B13387   2.996   6.018   6.715 -1.1366  0.4103  1.9377
  126OSM   H15C13388   3.086   5.857   6.708 -1.5931 -2.1618 -1.9991
  126OSM    C1413389   2.785   5.934   6.568  0.7661 -0.1305 -0.0891
  126OSM   H14A13390   2.728   5.879   6.641 -0.2874 -0.1004 -0.8527
  126OSM   H14B13391   2.742   5.904   6.473 -0.5917  2.1529 -0.2664
  126OSM   H14C13392   2.786   6.041   6.579  0.7028 -0.1402  0.0076
  126OSM    C1313393   2.992   5.945   6.460  0.3592 -0.7175  0.0525
  126OSM   H13A13394   3.100   5.937   6.455  0.4298 -0.5242  1.1144
  126OSM   H13B13395   2.972   6.051   6.454 -0.4203 -0.8171  0.8423
  126OSM   H13C13396   2.960   5.884   6.376 -2.0522 -0.6985  0.8886
  126OSM    C1213397   2.931   5.726   6.571  0.6884 -0.3961  0.0548
  126OSM   H12A13398   2.851   5.708   6.501 -0.3338  3.6665 -0.0671
  126OSM   H12B13399   2.889   5.680   6.659  1.4482 -0.0122  0.6351
  126OSM    C1113400   3.065   5.655   6.534  0.4347  0.2472  0.4692
  126OSM   H11A13401   3.043   5.547   6.523  0.7412  0.1719  0.5968
  126OSM   H11B13402   3.133   5.668   6.621 -0.7125 -0.7416  1.5524
  126OSM      P13403   3.257   5.654   6.353 -0.5708 -0.1197  0.1264
  126OSM    O1313404   3.224   5.536   6.270  0.7722 -0.1145 -0.2743
  126OSM    O1413405   3.308   5.773   6.281  0.4400 -0.8127 -0.3700
  126OSM    O1113406   3.348   5.605   6.475  0.3160 -0.5160  0.4459
  126OSM    O1213407   3.125   5.704   6.418 -0.4341  0.2215 -0.5415
  126OSM    C1S13408   3.409   5.695   6.565 -1.3706  0.1577 -0.7427
  126OSM    H1S13409   3.351   5.789   6.580  2.0555  2.7257 -2.3558
  126OSM    H1T13410   3.509   5.730   6.533 -0.3768 -0.8901  1.0480
  126OSM     NF13411   3.478   5.733   6.794  0.3205 -0.4826  0.0215
  126OSM    HNF13412   3.574   5.740   6.819  0.7559 -0.2271 -1.6093
  126OSM    C2S13413   3.440   5.626   6.694  0.2168  0.0513 -1.1985
  126OSM    H2S13414   3.349   5.574   6.730 -0.0990 -0.5418 -2.8115
  126OSM    C3S13415   3.553   5.525   6.669  0.0365  0.1943 -0.5837
  126OSM    H3S13416   3.639   5.589   6.639  0.8523 -0.0309  1.1401
  126OSM     O313417   3.534   5.428   6.565  0.0218 -0.5293 -0.0805
  126OSM    HO313418   3.477   5.476   6.506 -0.8173 -0.5459  0.6978
  126OSM    C4S13419   3.588   5.449   6.797  0.6396 -0.3174  0.3218
  126OSM    H4S13420   3.669   5.502   6.849  0.2039  1.3013 -0.5567
  126OSM    C5S13421   3.539   5.329   6.848  0.9535  0.4020  0.4676
  126OSM    H5S13422   3.462   5.270   6.795  0.3716  0.3771  1.3236
  126OSM    C6S13423   3.581   5.269   6.979 -0.0127 -0.0432  0.8155
  126OSM    H6S13424   3.664   5.334   7.015 -0.1186  1.4630 -1.4709
  126OSM    H6T13425   3.625   5.168   6.974  0.0053 -0.0276  0.6508
  126OSM    C7S13426   3.475   5.256   7.083  0.5576  0.8118  0.0878
  126OSM    H7S13427   3.393   5.215   7.019  0.2228  3.8966 -1.6214
  126OSM    H7T13428   3.440   5.358   7.110  0.2216  0.5840  0.5291
  126OSM    C8S13429   3.515   5.170   7.208 -0.3519 -0.5442  0.7317
  126OSM    H8S13430   3.608   5.209   7.256  1.0030 -1.0042 -1.3620
  126OSM    H8T13431   3.565   5.076   7.175  1.8037  1.3989 -2.0966
  126OSM    C9S13432   3.418   5.160   7.319 -0.2397 -0.2239 -0.0333
  126OSM    H9S13433   3.345   5.079   7.298 -0.6442  0.1018  0.1104
  126OSM    H9T13434   3.365   5.257   7.327  0.2146 -0.0084  0.4038
  126OSM   C10S13435   3.483   5.124   7.457 -0.3274 -0.0620  0.4955
  126OSM   H10S13436   3.548   5.203   7.501  0.7508 -1.0728  0.7520
  126OSM   H10T13437   3.541   5.032   7.433  1.3164  0.8444  0.8452
  126OSM   C11S13438   3.366   5.108   7.559 -0.0956 -0.4936  0.0388
  126OSM   H11S13439   3.307   5.015   7.549 -0.9480 -0.0992  1.2393
  126OSM   H11T13440   3.306   5.200   7.540  0.3753 -0.1063  0.4078
  126OSM   C12S13441   3.401   5.109   7.705 -0.1927  0.7919 -0.9268
  126OSM   H12S13442   3.298   5.087   7.743 -0.3561  1.5388 -0.9226
  126OSM   H12T13443   3.436   5.207   7.744 -2.8489  1.8114 -0.9059
  126OSM   C13S13444   3.489   4.991   7.752 -1.0822 -0.2342  0.8604
  126OSM   H13S13445   3.583   4.987   7.692 -1.0697 -0.2897  0.8837
  126OSM   H13T13446   3.442   4.895   7.724 -4.0698  1.5304 -0.6805
  126OSM   C14S13447   3.517   4.991   7.896 -0.5813  0.1625 -0.6292
  126OSM   H14S13448   3.577   4.902   7.926  0.3733  0.8201 -0.5455
  126OSM   H14T13449   3.423   4.986   7.955 -0.4893 -1.9626 -0.5782
  126OSM   C15S13450   3.614   5.099   7.950 -0.1274 -0.3200  0.0212
  126OSM   H15S13451   3.589   5.206   7.928  0.2223  0.0457  1.3175
  126OSM   H15T13452   3.710   5.069   7.904  0.3085  0.1897  0.5821
  126OSM   C16S13453   3.638   5.079   8.101 -0.7615 -0.6330  0.3110
  126OSM   H16S13454   3.651   4.970   8.117  0.6883 -0.5475 -0.1604
  126OSM   H16T13455   3.543   5.105   8.152 -1.8084  0.6554 -2.1034
  126OSM   C17S13456   3.770   5.136   8.154  0.0614  0.1706 -0.5078
  126OSM   H17S13457   3.756   5.246   8.161 -0.3847  0.0105  1.7204
  126OSM   H17T13458   3.850   5.115   8.079  1.8647 -0.4988  1.5067
  126OSM   C18S13459   3.804   5.070   8.290 -0.1610 -0.1422  0.2557
  126OSM   H18S13460   3.729   5.118   8.356  0.7392  0.0690  1.1429
  126OSM   H18T13461   3.905   5.103   8.322 -0.1555  0.9687 -0.8065
  126OSM   H18U13462   3.794   4.960   8.287 -1.7544 -0.0658  1.5288
  126OSM    C1F13463   3.395   5.836   6.838  0.4086 -0.3223  0.4432
  126OSM     OF13464   3.273   5.836   6.812 -0.1178  0.2997  0.6207
  126OSM    C2F13465   3.462   5.935   6.925 -0.2516  0.3768 -0.7048
  126OSM    H2F13466   3.548   5.982   6.874 -0.2362  1.0696 -0.0543
  126OSM    H2G13467   3.506   5.879   7.010  0.9130 -0.7568 -1.9922
  126OSM    C3F13468   3.364   6.032   6.994  0.1303 -0.3436  0.4229
  126OSM    H3F13469   3.279   5.988   7.049 -0.8251  1.9193  0.8569
  126OSM    H3G13470   3.315   6.088   6.912  3.0911  0.4229 -0.9876
  126OSM    C4F13471   3.432   6.130   7.094 -0.2725 -0.4491  0.0073
  126OSM    H4F13472   3.365   6.217   7.107  0.3027  0.0319 -0.1734
  126OSM    H4G13473   3.522   6.169   7.041 -1.8171  3.0320 -0.3235
  126OSM    C5F13474   3.450   6.062   7.225  0.2886  0.0140 -0.0732
  126OSM    H5F13475   3.527   5.982   7.227 -0.7910 -1.0897 -1.0755
  126OSM    H5G13476   3.359   6.012   7.264  0.3718  0.3854  0.6133
  126OSM    C6F13477   3.466   6.168   7.344 -0.6310  0.0396  0.2376
  126OSM    H6F13478   3.366   6.212   7.363 -0.6046  1.2100 -1.9691
  126OSM    H6G13479   3.534   6.253   7.320 -1.5405  0.5646 -0.5696
  126OSM    C7F13480   3.506   6.096   7.483 -0.6107  0.3173  0.7010
  126OSM    H7F13481   3.614   6.074   7.471 -0.5847  0.2462  1.0555
  126OSM    H7G13482   3.449   6.001   7.483 -0.3602  0.1669  0.2219
  126OSM    C8F13483   3.473   6.187   7.595  0.5352  0.6022 -0.0781
  126OSM    H8F13484   3.363   6.204   7.585  0.0303 -1.0352  2.1532
  126OSM    H8G13485   3.524   6.284   7.579 -0.9975  1.3884 -0.4328
  126OSM    C9F13486   3.515   6.127   7.722  0.2153 -1.0758 -0.0585
  126OSM    H9F13487   3.621   6.148   7.738  0.1145 -1.5330  1.3771
  126OSM   C10F13488   3.445   6.058   7.814  0.0439 -0.2367  0.1150
  126OSM   H10F13489   3.498   6.009   7.896 -0.0089  0.4435  0.5605
  126OSM   C11F13490   3.300   6.019   7.792  0.2266  0.4554 -0.1578
  126OSM   H11F13491   3.293   5.914   7.756  1.3379  0.7114 -1.1651
  126OSM   H11G13492   3.248   6.071   7.709 -2.8242 -1.4471  0.3896
  126OSM   C12F13493   3.232   6.033   7.923 -0.0722 -0.2101 -0.4220
  126OSM   H12F13494   3.126   6.057   7.899 -0.9359 -0.0547  3.0284
  126OSM   H12G13495   3.267   6.122   7.979 -1.5618  0.7850 -0.9974
  126OSM   C13F13496   3.233   5.906   8.008  0.0393 -0.2152 -0.3763
  126OSM   H13F13497   3.336   5.869   8.028  0.3412  1.3904  1.3953
  126OSM   H13G13498   3.188   5.827   7.944 -1.9050  0.4096  0.1436
  126OSM   C14F13499   3.158   5.928   8.141 -1.0136 -0.1597 -0.4869
  126OSM   H14F13500   3.063   5.971   8.104 -1.4250 -0.6944 -0.0724
  126OSM   H14G13501   3.219   5.995   8.206 -1.7315 -0.5656  0.6337
  126OSM   C15F13502   3.144   5.797   8.214 -0.2722  0.3519 -0.8393
  126OSM   H15F13503   3.096   5.725   8.145  0.4647  0.2368 -1.2384
  126OSM   H15G13504   3.080   5.814   8.303  0.0432  0.9299 -0.7177
  126OSM   C16F13505   3.279   5.733   8.259 -0.0650 -0.3488  0.3459
  126OSM   H16F13506   3.348   5.812   8.297  1.8378 -2.1006  0.6892
  126OSM   H16G13507   3.319   5.676   8.173 -2.1611 -2.4701  0.6700
  126OSM   C17F13508   3.265   5.634   8.369  0.1640  0.1792  0.0699
  126OSM   H17F13509   3.188   5.558   8.345 -0.5787 -0.1531  3.1143
  126OSM   H17G13510   3.220   5.682   8.459 -2.3752  1.7572 -1.8989
  126OSM   C18F13511   3.399   5.562   8.402  0.9188  0.0538  0.0555
  126OSM   H18F13512   3.375   5.477   8.469 -1.1750  0.2779 -0.3467
  126OSM   H18G13513   3.478   5.621   8.454  0.0513  0.3050  1.1096
  126OSM   H18H13514   3.443   5.522   8.308  1.8458  0.4209  0.3237
  127OSM      N13515   6.524   5.720   6.120  0.6803 -0.2682  0.3818
  127OSM    C1513516   6.628   5.806   6.053  0.0829  0.3433 -0.2383
  127OSM   H15A13517   6.715   5.753   6.016  0.6564  0.4645  0.8938
  127OSM   H15B13518   6.662   5.875   6.129  1.6598 -0.5603 -0.0631
  127OSM   H15C13519   6.585   5.860   5.971 -1.2936  0.6476  0.6493
  127OSM    C1413520   6.400   5.806   6.130  0.2042 -0.2523  0.3869
  127OSM   H14A13521   6.362   5.820   6.030 -0.2641 -2.2407  0.2352
  127OSM   H14B13522   6.431   5.897   6.179 -0.3664  0.3714 -0.3804
  127OSM   H14C13523   6.320   5.750   6.177 -1.1152  1.0211 -0.2610
  127OSM    C1313524   6.486   5.602   6.033 -0.4167 -0.1628  0.6966
  127OSM   H13A13525   6.459   5.648   5.939 -0.4409  2.9851  2.1289
  127OSM   H13B13526   6.415   5.534   6.077 -3.1326 -0.8384 -4.0551
  127OSM   H13C13527   6.573   5.539   6.019 -1.1816 -1.6220  2.2089
  127OSM    C1213528   6.565   5.673   6.257 -0.5365 -0.3170 -0.2414
  127OSM   H12A13529   6.661   5.623   6.247  0.3757  0.8032  2.2064
  127OSM   H12B13530   6.490   5.606   6.297 -1.0338  0.0650 -0.5237
  127OSM    C1113531   6.574   5.765   6.383 -0.4951  0.0911 -0.1499
  127OSM   H11A13532   6.618   5.714   6.471  0.6509 -1.2732 -1.4616
  127OSM   H11B13533   6.468   5.791   6.406 -0.0476  0.0079  2.3198
  127OSM      P13534   6.608   6.012   6.439  0.0229 -0.3284  0.0875
  127OSM    O1313535   6.727   6.095   6.445 -0.2712 -0.3594 -0.4599
  127OSM    O1413536   6.487   6.074   6.382 -0.3775 -0.2722 -0.3664
  127OSM    O1113537   6.564   5.956   6.578  0.0122 -0.2517 -0.2165
  127OSM    O1213538   6.644   5.887   6.356  0.1685 -0.1226 -0.3443
  127OSM    C1S13539   6.584   6.033   6.689  0.0432 -0.2456  0.5017
  127OSM    H1S13540   6.523   6.126   6.699 -0.0380 -0.4460  2.2761
  127OSM    H1T13541   6.688   6.070   6.697 -0.2654  1.3919 -1.8913
  127OSM     NF13542   6.535   6.055   6.928 -0.0811 -0.1050  0.3696
  127OSM    HNF13543   6.612   6.088   6.981  0.3089  0.5009 -0.5395
  127OSM    C2S13544   6.557   5.956   6.821 -0.2796 -0.1037 -0.3752
  127OSM    H2S13545   6.471   5.887   6.804 -0.9443 -0.4036  3.3143
  127OSM    C3S13546   6.674   5.850   6.839  0.2426  0.2033 -0.3702
  127OSM    H3S13547   6.770   5.904   6.858  0.7206 -1.1251  1.1663
  127OSM     O313548   6.693   5.758   6.730 -0.7769  0.2424  0.3117
  127OSM    HO313549   6.642   5.800   6.661 -1.4850 -3.1577 -1.4205
  127OSM    C4S13550   6.655   5.773   6.971  0.2372  0.1130  0.4068
  127OSM    H4S13551   6.707   5.818   7.057  1.7091 -2.0009  0.6877
  127OSM    C5S13552   6.604   5.647   6.985  0.7606 -0.0099 -0.9355
  127OSM    H5S13553   6.588   5.588   6.894  0.0968 -0.7221 -0.3711
  127OSM    C6S13554   6.585   5.578   7.123  0.3389 -0.2828  0.9770
  127OSM    H6S13555   6.647   5.486   7.128 -1.1810 -1.4289 -0.0050
  127OSM    H6T13556   6.479   5.544   7.130  0.3222 -0.5981 -0.4019
  127OSM    C7S13557   6.598   5.670   7.248 -0.0866  0.8059  0.1174
  127OSM    H7S13558   6.527   5.753   7.227 -1.2539  0.3535  2.0427
  127OSM    H7T13559   6.702   5.707   7.241  0.8000 -1.6369 -0.6696
  127OSM    C8S13560   6.572   5.585   7.371  0.8189 -0.2551  0.7562
  127OSM    H8S13561   6.638   5.495   7.363  0.0158 -0.7355 -1.2577
  127OSM    H8T13562   6.466   5.553   7.368  0.2036  1.5950  1.6828
  127OSM    C9S13563   6.582   5.664   7.505 -0.0084 -0.5109 -0.1893
  127OSM    H9S13564   6.499   5.737   7.512  0.2568 -0.3795  2.2500
  127OSM    H9T13565   6.665   5.738   7.497 -1.6246  1.3828 -0.0781
  127OSM   C10S13566   6.601   5.577   7.630  0.0271  0.2977 -0.1440
  127OSM   H10S13567   6.706   5.540   7.631  0.0035  0.0428  3.0652
  127OSM   H10T13568   6.534   5.489   7.616 -0.7421  1.1296 -1.9066
  127OSM   C11S13569   6.576   5.649   7.763 -0.3891  0.0596 -0.9379
  127OSM   H11S13570   6.467   5.671   7.767 -0.8487 -1.8804 -1.6217
  127OSM   H11T13571   6.628   5.747   7.771 -0.5471 -0.0130  2.2216
  127OSM   C12S13572   6.615   5.550   7.876  0.3762 -0.1575  0.2157
  127OSM   H12S13573   6.721   5.523   7.857  0.0940 -0.7868 -0.5131
  127OSM   H12T13574   6.556   5.457   7.864 -0.5502  0.3477  0.7239
  127OSM   C13S13575   6.588   5.600   8.018 -0.4689  0.2086 -0.1090
  127OSM   H13S13576   6.632   5.701   8.028  1.6119 -0.5892 -0.4665
  127OSM   H13T13577   6.646   5.533   8.086  0.1800  1.5557  0.7028
  127OSM   C14S13578   6.442   5.613   8.058  0.8412  0.6230  0.3635
  127OSM   H14S13579   6.388   5.684   7.993 -0.7159 -1.9466 -1.3069
  127OSM   H14T13580   6.442   5.659   8.159  1.4806  1.7478 -0.1348
  127OSM   C15S13581   6.380   5.471   8.082  0.5747  0.6566  0.1195
  127OSM   H15S13582   6.461   5.410   8.128  1.4164  1.3683 -0.3759
  127OSM   H15T13583   6.369   5.421   7.983  1.1661  0.8253 -0.0379
  127OSM   C16S13584   6.241   5.486   8.154  0.1592  0.0679 -0.4359
  127OSM   H16S13585   6.169   5.561   8.117 -0.1621  0.7471  1.4838
  127OSM   H16T13586   6.260   5.507   8.261  1.3307  1.1129 -0.8286
  127OSM   C17S13587   6.160   5.353   8.137 -0.0096 -0.0374  0.2108
  127OSM   H17S13588   6.236   5.274   8.154 -0.5739 -0.5377  0.4533
  127OSM   H17T13589   6.112   5.343   8.037 -1.6319 -1.6439  1.1072
  127OSM   C18S13590   6.056   5.327   8.260  0.1533 -0.2992 -0.1706
  127OSM   H18S13591   6.107   5.345   8.357 -1.1058  0.0705  0.4354
  127OSM   H18T13592   6.022   5.221   8.266 -2.4331  0.3968 -1.2428
  127OSM   H18U13593   5.976   5.403   8.249 -0.3235 -0.7211  0.3734
  127OSM    C1F13594   6.416   6.115   6.941  0.0113  0.6902  0.0536
  127OSM     OF13595   6.328   6.091   6.861  0.4921  0.3168  0.2272
  127OSM    C2F13596   6.391   6.216   7.054  1.3712 -0.1642  0.2929
  127OSM    H2F13597   6.328   6.297   7.012 -1.3930 -1.8794  0.8870
  127OSM    H2G13598   6.491   6.261   7.076  2.3132 -1.7933 -0.4370
  127OSM    C3F13599   6.324   6.152   7.180 -0.7559  0.6984 -0.1796
  127OSM    H3F13600   6.219   6.127   7.153 -0.7825  1.5462 -0.9207
  127OSM    H3G13601   6.318   6.228   7.261  1.9206  0.1543  0.6038
  127OSM    C4F13602   6.391   6.028   7.242  0.7887 -0.2310  0.1510
  127OSM    H4F13603   6.398   5.957   7.158 -2.1884  0.9247 -1.2229
  127OSM    H4G13604   6.332   5.984   7.326  1.5558 -2.2027 -0.3003
  127OSM    C5F13605   6.529   6.063   7.300 -0.3386  0.2898 -0.3111
  127OSM    H5F13606   6.583   6.124   7.224 -0.2605 -0.7052 -1.0756
  127OSM    H5G13607   6.575   5.962   7.308 -0.1844  0.2035 -1.9039
  127OSM    C6F13608   6.523   6.133   7.431  0.2495 -0.1666  0.3445
  127OSM    H6F13609   6.455   6.220   7.424  0.3497  0.0171  1.5102
  127OSM    H6G13610   6.623   6.175   7.453 -0.6933  1.8468  1.0031
  127OSM    C7F13611   6.504   6.048   7.559 -0.4969 -0.0561 -0.1629
  127OSM    H7F13612   6.586   5.974   7.560  0.8017  1.3251 -0.5898
  127OSM    H7G13613   6.411   5.987   7.554  0.9730 -2.3543 -0.8176
  127OSM    C8F13614   6.514   6.132   7.685  0.4237  0.4373  0.2819
  127OSM    H8F13615   6.435   6.210   7.695 -0.0117 -0.0537  0.7418
  127OSM    H8G13616   6.603   6.199   7.678 -0.2859  1.3403 -0.3321
  127OSM    C9F13617   6.505   6.052   7.809  0.5139 -0.2236 -0.2695
  127OSM    H9F13618   6.492   5.943   7.805 -0.4579 -0.2601  2.0509
  127OSM   C10F13619   6.522   6.103   7.939  0.5147 -0.4091  0.0566
  127OSM   H10F13620   6.504   6.035   8.023  3.5975 -1.8622 -0.3088
  127OSM   C11F13621   6.567   6.247   7.963  0.3934  0.1025 -1.0121
  127OSM   H11F13622   6.476   6.307   7.984  0.7907  0.6768 -0.9306
  127OSM   H11G13623   6.629   6.294   7.884  2.7844 -1.6031 -0.2371
  127OSM   C12F13624   6.661   6.235   8.086 -0.7224 -0.2035  0.3833
  127OSM   H12F13625   6.705   6.337   8.096 -2.0512  0.2531  2.1937
  127OSM   H12G13626   6.743   6.161   8.084 -1.3277 -0.8840 -1.1808
  127OSM   C13F13627   6.585   6.203   8.219  0.2174 -0.5542 -0.5871
  127OSM   H13F13628   6.615   6.101   8.252 -0.5989 -1.0621 -1.3646
  127OSM   H13G13629   6.474   6.209   8.216  0.2677  1.1859 -0.0569
  127OSM   C14F13630   6.631   6.306   8.327  0.1621  0.2514  0.0424
  127OSM   H14F13631   6.740   6.327   8.316  0.8397 -2.8430 -0.0956
  127OSM   H14G13632   6.624   6.256   8.426  0.6706 -0.5055 -0.2911
  127OSM   C15F13633   6.561   6.439   8.325  0.1532  0.3462 -0.5687
  127OSM   H15F13634   6.457   6.424   8.289  1.1848 -2.5343 -2.7507
  127OSM   H15G13635   6.598   6.511   8.249 -2.8500  1.9444 -0.6485
  127OSM   C16F13636   6.574   6.516   8.462  0.2374  0.2617  0.1170
  127OSM   H16F13637   6.676   6.561   8.468  0.9339 -1.4095  1.7610
  127OSM   H16G13638   6.544   6.458   8.552  1.0190  2.1268  1.6605
  127OSM   C17F13639   6.475   6.645   8.451  0.1052 -0.0924 -0.5686
  127OSM   H17F13640   6.376   6.598   8.435 -0.1421 -0.9718  2.6751
  127OSM   H17G13641   6.488   6.724   8.375 -1.0827  0.2201 -0.4747
  127OSM   C18F13642   6.471   6.735   8.581 -0.4416 -0.1619  0.7219
  127OSM   H18F13643   6.575   6.774   8.587 -0.2572 -0.7459  1.3877
  127OSM   H18G13644   6.445   6.667   8.665 -0.2118 -1.3171 -0.1165
  127OSM   H18H13645   6.399   6.819   8.588 -1.5276 -0.9579 -0.4460
  128OSM      N13646   0.363   5.479   6.631 -0.4827  0.8292 -0.2793
  128OSM    C1513647   0.372   5.432   6.774 -0.0510  0.1673 -0.6993
  128OSM   H15A13648   0.280   5.386   6.808 -0.1369 -0.7969 -2.1336
  128OSM   H15B13649   0.383   5.517   6.840  2.1965 -0.8174  0.2957
  128OSM   H15C13650   0.445   5.355   6.792 -1.8170 -1.2457  0.9705
  128OSM    C1413651   0.496   5.541   6.586  0.1594  0.1698  0.3982
  128OSM   H14A13652   0.538   5.612   6.656 -1.8109 -0.3970  2.2893
  128OSM   H14B13653   0.483   5.594   6.493 -0.1991 -1.4614 -0.5175
  128OSM   H14C13654   0.561   5.458   6.566 -0.7729 -0.3494 -0.5803
  128OSM    C1313655   0.343   5.364   6.541  0.5534  0.9758 -0.0365
  128OSM   H13A13656   0.256   5.306   6.570  0.2390  1.7141  0.5429
  128OSM   H13B13657   0.433   5.306   6.534  0.4733  0.9964 -1.5952
  128OSM   H13C13658   0.319   5.401   6.443  2.9912 -0.2370 -1.1683
  128OSM    C1213659   0.243   5.581   6.622  0.4313  0.1120  0.0447
  128OSM   H12A13660   0.268   5.662   6.688  2.8485 -0.4791 -0.0668
  128OSM   H12B13661   0.158   5.526   6.662  0.5108 -0.3670 -0.4338
  128OSM    C1113662   0.194   5.638   6.486  0.0338 -0.3837  0.2291
  128OSM   H11A13663   0.254   5.728   6.462  0.8290 -0.5869  1.4034
  128OSM   H11B13664   0.093   5.684   6.498  0.2580  0.1273  0.1784
  128OSM      P13665   0.079   5.501   6.295  0.0148  0.2910 -0.4465
  128OSM    O1313666   0.040   5.611   6.205 -0.1929 -0.8633  0.3832
  128OSM    O1413667   0.117   5.371   6.226 -0.1945 -0.2339 -0.0212
  128OSM    O1113668  -0.036   5.468   6.406  0.6515 -0.6603  0.5539
  128OSM    O1213669   0.205   5.546   6.376 -0.5616 -1.0864 -0.8338
  128OSM    C1S13670  -0.008   5.349   6.491  0.2697 -0.4907  0.8387
  128OSM    H1S13671   0.085   5.357   6.552 -0.0835 -0.4831  1.3769
  128OSM    H1T13672  -0.016   5.251   6.440 -1.7841  0.1774 -0.1973
  128OSM     NF13673  -0.086   5.246   6.699  0.2107  0.1119  0.4807
  128OSM    HNF13674  -0.108   5.150   6.684 -2.0525  0.5871  0.4070
  128OSM    C2S13675  -0.123   5.339   6.595  0.1545  0.1199 -0.3330
  128OSM    H2S13676  -0.141   5.444   6.626 -3.6117 -0.4479 -0.1389
  128OSM    C3S13677  -0.262   5.297   6.529 -0.1894 -0.3224  0.4025
  128OSM    H3S13678  -0.249   5.191   6.498  0.4172 -0.5894  1.4969
  128OSM     O313679  -0.282   5.360   6.401 -0.3955  0.0065 -0.7163
  128OSM    HO313680  -0.200   5.404   6.378  0.4247 -1.2638 -0.3701
  128OSM    C4S13681  -0.374   5.318   6.625  0.1247  0.5033  0.2728
  128OSM    H4S13682  -0.385   5.232   6.694 -1.9008  0.7506  0.3367
  128OSM    C5S13683  -0.456   5.424   6.638 -0.0628 -0.4190  0.3631
  128OSM    H5S13684  -0.433   5.508   6.571  2.0886 -1.1594  0.1005
  128OSM    C6S13685  -0.575   5.433   6.728 -0.4694 -0.3750 -0.5245
  128OSM    H6S13686  -0.612   5.329   6.742  0.8706 -0.7722  0.2746
  128OSM    H6T13687  -0.659   5.490   6.684 -0.6373 -0.8130 -0.7744
  128OSM    C7S13688  -0.529   5.483   6.868  0.0171 -0.4061 -0.9548
  128OSM    H7S13689  -0.425   5.454   6.892  0.7761  1.7055 -1.4658
  128OSM    H7T13690  -0.605   5.448   6.942 -1.6910  1.4626 -1.7140
  128OSM    C8S13691  -0.533   5.636   6.877  0.0446 -0.9488  0.1348
  128OSM    H8S13692  -0.470   5.683   6.799  0.3995  0.6384  1.3213
  128OSM    H8T13693  -0.491   5.676   6.972  0.8080  0.8798 -0.9252
  128OSM    C9S13694  -0.669   5.709   6.882 -0.2940  0.2365 -0.0645
  128OSM    H9S13695  -0.730   5.690   6.792  0.1025  1.5413 -0.6326
  128OSM    H9T13696  -0.637   5.815   6.890  0.9610  0.2215 -3.4489
  128OSM   C10S13697  -0.759   5.671   7.006 -0.5560  0.3966 -0.5335
  128OSM   H10S13698  -0.798   5.569   6.983  2.4909 -1.4814  1.7288
  128OSM   H10T13699  -0.839   5.746   7.020 -0.9719  0.0852 -1.2085
  128OSM   C11S13700  -0.677   5.654   7.136 -0.6275 -0.4939 -0.3166
  128OSM   H11S13701  -0.612   5.744   7.144 -1.0973 -0.2955  2.2869
  128OSM   H11T13702  -0.599   5.575   7.134  0.9421  0.9465 -3.1929
  128OSM   C12S13703  -0.746   5.656   7.263  0.2207 -0.5991 -0.3042
  128OSM   H12S13704  -0.820   5.574   7.250  1.6592 -1.7105 -1.9150
  128OSM   H12T13705  -0.807   5.749   7.262 -0.9048 -1.3076  0.1107
  128OSM   C13S13706  -0.644   5.639   7.372  0.9575  0.1969 -0.1977
  128OSM   H13S13707  -0.559   5.709   7.359  1.6302  0.0035  2.5543
  128OSM   H13T13708  -0.600   5.537   7.377  0.5207  0.0409  4.2931
  128OSM   C14S13709  -0.709   5.676   7.504  0.0247  0.6309 -0.2372
  128OSM   H14S13710  -0.785   5.597   7.522  1.3324 -0.0577  2.8691
  128OSM   H14T13711  -0.763   5.773   7.504  0.2572  0.7604 -0.2770
  128OSM   C15S13712  -0.625   5.683   7.633 -0.3893  0.1767 -0.3938
  128OSM   H15S13713  -0.544   5.758   7.623 -0.3698  0.1902 -0.1391
  128OSM   H15T13714  -0.575   5.585   7.649  0.5862  0.5138 -1.3046
  128OSM   C16S13715  -0.715   5.715   7.756 -0.2744 -0.7541 -0.3073
  128OSM   H16S13716  -0.783   5.795   7.720  1.3304 -0.1743 -2.1485
  128OSM   H16T13717  -0.646   5.747   7.837  1.9892 -2.0845 -1.5938
  128OSM   C17S13718  -0.805   5.600   7.803  0.1240 -1.1197  0.2486
  128OSM   H17S13719  -0.741   5.514   7.831 -1.0583 -2.3531 -0.7187
  128OSM   H17T13720  -0.856   5.568   7.710  1.6111  0.0623 -1.0212
  128OSM   C18S13721  -0.899   5.644   7.923  0.3441  0.2161  0.6118
  128OSM   H18S13722  -0.834   5.658   8.012  0.8327 -0.1736  0.3214
  128OSM   H18T13723  -0.961   5.554   7.943  0.5305 -0.4097 -1.4495
  128OSM   H18U13724  -0.955   5.738   7.904  1.5007  0.5089 -1.7423
  128OSM    C1F13725  -0.011   5.274   6.806  0.0943  0.3849  0.1489
  128OSM     OF13726   0.025   5.392   6.833  0.2465  0.4884 -0.3321
  128OSM    C2F13727   0.023   5.163   6.895  0.0076 -0.0149 -0.1872
  128OSM    H2F13728   0.128   5.175   6.929 -0.2732  1.3826  0.2799
  128OSM    H2G13729   0.007   5.066   6.844  0.5124 -1.2830  1.9657
  128OSM    C3F13730  -0.075   5.172   7.008  0.3728 -0.1317  0.4529
  128OSM    H3F13731  -0.184   5.170   6.988  0.0645  3.1777  1.2733
  128OSM    H3G13732  -0.066   5.278   7.040 -0.3225  0.8141 -2.2287
  128OSM    C4F13733  -0.037   5.079   7.123 -0.4254 -0.0971 -0.8255
  128OSM    H4F13734   0.069   5.080   7.154 -0.4484  3.2084 -0.5658
  128OSM    H4G13735  -0.073   4.976   7.101 -2.0064  0.0839  0.6871
  128OSM    C5F13736  -0.106   5.137   7.243 -0.0234  0.9613 -0.1433
  128OSM    H5F13737  -0.216   5.142   7.229 -0.3438 -0.4348  1.5205
  128OSM    H5G13738  -0.066   5.237   7.271  0.6902  0.1632  1.8946
  128OSM    C6F13739  -0.080   5.051   7.368 -0.2114  0.1964 -0.5205
  128OSM    H6F13740   0.026   5.019   7.374  0.5036  2.6405  1.0526
  128OSM    H6G13741  -0.133   4.955   7.348  0.5602 -0.9236  2.2688
  128OSM    C7F13742  -0.126   5.110   7.496 -0.0898  0.1117 -0.3923
  128OSM    H7F13743  -0.119   5.043   7.584  0.7902 -0.5464 -0.9440
  128OSM    H7G13744  -0.231   5.147   7.487  0.1634  0.6657 -1.2126
  128OSM    C8F13745  -0.047   5.231   7.548  0.6372 -0.0917  0.6581
  128OSM    H8F13746  -0.098   5.282   7.632 -0.0630 -1.1612  0.9038
  128OSM    H8G13747  -0.059   5.305   7.466  1.3413 -0.8070 -0.1152
  128OSM    C9F13748   0.099   5.200   7.560  0.2564 -0.0772 -0.3807
  128OSM    H9F13749   0.162   5.221   7.472 -0.0862  1.0967 -0.3541
  128OSM   C10F13750   0.156   5.169   7.679 -0.2484 -0.2557  0.1291
  128OSM   H10F13751   0.263   5.145   7.682  0.4339  2.2607 -1.1598
  128OSM   C11F13752   0.084   5.156   7.813  0.0619  0.4861  0.3745
  128OSM   H11F13753   0.056   5.051   7.835 -1.1944  0.7896  0.3034
  128OSM   H11G13754  -0.012   5.211   7.815  0.4807  1.3182 -0.9013
  128OSM   C12F13755   0.173   5.216   7.920 -0.0155  0.3278  0.3256
  128OSM   H12F13756   0.171   5.324   7.894 -0.6351  0.5628  1.3413
  128OSM   H12G13757   0.279   5.181   7.928  0.3688  0.4724 -2.6539
  128OSM   C13F13758   0.099   5.213   8.054  0.8677 -0.0233  0.6260
  128OSM   H13F13759   0.102   5.105   8.077  2.6388 -0.3915 -1.0406
  128OSM   H13G13760  -0.007   5.243   8.046  1.5802  2.3481 -2.3140
  128OSM   C14F13761   0.177   5.291   8.152 -0.8987  0.0428  0.3481
  128OSM   H14F13762   0.200   5.394   8.120  1.8622  0.0247  1.9923
  128OSM   H14G13763   0.270   5.234   8.171 -0.5456  1.6865  4.3969
  128OSM   C15F13764   0.096   5.313   8.281  0.0301 -0.1527  0.8837
  128OSM   H15F13765   0.003   5.373   8.271 -0.2352 -0.5541  0.9005
  128OSM   H15G13766   0.158   5.378   8.347 -1.5759  0.6232  1.6816
  128OSM   C16F13767   0.081   5.187   8.364 -0.2891  0.2095  1.3639
  128OSM   H16F13768   0.180   5.176   8.412  0.0916  2.9075  1.4038
  128OSM   H16G13769   0.041   5.101   8.307 -0.4235  0.1283  1.5808
  128OSM   C17F13770  -0.020   5.202   8.479 -0.4536  0.1150  0.6289
  128OSM   H17F13771   0.004   5.302   8.521 -0.4135  0.9485 -1.2691
  128OSM   H17G13772  -0.001   5.130   8.561 -1.9126  0.6242  1.4435
  128OSM   C18F13773  -0.166   5.192   8.437 -0.4824 -0.0495 -0.3308
  128OSM   H18F13774  -0.235   5.186   8.524  1.0062  1.7113  1.0470
  128OSM   H18G13775  -0.196   5.098   8.385 -2.0032  0.4251 -0.3517
  128OSM   H18H13776  -0.191   5.276   8.369  1.6214 -0.2335 -1.4172
  129OSM      N13777   6.771   4.289   6.124 -0.2870 -0.9521 -0.5808
  129OSM    C1513778   6.852   4.385   6.214  0.7746  0.1202 -0.2087
  129OSM   H15A13779   6.939   4.347   6.266  0.2515  1.7709  2.0111
  129OSM   H15B13780   6.790   4.405   6.300 -0.6773  0.3221 -1.2587
  129OSM   H15C13781   6.875   4.476   6.160  1.2031 -0.2791 -0.7201
  129OSM    C1413782   6.650   4.356   6.071 -0.5446 -0.4483 -0.4194
  129OSM   H14A13783   6.681   4.456   6.048 -0.5266  0.4062  2.7845
  129OSM   H14B13784   6.576   4.352   6.150  0.5930 -2.9682  0.6456
  129OSM   H14C13785   6.605   4.304   5.988 -1.6097  0.3621 -0.3832
  129OSM    C1313786   6.861   4.239   6.009  0.1540 -0.1197 -0.4344
  129OSM   H13A13787   6.856   4.305   5.923 -1.9169  0.9727  0.4481
  129OSM   H13B13788   6.812   4.152   5.967  1.6982 -0.8195 -0.8530
  129OSM   H13C13789   6.961   4.207   6.033 -0.7361 -1.9612  1.1213
  129OSM    C1213790   6.718   4.174   6.201 -0.5569  0.3209  0.0136
  129OSM   H12A13791   6.799   4.132   6.259  1.0273  3.1622  0.0188
  129OSM   H12B13792   6.683   4.098   6.132  0.9688  0.1952 -0.6485
  129OSM    C1113793   6.614   4.198   6.319 -0.3887  0.0293 -0.3347
  129OSM   H11A13794   6.653   4.271   6.393 -0.2076  0.3392 -0.7291
  129OSM   H11B13795   6.604   4.102   6.373  0.2398  0.0479 -0.1752
  129OSM      P13796   6.381   4.336   6.338 -0.3542 -0.2309  0.5229
  129OSM    O1313797   6.440   4.471   6.343  0.9336 -0.3949  0.1751
  129OSM    O1413798   6.258   4.322   6.259 -0.0230  0.3048  0.0910
  129OSM    O1113799   6.363   4.265   6.476 -0.5136 -0.1271  0.1359
  129OSM    O1213800   6.484   4.237   6.265  0.3438 -1.4137 -0.7211
  129OSM    C1S13801   6.293   4.347   6.574  0.2247  0.2856  0.4179
  129OSM    H1S13802   6.185   4.353   6.548 -0.0358 -1.9374  0.8501
  129OSM    H1T13803   6.338   4.446   6.595 -0.9001  0.5139  1.8711
  129OSM     NF13804   6.226   4.369   6.805 -0.9013 -0.3324  0.0222
  129OSM    HNF13805   6.272   4.451   6.840 -0.9127 -0.1532 -0.3727
  129OSM    C2S13806   6.301   4.283   6.714  0.2201  0.1945 -0.0897
  129OSM    H2S13807   6.252   4.184   6.705 -0.2055  0.4509 -0.6368
  129OSM    C3S13808   6.453   4.261   6.757 -0.1582 -0.5218  0.1327
  129OSM    H3S13809   6.500   4.359   6.735  0.3370 -0.3573  1.8226
  129OSM     O313810   6.529   4.175   6.671 -0.8681 -0.2676  0.2960
  129OSM    HO313811   6.479   4.166   6.590 -0.4235  0.6005 -0.0908
  129OSM    C4S13812   6.472   4.229   6.902  0.2720 -0.0399  0.7915
  129OSM    H4S13813   6.519   4.307   6.964  0.2592  0.7506 -0.1679
  129OSM    C5S13814   6.443   4.111   6.959  0.7226  0.0826  0.0866
  129OSM    H5S13815   6.404   4.036   6.889 -1.2341  2.4423 -1.5229
  129OSM    C6S13816   6.455   4.071   7.103  0.7314  0.7967  0.1554
  129OSM    H6S13817   6.517   3.981   7.126  0.3388  1.4929  4.9944
  129OSM    H6T13818   6.357   4.038   7.144  0.9955 -0.0195  0.1497
  129OSM    C7S13819   6.502   4.191   7.196  0.1490 -0.0763 -0.6983
  129OSM    H7S13820   6.426   4.271   7.185  0.2057  0.1241  0.3223
  129OSM    H7T13821   6.596   4.241   7.165  0.2952 -0.2003 -0.4578
  129OSM    C8S13822   6.497   4.158   7.345  0.1984  0.5639 -1.1484
  129OSM    H8S13823   6.549   4.236   7.404 -3.6542  1.3928  1.5264
  129OSM    H8T13824   6.558   4.068   7.370  1.0937  1.8062  1.4849
  129OSM    C9S13825   6.362   4.164   7.404  0.3747 -0.3246 -0.6521
  129OSM    H9S13826   6.302   4.091   7.346  2.4471  0.4149 -3.9829
  129OSM    H9T13827   6.308   4.259   7.383 -2.6049 -1.3443  1.6892
  129OSM   C10S13828   6.346   4.139   7.558  0.0644 -0.5092 -0.4404
  129OSM   H10S13829   6.237   4.153   7.577 -0.2974  0.8951 -3.0073
  129OSM   H10T13830   6.403   4.213   7.617 -1.0184 -0.7569  0.9674
  129OSM   C11S13831   6.387   3.996   7.596  0.4473  0.4066  0.1383
  129OSM   H11S13832   6.486   3.977   7.550  0.5257 -1.5708  1.0287
  129OSM   H11T13833   6.319   3.926   7.543  1.5255 -0.1997 -0.4872
  129OSM   C12S13834   6.393   3.972   7.758  0.0526 -0.0484  0.6353
  129OSM   H12S13835   6.471   4.030   7.812 -0.2440 -0.3802  1.4292
  129OSM   H12T13836   6.435   3.870   7.769  1.5105  0.3424 -0.9407
  129OSM   C13S13837   6.257   3.984   7.824  0.0863  0.2366 -0.3659
  129OSM   H13S13838   6.181   3.916   7.780  2.3385 -1.7175 -1.4687
  129OSM   H13T13839   6.217   4.084   7.798  0.1968  0.0392 -1.3376
  129OSM   C14S13840   6.269   3.974   7.980  1.3002 -0.5396 -0.2213
  129OSM   H14S13841   6.306   4.071   8.020  0.0370 -0.7996  1.6544
  129OSM   H14T13842   6.350   3.901   8.002  1.2432 -0.2633  0.9199
  129OSM   C15S13843   6.135   3.909   8.035 -0.1458  0.3575  0.1565
  129OSM   H15S13844   6.126   3.805   7.998 -0.6671  1.4945 -3.2679
  129OSM   H15T13845   6.047   3.944   7.978 -0.4982 -0.8897 -0.0945
  129OSM   C16S13846   6.132   3.929   8.183 -0.3919 -0.1620 -0.1895
  129OSM   H16S13847   6.044   3.886   8.237 -1.9795  1.6270 -1.2432
  129OSM   H16T13848   6.141   4.035   8.216 -2.5091  1.0801 -3.1725
  129OSM   C17S13849   6.234   3.836   8.259 -0.3509 -0.1524  1.2374
  129OSM   H17S13850   6.330   3.839   8.203  0.3285 -0.7610  2.3352
  129OSM   H17T13851   6.217   3.727   8.245  3.4616 -0.4272 -4.4061
  129OSM   C18S13852   6.277   3.878   8.403  0.2715 -0.5815  0.1191
  129OSM   H18S13853   6.353   3.810   8.446  2.3181  1.8137  0.5707
  129OSM   H18T13854   6.191   3.875   8.473 -0.8903  1.5308 -1.1242
  129OSM   H18U13855   6.304   3.986   8.398 -0.6754 -0.3801 -0.8956
  129OSM    C1F13856   6.089   4.361   6.812 -0.1153 -0.1654  0.9553
  129OSM     OF13857   6.029   4.269   6.750 -0.1721 -0.5347 -0.7012
  129OSM    C2F13858   6.019   4.473   6.874 -0.7203 -0.5280 -0.3369
  129OSM    H2F13859   5.978   4.540   6.795  1.7523 -0.2463 -1.5065
  129OSM    H2G13860   6.084   4.536   6.938 -0.8780 -1.5053  0.8254
  129OSM    C3F13861   5.909   4.432   6.977  0.3974 -0.4611  0.3131
  129OSM    H3F13862   5.837   4.363   6.927 -0.1035  1.8175 -2.3492
  129OSM    H3G13863   5.848   4.520   7.007  1.1681 -0.4785  2.0496
  129OSM    C4F13864   5.961   4.369   7.110  0.1335  0.1183  0.5540
  129OSM    H4F13865   6.026   4.450   7.149  0.3242  0.1111  0.2603
  129OSM    H4G13866   6.026   4.281   7.092 -2.2444 -1.7600  0.6696
  129OSM    C5F13867   5.849   4.336   7.210  0.7483  0.5204 -0.4502
  129OSM    H5F13868   5.787   4.249   7.179 -1.5381  2.8231 -2.9358
  129OSM    H5G13869   5.776   4.420   7.211 -1.6165 -1.4231 -0.5447
  129OSM    C6F13870   5.897   4.324   7.357  0.3746 -0.2270 -0.3077
  129OSM    H6F13871   5.954   4.417   7.377 -0.0992 -0.6202  3.8010
  129OSM    H6G13872   5.971   4.241   7.367  0.6805 -0.2246 -2.1255
  129OSM    C7F13873   5.785   4.306   7.456  0.0990  0.1534  0.2388
  129OSM    H7F13874   5.747   4.205   7.481  0.7560 -0.0934  0.2653
  129OSM    H7G13875   5.701   4.361   7.410  0.0718  0.0863  0.2095
  129OSM    C8F13876   5.816   4.367   7.603  0.5993 -0.5688  0.2801
  129OSM    H8F13877   5.723   4.349   7.661  0.2691  0.4654  0.0928
  129OSM    H8G13878   5.808   4.478   7.597  1.2571 -0.5741 -1.1587
  129OSM    C9F13879   5.932   4.328   7.684  0.2789  0.2724  0.0997
  129OSM    H9F13880   6.023   4.320   7.622  0.0389 -0.2035 -0.1897
  129OSM   C10F13881   5.938   4.302   7.813 -0.2726  0.3408  0.5551
  129OSM   H10F13882   6.033   4.268   7.857 -0.7223 -2.5013 -0.5025
  129OSM   C11F13883   5.829   4.294   7.918 -0.0126 -0.6875 -0.2903
  129OSM   H11F13884   5.736   4.277   7.861 -0.4235  2.2840 -0.6925
  129OSM   H11G13885   5.819   4.389   7.975 -2.2388 -0.1338 -1.4853
  129OSM   C12F13886   5.845   4.182   8.011  0.4061  0.0734 -0.0832
  129OSM   H12F13887   5.945   4.178   8.058 -0.1326  0.1504  1.1322
  129OSM   H12G13888   5.832   4.082   7.965 -1.2556  1.2178 -2.2779
  129OSM   C13F13889   5.737   4.199   8.130 -0.7174 -0.1268  0.8266
  129OSM   H13F13890   5.634   4.228   8.099 -1.0860 -2.2471 -0.0725
  129OSM   H13G13891   5.783   4.279   8.193  0.8284 -1.1456  1.0318
  129OSM   C14F13892   5.732   4.071   8.214  0.2177  0.0352 -0.5289
  129OSM   H14F13893   5.820   4.004   8.201 -0.1120 -0.3933 -0.6029
  129OSM   H14G13894   5.640   4.015   8.186 -0.6552  0.1059  1.9407
  129OSM   C15F13895   5.714   4.107   8.366 -0.0613 -0.2107  0.4609
  129OSM   H15F13896   5.648   4.023   8.397  1.6249 -2.4838 -1.6414
  129OSM   H15G13897   5.665   4.207   8.362 -2.6120 -1.3515  0.8827
  129OSM   C16F13898   5.841   4.092   8.449 -0.1836 -0.6771 -0.1077
  129OSM   H16F13899   5.881   3.991   8.429  1.2045  0.1674 -1.8404
  129OSM   H16G13900   5.821   4.081   8.558 -0.4718  0.0891 -0.0720
  129OSM   C17F13901   5.952   4.193   8.409  0.1733 -0.5282  0.7811
  129OSM   H17F13902   5.955   4.191   8.298 -1.4669  0.7544  0.6697
  129OSM   H17G13903   6.051   4.157   8.444  0.1660 -0.2952  1.0483
  129OSM   C18F13904   5.909   4.330   8.461  0.0087 -1.1035  0.3925
  129OSM   H18F13905   5.991   4.404   8.449 -0.7868 -0.1949  0.3739
  129OSM   H18G13906   5.894   4.323   8.571 -1.0351 -0.5055  0.3094
  129OSM   H18H13907   5.818   4.381   8.422 -0.8653 -0.3169  3.2103
  130OSM      N13908   6.620   3.148   6.078 -0.0531 -0.5564 -0.4601
  130OSM    C1513909   6.558   3.286   6.052  0.9031 -0.0278  0.1619
  130OSM   H15A13910   6.620   3.367   6.087  1.8314  0.2127 -1.8930
  130OSM   H15B13911   6.469   3.281   6.113  1.5540 -1.1157  1.0714
  130OSM   H15C13912   6.534   3.298   5.947 -0.1765 -0.8558  0.2982
  130OSM    C1413913   6.524   3.048   6.019 -0.2157 -0.1274  0.4265
  130OSM   H14A13914   6.507   3.074   5.916  0.2647  0.4762  0.4896
  130OSM   H14B13915   6.429   3.070   6.066 -1.2555 -0.2150 -1.5380
  130OSM   H14C13916   6.551   2.944   6.018  0.5444  0.0263  1.8505
  130OSM    C1313917   6.751   3.141   6.013  0.0778 -0.8228  0.0679
  130OSM   H13A13918   6.815   3.221   6.046  0.2016 -0.2548 -1.4465
  130OSM   H13B13919   6.750   3.133   5.905  1.5887 -1.6000  0.0948
  130OSM   H13C13920   6.795   3.053   6.057 -0.6614 -1.2662 -0.0522
  130OSM    C1213921   6.638   3.125   6.224 -0.4197  0.8611 -0.1755
  130OSM   H12A13922   6.724   3.178   6.264  1.0171 -1.4312 -0.0349
  130OSM   H12B13923   6.663   3.023   6.251 -1.4194  0.9596  1.2312
  130OSM    C1113924   6.517   3.155   6.319  0.2376 -0.8887  0.4352
  130OSM   H11A13925   6.492   3.262   6.302  0.2302 -0.9719 -0.1045
  130OSM   H11B13926   6.546   3.146   6.426  0.4380  3.3099  0.9157
  130OSM      P13927   6.261   3.117   6.292  0.0698  0.0293 -0.0062
  130OSM    O1313928   6.251   3.248   6.222 -0.2373  0.6057  0.1042
  130OSM    O1413929   6.172   3.008   6.247 -0.3244 -0.2185  0.3533
  130OSM    O1113930   6.223   3.143   6.437  0.2711  0.2847 -0.2525
  130OSM    O1213931   6.408   3.066   6.294 -0.3247  0.1810  0.4741
  130OSM    C1S13932   6.237   3.044   6.546 -0.1499 -0.2897  0.1617
  130OSM    H1S13933   6.338   3.067   6.585 -0.3220  1.2279 -0.2314
  130OSM    H1T13934   6.244   2.941   6.504  0.1050 -0.3217  0.2793
  130OSM     NF13935   6.143   2.988   6.784 -0.3688  0.5506  0.5003
  130OSM    HNF13936   6.090   2.904   6.797  1.9537 -0.8383  1.7407
  130OSM    C2S13937   6.128   3.059   6.656  0.3925 -0.2931 -0.2432
  130OSM    H2S13938   6.117   3.168   6.673  2.1519  0.1138 -1.4246
  130OSM    C3S13939   5.991   3.011   6.596  0.0169 -0.1601  0.1559
  130OSM    H3S13940   6.014   2.905   6.571 -0.9614  0.0623 -1.8552
  130OSM     O313941   5.975   3.068   6.466 -0.1718 -0.5111 -0.8121
  130OSM    HO313942   6.061   3.103   6.441 -0.8274  2.2061  0.2719
  130OSM    C4S13943   5.879   3.038   6.690 -0.0387  0.2939  0.4822
  130OSM    H4S13944   5.863   3.142   6.720  0.0849  0.0979  1.2496
  130OSM    C5S13945   5.797   2.945   6.736  1.2279 -0.3284  0.0436
  130OSM    H5S13946   5.816   2.840   6.707  1.2374 -0.5472  0.8160
  130OSM    C6S13947   5.679   2.974   6.831 -0.5839  0.5630  0.3485
  130OSM    H6S13948   5.657   2.878   6.883 -0.1574 -0.1876 -0.8271
  130OSM    H6T13949   5.587   2.996   6.773 -0.3955 -2.0016 -1.0750
  130OSM    C7S13950   5.698   3.075   6.942  0.1883 -0.9995  0.2895
  130OSM    H7S13951   5.715   3.173   6.894  0.8479 -0.6391  1.2357
  130OSM    H7T13952   5.798   3.051   6.984  0.3474 -0.5120  0.1859
  130OSM    C8S13953   5.592   3.062   7.051  0.4855  0.0519  0.5611
  130OSM    H8S13954   5.540   2.964   7.054  0.3082  0.1059 -0.2819
  130OSM    H8T13955   5.526   3.152   7.046 -1.4453 -1.3119  0.1797
  130OSM    C9S13956   5.667   3.064   7.184  0.4510 -0.6563 -0.8619
  130OSM    H9S13957   5.737   3.150   7.196  0.5745 -0.9229  0.4794
  130OSM    H9T13958   5.731   2.975   7.199 -0.4675 -1.2038 -0.0959
  130OSM   C10S13959   5.567   3.071   7.309  0.4219 -0.2729 -0.4151
  130OSM   H10S13960   5.512   2.974   7.310 -0.2102 -0.0099  3.3849
  130OSM   H10T13961   5.482   3.140   7.292 -1.1711 -0.9813  3.6099
  130OSM   C11S13962   5.629   3.082   7.456  0.0107 -0.6550  0.4568
  130OSM   H11S13963   5.630   3.189   7.487  0.5692 -0.9378  1.4569
  130OSM   H11T13964   5.733   3.045   7.470  0.1039  0.6109  3.9560
  130OSM   C12S13965   5.542   3.021   7.561  0.5801  1.1677 -0.0541
  130OSM   H12S13966   5.537   2.914   7.531  4.5680  0.9114 -0.2546
  130OSM   H12T13967   5.438   3.061   7.567 -0.9028 -2.0440 -1.6645
  130OSM   C13S13968   5.610   3.023   7.698  0.2170 -0.7385 -0.5604
  130OSM   H13S13969   5.664   3.116   7.726  1.0160 -1.8002  1.7476
  130OSM   H13T13970   5.684   2.941   7.705 -1.0992 -1.9226  0.0258
  130OSM   C14S13971   5.508   3.001   7.810  0.5015 -0.4109 -0.5674
  130OSM   H14S13972   5.444   2.911   7.796 -0.6624  0.2163  0.4955
  130OSM   H14T13973   5.441   3.089   7.802  0.0018 -0.9368 -3.0479
  130OSM   C15S13974   5.568   2.975   7.947 -0.0342  0.2206 -0.2275
  130OSM   H15S13975   5.625   3.065   7.976 -0.0003  0.3573 -0.7036
  130OSM   H15T13976   5.645   2.896   7.930  0.8267  0.7264  1.2144
  130OSM   C16S13977   5.465   2.949   8.054  0.2002 -0.3416  0.0879
  130OSM   H16S13978   5.408   2.859   8.024  3.1127 -1.7025 -1.8008
  130OSM   H16T13979   5.398   3.037   8.060 -0.4254 -0.7934 -0.1229
  130OSM   C17S13980   5.531   2.929   8.192  0.3610 -0.3950  0.0214
  130OSM   H17S13981   5.607   3.006   8.216 -0.1006  0.2617 -0.5810
  130OSM   H17T13982   5.592   2.837   8.182  2.0779  0.6671  0.4980
  130OSM   C18S13983   5.431   2.905   8.309  0.1135  0.0914 -1.3306
  130OSM   H18S13984   5.491   2.880   8.399  1.3267  1.1109 -1.8040
  130OSM   H18T13985   5.364   2.820   8.285 -1.1669  0.8630 -0.5545
  130OSM   H18U13986   5.372   2.996   8.332  0.3618 -0.0041 -0.2749
  130OSM    C1F13987   6.231   3.018   6.876 -0.0428  0.0004 -0.1214
  130OSM     OF13988   6.311   3.102   6.844  0.3221  0.7779  0.0190
  130OSM    C2F13989   6.223   2.937   7.002  0.0294  0.1445  0.1123
  130OSM    H2F13990   6.266   2.836   6.991  0.6741  0.4448 -0.1438
  130OSM    H2G13991   6.117   2.923   7.032  0.0716 -0.0905  0.1478
  130OSM    C3F13992   6.295   3.013   7.122  0.5220  0.1889  0.4719
  130OSM    H3F13993   6.233   3.101   7.148 -1.5520 -0.6929 -1.1572
  130OSM    H3G13994   6.396   3.050   7.095  1.1479 -1.0163  1.0609
  130OSM    C4F13995   6.316   2.928   7.247 -0.1007 -0.4182  0.1495
  130OSM    H4F13996   6.386   2.846   7.221  0.0076 -0.2002 -0.2579
  130OSM    H4G13997   6.228   2.875   7.290  0.5983 -0.8221  1.1133
  130OSM    C5F13998   6.382   3.002   7.362 -0.5960  0.5028  0.1034
  130OSM    H5F13999   6.315   3.088   7.385  0.4810  1.1685  0.8108
  130OSM    H5G14000   6.484   3.036   7.337 -0.6092  2.0815  1.9469
  130OSM    C6F14001   6.388   2.909   7.488  0.6834  0.0143 -0.3267
  130OSM    H6F14002   6.451   2.819   7.474 -0.7378 -1.2503  1.0341
  130OSM    H6G14003   6.281   2.882   7.501  0.4061  0.2184 -1.9883
  130OSM    C7F14004   6.443   2.982   7.609  0.5738  0.5005  0.0399
  130OSM    H7F14005   6.389   3.075   7.636  1.3913  0.7724  0.7937
  130OSM    H7G14006   6.546   3.017   7.589 -0.2509  2.1544 -1.6201
  130OSM    C8F14007   6.439   2.893   7.735  0.2413  0.5826 -0.0665
  130OSM    H8F14008   6.488   2.798   7.704  0.1365  0.9034 -1.2700
  130OSM    H8G14009   6.335   2.856   7.753  0.5606 -0.4685 -0.2687
  130OSM    C9F14010   6.508   2.949   7.855  0.5610 -0.0382 -0.5611
  130OSM    H9F14011   6.584   3.025   7.833  3.0335 -2.1403  0.2757
  130OSM   C10F14012   6.471   2.937   7.986  0.6085  0.5110  0.1761
  130OSM   H10F14013   6.524   2.983   8.070  0.8465 -0.5946  0.6579
  130OSM   C11F14014   6.362   2.842   8.040  1.1184 -0.3406  0.3749
  130OSM   H11F14015   6.313   2.789   7.955  0.4236  0.7903  0.0579
  130OSM   H11G14016   6.285   2.895   8.099  0.2122  1.3627 -2.1565
  130OSM   C12F14017   6.416   2.725   8.125 -0.1544 -0.7446 -0.9399
  130OSM   H12F14018   6.474   2.765   8.211 -1.0420 -1.5053  0.0473
  130OSM   H12G14019   6.490   2.666   8.068  1.6511 -0.0994  0.6101
  130OSM   C13F14020   6.309   2.644   8.200  0.7074  0.4607  0.9340
  130OSM   H13F14021   6.243   2.602   8.121  0.8968 -1.5837  1.7960
  130OSM   H13G14022   6.245   2.722   8.245 -0.0731  2.0634 -2.5794
  130OSM   C14F14023   6.357   2.536   8.294  0.8566  0.5717  0.2857
  130OSM   H14F14024   6.435   2.582   8.358  1.5253 -1.3635  0.9038
  130OSM   H14G14025   6.411   2.472   8.222  0.0360  0.8089 -0.5692
  130OSM   C15F14026   6.247   2.470   8.382 -0.7425  0.7311 -0.4573
  130OSM   H15F14027   6.164   2.437   8.316  0.6925 -1.0180 -1.5134
  130OSM   H15G14028   6.204   2.543   8.452  0.3538  0.3201  0.6868
  130OSM   C16F14029   6.293   2.340   8.444  0.4506  0.0096 -0.2468
  130OSM   H16F14030   6.334   2.349   8.547 -2.4632 -0.8672  1.1030
  130OSM   H16G14031   6.378   2.295   8.389 -0.4417 -1.4071 -0.5158
  130OSM   C17F14032   6.183   2.237   8.465  0.3766  0.4030  0.5816
  130OSM   H17F14033   6.131   2.213   8.370 -1.9015 -0.8536  2.0756
  130OSM   H17G14034   6.105   2.291   8.523 -0.7015 -0.3033 -0.1828
  130OSM   C18F14035   6.228   2.104   8.531  0.3635 -0.4962 -0.1787
  130OSM   H18F14036   6.309   2.108   8.607 -0.5942  1.1388  0.8052
  130OSM   H18G14037   6.265   2.029   8.457  1.5382 -0.0262 -0.0961
  130OSM   H18H14038   6.148   2.059   8.593  0.7570 -0.8996  0.0479
  131OSM      N14039   3.368   0.563   6.010 -0.1960 -0.0744  0.3968
  131OSM    C1514040   3.335   0.539   6.154 -0.2224 -0.0444  0.2612
  131OSM   H15A14041   3.311   0.630   6.207  2.3175  1.2029 -0.5676
  131OSM   H15B14042   3.428   0.496   6.189 -0.5376 -2.1279 -1.2364
  131OSM   H15C14043   3.270   0.452   6.158  1.3751 -1.3370 -0.4283
  131OSM    C1414044   3.465   0.679   6.012 -0.4196 -0.3131  0.1701
  131OSM   H14A14045   3.547   0.655   6.079 -0.9118  1.5351  1.5105
  131OSM   H14B14046   3.418   0.772   6.038  1.2730  1.9019 -3.8066
  131OSM   H14C14047   3.511   0.710   5.919 -0.8066 -0.6919 -0.1537
  131OSM    C1314048   3.411   0.445   5.941  0.1973  0.5966 -0.0233
  131OSM   H13A14049   3.348   0.359   5.954  1.0885 -0.0086  0.4244
  131OSM   H13B14050   3.505   0.407   5.978 -0.2249 -0.5108 -0.0715
  131OSM   H13C14051   3.417   0.460   5.835  0.0074 -0.2801 -0.1634
  131OSM    C1214052   3.239   0.610   5.948  0.1444  0.6517  0.0794
  131OSM   H12A14053   3.164   0.532   5.952 -1.8135  2.1937 -2.4541
  131OSM   H12B14054   3.250   0.629   5.842 -0.0105  1.4969  0.2104
  131OSM    C1114055   3.170   0.734   6.014  0.2772 -0.2920  0.3482
  131OSM   H11A14056   3.125   0.722   6.115 -0.8779 -0.0057 -0.1156
  131OSM   H11B14057   3.082   0.752   5.948  0.7785  2.0657  0.2167
  131OSM      P14058   3.178   0.996   6.051  0.0775 -0.0548 -0.3405
  131OSM    O1314059   3.265   1.111   6.022 -0.1677  0.1832  0.4558
  131OSM    O1414060   3.036   1.005   6.014 -0.0246 -0.0892 -0.8427
  131OSM    O1114061   3.183   0.962   6.211 -0.4723  0.4325  0.5435
  131OSM    O1214062   3.241   0.859   5.999  0.0433 -0.1296 -0.4382
  131OSM    C1S14063   3.320   0.935   6.253  0.0598  0.1994  0.6436
  131OSM    H1S14064   3.378   1.030   6.248 -0.4529  0.6866  2.8884
  131OSM    H1T14065   3.366   0.849   6.200  1.6520 -0.3104  2.7114
  131OSM     NF14066   3.484   0.893   6.441 -0.3618 -0.4706 -0.1165
  131OSM    HNF14067   3.528   0.809   6.412  2.1514  0.0795  1.7636
  131OSM    C2S14068   3.338   0.902   6.410 -0.1292 -0.0859  0.3696
  131OSM    H2S14069   3.287   0.990   6.456 -1.0634 -0.4914  0.1449
  131OSM    C3S14070   3.259   0.779   6.453  0.5230  0.7905  0.4209
  131OSM    H3S14071   3.313   0.690   6.414  0.9936  1.9226 -1.6974
  131OSM     O314072   3.130   0.767   6.402 -0.0419  0.6264 -0.0519
  131OSM    HO314073   3.135   0.839   6.338 -0.1514  2.3990  1.8085
  131OSM    C4S14074   3.258   0.774   6.603 -0.5736  0.6120 -0.9076
  131OSM    H4S14075   3.325   0.699   6.649 -0.6219  0.9287 -0.3039
  131OSM    C5S14076   3.165   0.840   6.685 -0.6061 -0.3683 -0.4142
  131OSM    H5S14077   3.087   0.897   6.633 -0.9407  0.7200  1.2016
  131OSM    C6S14078   3.163   0.830   6.836  1.2747  0.6202  0.7577
  131OSM    H6S14079   3.079   0.766   6.872  1.0486 -1.1975 -2.5774
  131OSM    H6T14080   3.159   0.925   6.894 -0.3771  0.6016  0.7322
  131OSM    C7S14081   3.274   0.740   6.899 -0.3301  0.2460  0.2669
  131OSM    H7S14082   3.381   0.769   6.891 -0.5275  0.4615 -2.7583
  131OSM    H7T14083   3.263   0.638   6.856 -0.0216  0.4286 -0.2501
  131OSM    C8S14084   3.252   0.716   7.053 -0.0092 -0.1573 -0.3798
  131OSM    H8S14085   3.158   0.659   7.071 -0.1528  0.7442  2.0119
  131OSM    H8T14086   3.253   0.817   7.099  0.8960 -0.6181  0.6556
  131OSM    C9S14087   3.350   0.634   7.134 -0.6476 -0.1339 -0.2041
  131OSM    H9S14088   3.451   0.665   7.097  0.3661 -2.2858  0.5764
  131OSM    H9T14089   3.334   0.524   7.131 -2.4297  0.1045 -0.1259
  131OSM   C10S14090   3.344   0.671   7.283  0.2894 -0.0315 -0.3117
  131OSM   H10S14091   3.242   0.649   7.320 -0.3922  0.8210 -1.6049
  131OSM   H10T14092   3.354   0.782   7.281 -0.5597  0.1030  1.3258
  131OSM   C11S14093   3.456   0.613   7.378  0.5241  0.1731  0.3679
  131OSM   H11S14094   3.558   0.626   7.336 -0.5173 -0.2222 -2.5056
  131OSM   H11T14095   3.427   0.507   7.392 -2.0916  1.0983  2.9163
  131OSM   C12S14096   3.429   0.664   7.521 -0.2319  0.2670 -0.0317
  131OSM   H12S14097   3.333   0.633   7.567  0.4978  1.6216  2.5946
  131OSM   H12T14098   3.428   0.775   7.531 -0.9227  0.1125  2.0931
  131OSM   C13S14099   3.547   0.624   7.614 -0.2930 -0.3217 -0.6395
  131OSM   H13S14100   3.629   0.691   7.582 -1.2897  0.6874 -1.1310
  131OSM   H13T14101   3.575   0.518   7.597 -0.0906 -0.4728  0.5105
  131OSM   C14S14102   3.508   0.658   7.758  0.0369  0.0144  0.2610
  131OSM   H14S14103   3.419   0.596   7.781  0.9482 -0.6019  2.3483
  131OSM   H14T14104   3.475   0.763   7.771  1.0255  0.3155  0.4044
  131OSM   C15S14105   3.614   0.614   7.863 -0.1581  0.0576  0.7191
  131OSM   H15S14106   3.709   0.661   7.828 -0.8215  1.0241  0.1752
  131OSM   H15T14107   3.626   0.504   7.859  1.4485  0.2279 -0.4779
  131OSM   C16S14108   3.557   0.655   7.996  0.1337  0.0303  0.0978
  131OSM   H16S14109   3.468   0.590   8.014  1.3758 -1.7914 -0.0878
  131OSM   H16T14110   3.516   0.759   7.990  0.7865  0.2479 -0.7061
  131OSM   C17S14111   3.650   0.645   8.114  0.3979 -0.0277 -0.4245
  131OSM   H17S14112   3.652   0.538   8.143 -0.1235 -0.0402 -0.4115
  131OSM   H17T14113   3.607   0.714   8.190 -0.1906  1.3585 -1.9438
  131OSM   C18S14114   3.795   0.703   8.088 -0.4144 -0.7738  0.1097
  131OSM   H18S14115   3.849   0.637   8.017  1.5603 -0.4660  1.2460
  131OSM   H18T14116   3.836   0.709   8.191  1.3838 -2.2394 -0.4643
  131OSM   H18U14117   3.781   0.801   8.038 -1.0199 -1.0677 -0.3025
  131OSM    C1F14118   3.557   1.004   6.463 -0.2897 -0.3389  0.1947
  131OSM     OF14119   3.502   1.111   6.488 -0.4574  0.4660 -0.2264
  131OSM    C2F14120   3.704   0.987   6.453 -0.1107 -0.2323  0.1136
  131OSM    H2F14121   3.741   1.063   6.380  1.9761  0.0824  1.4111
  131OSM    H2G14122   3.731   0.887   6.414 -0.4944 -0.2408 -0.1422
  131OSM    C3F14123   3.781   0.989   6.591  0.6125 -0.0814 -0.2018
  131OSM    H3F14124   3.782   1.094   6.628  0.3859  0.6093 -2.0450
  131OSM    H3G14125   3.884   0.949   6.574 -0.2565 -1.4453 -2.7639
  131OSM    C4F14126   3.698   0.895   6.691 -0.4842 -0.3052  0.2221
  131OSM    H4F14127   3.671   0.798   6.645  0.8094 -0.4777 -0.2007
  131OSM    H4G14128   3.602   0.943   6.721 -0.2848 -0.1781  0.6660
  131OSM    C5F14129   3.775   0.858   6.817 -0.3417 -0.0155  0.3082
  131OSM    H5F14130   3.811   0.951   6.867 -0.5862  0.9554 -1.2267
  131OSM    H5G14131   3.862   0.798   6.785 -0.3562  0.3872 -0.5344
  131OSM    C6F14132   3.681   0.783   6.915  0.1521  0.3771 -0.2285
  131OSM    H6F14133   3.598   0.738   6.857  0.3238 -1.7002  1.0230
  131OSM    H6G14134   3.632   0.864   6.973  1.0434  0.5615  0.2961
  131OSM    C7F14135   3.759   0.677   6.991  0.6213 -0.4512  0.2229
  131OSM    H7F14136   3.779   0.593   6.922  1.5264  1.0222 -1.3838
  131OSM    H7G14137   3.691   0.640   7.071  0.4466 -3.3937 -1.1584
  131OSM    C8F14138   3.895   0.722   7.048  0.0334 -1.1523  0.2742
  131OSM    H8F14139   3.873   0.823   7.089 -2.1514 -1.6770  0.5415
  131OSM    H8G14140   3.964   0.733   6.962  0.5546 -4.4961  0.1172
  131OSM    C9F14141   3.965   0.632   7.141 -0.5531  0.4343 -0.0150
  131OSM    H9F14142   3.967   0.527   7.109 -5.4319  0.7570 -2.1823
  131OSM   C10F14143   4.037   0.660   7.247 -0.0096 -0.9098 -0.4695
  131OSM   H10F14144   4.083   0.576   7.301  0.6514 -0.1101  0.2244
  131OSM   C11F14145   4.067   0.800   7.301 -0.7652  0.2605 -0.9525
  131OSM   H11F14146   4.004   0.884   7.267 -0.8047  0.5128 -0.2622
  131OSM   H11G14147   4.172   0.825   7.273  0.5481 -2.3581  1.1668
  131OSM   C12F14148   4.059   0.802   7.457 -0.3878 -0.4004 -0.6546
  131OSM   H12F14149   4.121   0.890   7.486 -1.5951  0.2715 -0.0385
  131OSM   H12G14150   4.106   0.717   7.510  1.3308  1.1529  0.4386
  131OSM   C13F14151   3.912   0.820   7.498 -0.3751  0.2633 -0.1931
  131OSM   H13F14152   3.848   0.739   7.458 -2.3913  2.9042 -2.7742
  131OSM   H13G14153   3.872   0.916   7.458 -0.1244  0.2057 -0.5912
  131OSM   C14F14154   3.892   0.825   7.650  0.4870 -0.1687  0.9741
  131OSM   H14F14155   3.912   0.723   7.689 -0.4051 -0.9186 -0.4301
  131OSM   H14G14156   3.789   0.855   7.677  0.1488  0.4352 -0.8614
  131OSM   C15F14157   3.993   0.931   7.714  0.0286  0.6766  0.0753
  131OSM   H15F14158   3.990   1.035   7.676 -0.2737  1.3284  1.8047
  131OSM   H15G14159   4.098   0.893   7.710 -0.5865 -1.2726  1.0378
  131OSM   C16F14160   3.967   0.951   7.863 -0.5671  0.5704  0.8943
  131OSM   H16F14161   3.985   0.854   7.914 -0.3992  0.7272  1.1347
  131OSM   H16G14162   3.860   0.954   7.893 -0.8880  0.9688 -0.2400
  131OSM   C17F14163   4.049   1.060   7.927 -0.6721  0.1562 -0.8222
  131OSM   H17F14164   3.998   1.159   7.932  2.7098  2.0527 -0.8469
  131OSM   H17G14165   4.135   1.087   7.863 -0.1301 -1.8980 -1.0302
  131OSM   C18F14166   4.105   1.025   8.067  0.5585  0.3504 -0.2111
  131OSM   H18F14167   4.027   1.050   8.142  0.7370  1.1528 -0.2789
  131OSM   H18G14168   4.197   1.081   8.096  1.1816 -0.5011 -0.4987
  131OSM   H18H14169   4.129   0.917   8.054  3.6286  1.1165 -2.0614
  132OSM      N14170   6.144   3.858   6.412  0.0119  0.0525 -0.5671
  132OSM    C1514171   6.144   3.969   6.310 -0.0523 -0.4023 -0.2407
  132OSM   H15A14172   6.080   3.941   6.228  0.7951 -0.1176 -1.0121
  132OSM   H15B14173   6.246   3.980   6.276  0.2652  1.6817  1.1986
  132OSM   H15C14174   6.100   4.053   6.363 -0.1702 -1.1263  0.8497
  132OSM    C1414175   6.003   3.841   6.461 -0.2096 -0.0023 -0.6473
  132OSM   H14A14176   5.935   3.812   6.382 -2.3658 -1.5350  1.6185
  132OSM   H14B14177   5.966   3.928   6.513 -2.6975  0.1456 -2.4848
  132OSM   H14C14178   6.010   3.762   6.534  0.9672 -0.1774 -0.9223
  132OSM    C1314179   6.174   3.726   6.345  0.2448 -0.0193 -0.0311
  132OSM   H13A14180   6.278   3.715   6.316  0.7912 -0.6964  1.9839
  132OSM   H13B14181   6.107   3.691   6.268  2.1272 -1.0295 -1.2983
  132OSM   H13C14182   6.172   3.640   6.411  1.9511 -1.2274 -1.4563
  132OSM    C1214183   6.250   3.871   6.523  0.4198 -0.6807  0.3795
  132OSM   H12A14184   6.245   3.787   6.591  1.4440 -0.9969  0.0808
  132OSM   H12B14185   6.232   3.961   6.580  0.0401  1.2516 -2.5987
  132OSM    C1114186   6.400   3.881   6.473  0.2477  0.0264  0.3118
  132OSM   H11A14187   6.452   3.891   6.571 -0.2243 -0.6800  0.6446
  132OSM   H11B14188   6.401   3.978   6.419 -2.5754  0.6527  1.2136
  132OSM      P14189   6.504   3.637   6.446 -0.1406  0.4887  0.0152
  132OSM    O1314190   6.559   3.558   6.332  0.2200  0.1644 -0.2143
  132OSM    O1414191   6.599   3.668   6.555  0.2705 -0.2587  0.2039
  132OSM    O1114192   6.377   3.562   6.507 -0.9926  0.1764  0.2302
  132OSM    O1214193   6.446   3.772   6.395 -0.1971  0.2889 -0.2821
  132OSM    C1S14194   6.399   3.425   6.555  0.0239 -0.2731 -0.0183
  132OSM    H1S14195   6.471   3.365   6.495 -0.5090 -0.9775  0.0229
  132OSM    H1T14196   6.308   3.362   6.544 -1.7527  2.0629  0.4250
  132OSM     NF14197   6.490   3.275   6.738 -0.6839  0.6589 -0.1161
  132OSM    HNF14198   6.415   3.224   6.779  1.2588  0.3512  3.3699
  132OSM    C2S14199   6.454   3.406   6.700 -0.2338  0.2976 -0.3966
  132OSM    H2S14200   6.544   3.471   6.704  1.1207 -1.5281  0.0954
  132OSM    C3S14201   6.349   3.462   6.795 -0.2609  0.1909 -0.3463
  132OSM    H3S14202   6.264   3.391   6.786 -0.0525  0.0689 -1.4065
  132OSM     O314203   6.292   3.589   6.756  0.2513 -0.0996  0.0171
  132OSM    HO314204   6.279   3.592   6.661 -0.4025 -2.4202 -0.0338
  132OSM    C4S14205   6.408   3.465   6.939 -0.2161  0.3252 -0.7258
  132OSM    H4S14206   6.389   3.371   6.993  1.8113 -0.1090 -0.6590
  132OSM    C5S14207   6.473   3.567   7.007 -0.3139 -0.7466 -0.3961
  132OSM    H5S14208   6.489   3.670   6.973 -0.1945  1.1949  4.7226
  132OSM    C6S14209   6.522   3.573   7.147 -0.4019  0.2184  0.5816
  132OSM    H6S14210   6.509   3.679   7.178  0.2388 -0.3640  3.1313
  132OSM    H6T14211   6.632   3.554   7.152 -0.3096  0.8916  1.4349
  132OSM    C7S14212   6.466   3.483   7.253  0.5922 -0.3710 -1.0120
  132OSM    H7S14213   6.505   3.380   7.235 -2.2115 -1.3404 -2.2520
  132OSM    H7T14214   6.355   3.473   7.247 -0.0333  1.8785  3.3021
  132OSM    C8S14215   6.496   3.525   7.400  0.0566 -0.0747  0.5180
  132OSM    H8S14216   6.476   3.634   7.399 -0.4884 -0.1602 -0.6888
  132OSM    H8T14217   6.603   3.529   7.428  0.3955 -0.8875 -0.5894
  132OSM    C9S14218   6.425   3.449   7.512 -0.4048 -0.1840 -0.0622
  132OSM    H9S14219   6.461   3.345   7.502 -4.3522 -1.5997 -1.6997
  132OSM    H9T14220   6.315   3.449   7.492 -0.2726 -1.5770 -0.9423
  132OSM   C10S14221   6.447   3.512   7.643 -0.4715  0.1703 -0.1800
  132OSM   H10S14222   6.401   3.613   7.657  0.8638  0.7595  0.1056
  132OSM   H10T14223   6.555   3.534   7.658 -0.3451 -0.3303 -0.3551
  132OSM   C11S14224   6.410   3.428   7.769 -0.0143 -0.2308 -0.5950
  132OSM   H11S14225   6.474   3.470   7.850  0.6696 -0.4555 -1.0155
  132OSM   H11T14226   6.439   3.323   7.748 -1.6592 -0.4015 -2.1880
  132OSM   C12S14227   6.270   3.447   7.817  0.5034  0.5913  0.2080
  132OSM   H12S14228   6.196   3.414   7.741  2.0671 -1.6562 -0.4227
  132OSM   H12T14229   6.254   3.556   7.835  2.0173  1.0581 -1.1015
  132OSM   C13S14230   6.243   3.369   7.939  0.8154  0.5174 -0.2445
  132OSM   H13S14231   6.303   3.416   8.020  0.2963  0.0639  0.4170
  132OSM   H13T14232   6.267   3.261   7.926  4.4964  1.3301 -1.4703
  132OSM   C14S14233   6.096   3.375   7.983 -0.6627 -0.3404  0.3730
  132OSM   H14S14234   6.025   3.344   7.904 -2.3066  3.4191  0.2063
  132OSM   H14T14235   6.069   3.481   7.998 -2.5912 -0.9658  1.8074
  132OSM   C15S14236   6.076   3.304   8.116  0.4838 -0.7383  0.5913
  132OSM   H15S14237   6.138   3.347   8.197 -0.5814  1.3096  0.3873
  132OSM   H15T14238   6.118   3.203   8.098  1.3172 -0.0978 -1.4007
  132OSM   C16S14239   5.932   3.297   8.165  0.0490  1.5133  0.8415
  132OSM   H16S14240   5.870   3.248   8.087 -0.7646 -1.3432  3.1201
  132OSM   H16T14241   5.891   3.400   8.171 -2.7062  0.5848 -0.4822
  132OSM   C17S14242   5.924   3.237   8.301 -0.5146 -0.2459 -0.4370
  132OSM   H17S14243   5.981   3.302   8.371  0.9043 -0.3720 -1.4233
  132OSM   H17T14244   5.981   3.142   8.317 -0.6716 -0.0798  1.2658
  132OSM   C18S14245   5.783   3.218   8.335 -0.0681 -0.0203 -0.0802
  132OSM   H18S14246   5.718   3.171   8.257  0.4811  0.7221 -1.0071
  132OSM   H18T14247   5.729   3.311   8.360 -0.7142 -0.0629 -1.2355
  132OSM   H18U14248   5.770   3.159   8.428  1.5876 -0.3735 -0.0360
  132OSM    C1F14249   6.608   3.217   6.709  0.2191  0.4492  0.2178
  132OSM     OF14250   6.689   3.272   6.636 -0.9995 -0.0958  0.7394
  132OSM    C2F14251   6.618   3.079   6.761 -0.4983 -0.0501  0.2077
  132OSM    H2F14252   6.582   3.010   6.681  1.0084  0.2611 -0.7801
  132OSM    H2G14253   6.553   3.078   6.850 -1.3766  1.8725 -0.3598
  132OSM    C3F14254   6.759   3.044   6.784  0.0268  0.3970 -0.1793
  132OSM    H3F14255   6.825   3.040   6.695 -0.0771 -0.8483 -0.2233
  132OSM    H3G14256   6.774   2.944   6.832  2.3111  0.5201 -0.5327
  132OSM    C4F14257   6.821   3.133   6.897  0.1902  0.1495 -0.0231
  132OSM    H4F14258   6.815   3.242   6.878 -1.6308  0.2638  0.9671
  132OSM    H4G14259   6.923   3.096   6.921 -0.1194 -0.8845 -0.2417
  132OSM    C5F14260   6.741   3.126   7.025 -0.4350  0.5232  0.4113
  132OSM    H5F14261   6.726   3.019   7.047  2.7707  0.2052  1.6400
  132OSM    H5G14262   6.648   3.185   7.010 -0.0557  1.2182  0.7423
  132OSM    C6F14263   6.817   3.174   7.146  0.2015 -0.0785  0.5309
  132OSM    H6F14264   6.821   3.283   7.127 -1.1521  0.4372  2.8862
  132OSM    H6G14265   6.919   3.130   7.149  0.6516  0.9608  0.7863
  132OSM    C7F14266   6.738   3.162   7.277 -0.5200 -0.3915 -0.2218
  132OSM    H7F14267   6.675   3.070   7.272 -2.9136  1.1046  0.5494
  132OSM    H7G14268   6.658   3.239   7.278 -0.8391 -0.7193 -0.0456
  132OSM    C8F14269   6.825   3.148   7.404 -0.3413 -0.5102 -0.2949
  132OSM    H8F14270   6.925   3.186   7.375  0.0516 -0.5125  0.9952
  132OSM    H8G14271   6.828   3.041   7.435  2.0387 -0.0336  1.3448
  132OSM    C9F14272   6.792   3.236   7.525 -0.3440  0.6250 -0.1663
  132OSM    H9F14273   6.754   3.338   7.508 -3.5174 -0.4191  0.0148
  132OSM   C10F14274   6.801   3.191   7.651 -1.2234 -0.0986 -0.6528
  132OSM   H10F14275   6.770   3.255   7.735 -3.4519 -0.4721 -1.1331
  132OSM   C11F14276   6.853   3.055   7.703  0.5512 -0.1503  0.1456
  132OSM   H11F14277   6.927   3.007   7.634 -1.2724 -2.0475 -0.6016
  132OSM   H11G14278   6.770   2.983   7.718  0.6480 -0.0699  1.0966
  132OSM   C12F14279   6.928   3.072   7.838 -0.9517  0.2156 -0.4467
  132OSM   H12F14280   6.981   3.168   7.850 -0.7119 -0.2570  3.0818
  132OSM   H12G14281   7.012   3.001   7.854  0.5611  2.4051  2.0932
  132OSM   C13F14282   6.847   3.050   7.966  0.2094  0.0711  0.4596
  132OSM   H13F14283   6.819   2.943   7.970  1.1326 -0.1832  0.3665
  132OSM   H13G14284   6.758   3.115   7.950  0.5985  0.1115 -1.8143
  132OSM   C14F14285   6.916   3.094   8.096  0.6253 -0.2067 -0.0159
  132OSM   H14F14286   6.936   3.202   8.111  0.8283 -0.0711 -1.1393
  132OSM   H14G14287   7.019   3.052   8.092  0.3146 -1.4161  2.6062
  132OSM   C15F14288   6.847   3.032   8.219 -0.2742  0.5765  0.3263
  132OSM   H15F14289   6.856   2.921   8.216  0.8712  0.6774 -1.0365
  132OSM   H15G14290   6.739   3.052   8.204 -0.4829  0.3683  1.4220
  132OSM   C16F14291   6.892   3.101   8.344  0.0868  0.1402  0.6830
  132OSM   H16F14292   6.835   3.054   8.427 -2.4349 -1.6132 -1.8537
  132OSM   H16G14293   6.873   3.210   8.345  0.3001  0.1786  1.3976
  132OSM   C17F14294   7.043   3.075   8.375 -0.1293 -0.0116  0.0223
  132OSM   H17F14295   7.069   3.120   8.473 -0.8836 -0.3552  0.3780
  132OSM   H17G14296   7.107   3.124   8.298  0.2989 -0.7725 -0.1171
  132OSM   C18F14297   7.080   2.926   8.386 -0.0560  0.6137  0.1351
  132OSM   H18F14298   7.179   2.906   8.432 -0.1262  0.2504  0.1293
  132OSM   H18G14299   7.074   2.872   8.289 -2.6962  0.2962  0.3954
  132OSM   H18H14300   7.002   2.880   8.451 -0.8932  0.5492 -0.8804
  133SAPE     N14301   2.464   3.389  11.032  0.4141  0.2135 -0.1215
  133SAPE   HN114302   2.559   3.349  11.020  0.7814  0.6838  1.1134
  133SAPE   HN214303   2.433   3.456  10.958  0.3768  2.6701  2.0029
  133SAPE   HN314304   2.465   3.439  11.123  1.8987 -1.1746  0.6764
  133SAPE   C1214305   2.347   3.298  11.048  0.7297 -0.0929 -0.1791
  133SAPE  H12A14306   2.256   3.351  11.084 -0.3037 -2.5317  1.0833
  133SAPE  H12B14307   2.366   3.212  11.117 -0.6221 -0.3005 -0.0378
  133SAPE   C1114308   2.297   3.241  10.911  0.4535 -0.8661  0.5250
  133SAPE  H11A14309   2.216   3.169  10.933  1.4467 -1.6275  1.8683
  133SAPE  H11B14310   2.373   3.184  10.855  0.3122  0.4508 -1.0821
  133SAPE     P14311   2.170   3.326  10.695  0.1576  0.1080 -0.4249
  133SAPE   O1314312   2.037   3.296  10.756 -0.5678  0.0053  0.4064
  133SAPE   O1414313   2.175   3.443  10.604  0.4549 -0.4555 -0.2022
  133SAPE   O1214314   2.264   3.341  10.819 -0.3745  0.2672  0.5923
  133SAPE   O1114315   2.216   3.203  10.611  0.4335 -0.7108  0.0811
  133SAPE    C114316   2.335   3.209  10.530  0.8766  0.0754  0.4535
  133SAPE    HA14317   2.401   3.288  10.573 -1.3603  2.7323 -0.6516
  133SAPE    HB14318   2.393   3.115  10.542  1.7014  0.6220  0.8578
  133SAPE    C214319   2.299   3.223  10.383  0.0352  0.4953  0.0472
  133SAPE    HS14320   2.389   3.199  10.322 -1.1956 -3.4798 -0.5418
  133SAPE   O2114321   2.253   3.355  10.341  0.1471  0.3060 -0.4545
  133SAPE   C2114322   2.351   3.449  10.362 -0.4011  0.5552 -0.3078
  133SAPE   O2214323   2.464   3.420  10.400  0.1473 -0.2596  0.4315
  133SAPE   C2214324   2.306   3.589  10.329  0.6191 -0.2177 -0.1475
  133SAPE   H2R14325   2.247   3.620  10.419  2.2991 -1.1236  1.3331
  133SAPE   H2S14326   2.387   3.662  10.313  1.5218 -1.2675 -0.4521
  133SAPE    C314327   2.193   3.120  10.330  0.4895 -0.0290 -0.0491
  133SAPE    HX14328   2.095   3.138  10.380 -1.3878 -2.4237 -2.5783
  133SAPE    HY14329   2.223   3.018  10.362 -0.8665 -0.3179  0.3511
  133SAPE   O3114330   2.171   3.126  10.186 -0.9097  0.7841 -0.4188
  133SAPE   C3114331   2.082   3.217  10.140 -0.7839  0.9261  0.3358
  133SAPE   O3214332   2.010   3.291  10.198  0.5004  0.0023  0.2983
  133SAPE   C3214333   2.085   3.215   9.990 -0.6876  0.1636 -0.0625
  133SAPE   H2X14334   2.146   3.129   9.954 -1.0480 -0.5220  0.9380
  133SAPE   H2Y14335   2.138   3.308   9.961 -0.2094  0.5229  1.8107
  133SAPE   C2314336   2.232   3.587  10.192  0.3857  1.1836  0.3074
  133SAPE   H3R14337   2.189   3.688  10.175 -2.8821 -0.1846 -0.1944
  133SAPE   H3S14338   2.152   3.511  10.198 -1.1006  2.5837 -0.9640
  133SAPE   C2414339   2.325   3.562  10.065 -0.6056 -0.3018 -0.0061
  133SAPE   H4R14340   2.370   3.460  10.066 -1.8011 -0.8590  1.9927
  133SAPE   H4S14341   2.402   3.641  10.070 -1.6068  0.8409 -1.6492
  133SAPE   C2514342   2.242   3.569   9.940  0.5448 -1.0054 -0.3985
  133SAPE   H5R14343   2.151   3.627   9.962  0.1145 -1.7841 -0.0683
  133SAPE   C2614344   2.255   3.521   9.810  0.3758  0.4900  0.2651
  133SAPE   H6R14345   2.177   3.530   9.733  1.8311 -1.3118 -1.5257
  133SAPE   C2714346   2.383   3.444   9.762 -0.5443 -0.2139  0.2342
  133SAPE   H7R14347   2.460   3.461   9.841  0.6994  1.8639 -1.3075
  133SAPE   H7S14348   2.437   3.494   9.679  0.2751 -0.9409  0.3146
  133SAPE   C2814349   2.354   3.304   9.724 -0.8055  0.3710 -0.2285
  133SAPE   H8R14350   2.264   3.291   9.663  0.2186  2.4449 -2.3173
  133SAPE   C2914351   2.436   3.195   9.737  0.5828  0.1883  0.1938
  133SAPE   H9R14352   2.403   3.098   9.699  1.0080  0.5960 -1.2564
  133SAPE  C21014353   2.574   3.207   9.798 -0.5093 -0.7551 -0.5098
  133SAPE  H10R14354   2.629   3.289   9.749  1.8416 -1.9608 -0.0602
  133SAPE  H10S14355   2.634   3.115   9.779 -1.3940 -1.4275 -0.1466
  133SAPE  C21114356   2.571   3.226   9.947 -0.4840 -0.1947  0.0796
  133SAPE  H11R14357   2.474   3.231  10.000 -0.0119  0.8186  0.8801
  133SAPE  C21214358   2.679   3.222  10.026 -0.0938 -0.5079  0.3554
  133SAPE  H12R14359   2.671   3.223  10.136  0.7021 -0.5704  0.4178
  133SAPE  C21314360   2.827   3.217   9.977  0.3674  0.1679 -0.2393
  133SAPE  H13R14361   2.883   3.298  10.028  0.3050 -0.5685  1.0316
  133SAPE  H13S14362   2.841   3.243   9.870 -0.2909 -0.8991 -0.6014
  133SAPE  C21414363   2.895   3.090  10.016 -0.2353 -0.0179  0.5999
  133SAPE  H14R14364   2.911   3.076  10.124  3.3567  0.0406  0.2136
  133SAPE  C21514365   2.934   2.989   9.935 -0.2644 -0.3409 -0.1177
  133SAPE  H15R14366   2.984   2.900   9.976 -0.5329  0.0061  0.9845
  133SAPE  C21614367   2.922   2.986   9.787  0.6700  0.2588  0.4655
  133SAPE  H16R14368   3.018   2.947   9.746  0.5409 -0.0753  0.4751
  133SAPE  H16S14369   2.912   3.092   9.754 -0.7573  0.9161  2.8246
  133SAPE  C21714370   2.803   2.905   9.730  0.5313 -0.2965 -0.9654
  133SAPE  H17R14371   2.710   2.932   9.785  1.8748 -0.2799  1.4457
  133SAPE  H17S14372   2.827   2.800   9.755  1.5895 -0.4126 -2.3512
  133SAPE  C21814373   2.790   2.929   9.576 -0.0984  0.4121  0.0802
  133SAPE  H18R14374   2.890   2.910   9.532 -0.3787 -0.2901 -0.2787
  133SAPE  H18S14375   2.770   3.033   9.545 -0.9478  0.8088  1.8018
  133SAPE  C21914376   2.684   2.842   9.523 -0.3373  0.4566 -0.4923
  133SAPE  H19R14377   2.586   2.863   9.570 -0.7037 -1.7446 -0.1647
  133SAPE  H19S14378   2.711   2.745   9.571 -3.7483 -0.5022 -0.2576
  133SAPE  C22014379   2.678   2.827   9.378 -1.1857 -0.4347  0.2008
  133SAPE  H20R14380   2.608   2.746   9.349  0.0030 -2.2214  2.0395
  133SAPE  H20S14381   2.778   2.812   9.333 -1.5348  0.8493 -1.0659
  133SAPE  H20T14382   2.627   2.914   9.331 -1.5239  0.2499  1.7602
  133SAPE   C3314383   1.950   3.222   9.926 -0.3118 -0.6787 -0.4484
  133SAPE   H3X14384   1.897   3.319   9.939 -3.0529 -1.9749 -1.3106
  133SAPE   H3Y14385   1.881   3.152   9.977 -0.2420  0.0822  0.7282
  133SAPE   C3414386   1.957   3.184   9.773  0.1453  0.1405 -0.6086
  133SAPE   H4X14387   1.977   3.076   9.758  0.2225  0.0600  0.0603
  133SAPE   H4Y14388   2.046   3.242   9.739 -0.0112  0.3317 -0.6979
  133SAPE   C3514389   1.827   3.222   9.701  0.3789  0.2106  0.2950
  133SAPE   H5X14390   1.819   3.331   9.684  0.5604  0.0770 -0.6881
  133SAPE   H5Y14391   1.742   3.210   9.772 -0.1819  0.2962 -0.3606
  133SAPE   C3614392   1.803   3.152   9.572  0.8747 -0.4646  0.9268
  133SAPE   H6X14393   1.692   3.157   9.564  0.8638 -1.3094  0.4727
  133SAPE   H6Y14394   1.813   3.042   9.573  2.6071 -0.4737 -2.3250
  133SAPE   C3714395   1.864   3.216   9.440  0.1808  0.1457  0.1926
  133SAPE   H7X14396   1.974   3.205   9.431  0.3832  3.1015 -3.2405
  133SAPE   H7Y14397   1.850   3.326   9.441 -1.3757 -0.0110 -1.0360
  133SAPE   C3814398   1.801   3.177   9.308  0.4535  0.7085 -0.5640
  133SAPE   H8X14399   1.696   3.214   9.320  0.8927  1.6301  0.6674
  133SAPE   H8Y14400   1.792   3.068   9.288  1.3185  0.9125 -2.2884
  133SAPE   C3914401   1.882   3.240   9.197 -0.4648  0.1366 -0.3127
  133SAPE   H9X14402   1.987   3.209   9.214 -0.6568 -1.0129 -1.1309
  133SAPE   H9Y14403   1.885   3.350   9.216 -0.7753  0.2071 -0.6624
  133SAPE  C31014404   1.836   3.195   9.056 -0.1527  0.2652  0.6886
  133SAPE  H10X14405   1.736   3.238   9.037  0.3290  0.7307 -1.0134
  133SAPE  H10Y14406   1.829   3.086   9.040  1.7375  0.3574 -1.2490
  133SAPE  C31114407   1.924   3.242   8.939  0.4321 -0.5687 -1.0741
  133SAPE  H11X14408   1.962   3.345   8.960  1.8699 -0.8841 -1.9617
  133SAPE  H11Y14409   1.869   3.236   8.843 -2.2133 -0.6011  0.3533
  133SAPE  C31214410   2.048   3.160   8.924  0.5090 -0.9864  0.1983
  133SAPE  H12X14411   2.019   3.055   8.900 -0.1986 -1.2498  2.0148
  133SAPE  H12Y14412   2.101   3.156   9.021  0.0754  2.4243  0.6885
  133SAPE  C31314413   2.138   3.223   8.816  0.0444  0.0789 -0.8713
  133SAPE  H13X14414   2.174   3.318   8.861  0.0705 -0.6035  0.6316
  133SAPE  H13Y14415   2.094   3.260   8.721  0.0464  2.0745 -0.1295
  133SAPE  C31414416   2.248   3.123   8.787 -0.1156  0.2703  0.5114
  133SAPE  H14X14417   2.212   3.028   8.742 -0.4047  0.4510  0.3605
  133SAPE  H14Y14418   2.311   3.098   8.875 -0.7879 -0.3322  0.8336
  133SAPE  C31514419   2.340   3.173   8.672  0.3021 -0.4218  0.3918
  133SAPE  H15X14420   2.284   3.180   8.577  0.2623 -0.8966  0.3752
  133SAPE  H15Y14421   2.415   3.091   8.662 -1.2115 -2.2638  2.7710
  133SAPE  C31614422   2.417   3.303   8.695 -0.6478 -0.5019 -0.0729
  133SAPE  H16X14423   2.350   3.391   8.703  1.0167  0.8133 -0.1032
  133SAPE  H16Y14424   2.470   3.342   8.606  0.1333 -4.1677 -1.4108
  133SAPE  C31714425   2.513   3.294   8.806 -0.3299 -0.0743 -0.1270
  133SAPE  H17X14426   2.591   3.218   8.783  3.1624  3.1877 -0.1902
  133SAPE  H17Y14427   2.463   3.266   8.901 -0.3242  0.9459  0.1876
  133SAPE  C31814428   2.590   3.430   8.812 -0.5346 -0.1558 -0.3639
  133SAPE  H18X14429   2.654   3.439   8.722  0.1977 -0.5792  0.1038
  133SAPE  H18Y14430   2.648   3.445   8.905  0.1190 -0.0355 -0.7832
  133SAPE  H18Z14431   2.525   3.520   8.803 -0.3950 -0.1924 -2.1496
  134SAPE     N14432   5.083   5.012  10.546 -0.3634  0.2337  0.5307
  134SAPE   HN114433   5.110   5.073  10.626  0.5704 -0.5676  0.8484
  134SAPE   HN214434   5.055   5.082  10.475  0.9829  1.2080  0.9093
  134SAPE   HN314435   5.005   4.949  10.574  1.0539 -1.8679  0.0027
  134SAPE   C1214436   5.198   4.928  10.494 -0.0976 -0.7747  0.4022
  134SAPE  H12A14437   5.257   4.885  10.577  2.5319 -0.6294 -1.2491
  134SAPE  H12B14438   5.265   4.996  10.437 -2.2868 -0.3467 -1.8181
  134SAPE   C1114439   5.145   4.812  10.404 -0.4248 -0.6250 -0.8788
  134SAPE  H11A14440   5.224   4.738  10.377  0.2425 -0.5532  0.7664
  134SAPE  H11B14441   5.106   4.854  10.309  0.5754  0.8716 -0.6519
  134SAPE     P14442   5.069   4.639  10.569  0.1289  0.1427 -0.0626
  134SAPE   O1314443   5.142   4.696  10.688 -0.4200 -0.1848 -0.7038
  134SAPE   O1414444   4.940   4.574  10.598  0.0636 -0.0976 -0.2788
  134SAPE   O1214445   5.036   4.751  10.471 -0.0377 -0.2900  0.5755
  134SAPE   O1114446   5.162   4.541  10.492 -0.0866 -0.5818 -0.0632
  134SAPE    C114447   5.114   4.420  10.436 -0.2245 -0.3117 -0.1776
  134SAPE    HA14448   5.200   4.350  10.445  0.9220  1.0699  0.0151
  134SAPE    HB14449   5.035   4.361  10.487  0.1892  0.3106  1.2429
  134SAPE    C214450   5.073   4.438  10.291 -0.0343  0.9534  0.8845
  134SAPE    HS14451   5.082   4.332  10.259  1.0862  1.0087  0.9696
  134SAPE   O2114452   5.152   4.532  10.220 -0.3623  0.2942  0.6463
  134SAPE   C2114453   5.276   4.497  10.200  0.2841 -0.3717  0.3017
  134SAPE   O2214454   5.318   4.382  10.213  0.0280 -0.7694 -0.4349
  134SAPE   C2214455   5.359   4.614  10.158  0.1894  0.0123 -0.0305
  134SAPE   H2R14456   5.400   4.655  10.253  0.2016  1.1235 -0.5001
  134SAPE   H2S14457   5.447   4.575  10.103 -1.7083 -1.1831 -2.4207
  134SAPE    C314458   4.923   4.483  10.275  0.8746 -0.6319  0.0123
  134SAPE    HX14459   4.927   4.591  10.301 -1.0333 -0.8477  1.4033
  134SAPE    HY14460   4.867   4.428  10.354 -0.3443 -1.1087 -1.1551
  134SAPE   O3114461   4.868   4.457  10.145  0.4992 -0.4333 -0.1597
  134SAPE   C3114462   4.890   4.550  10.051 -0.0830  0.6298  0.1316
  134SAPE   O3214463   4.935   4.658  10.072 -0.9948 -0.1740  0.3293
  134SAPE   C3214464   4.849   4.491   9.920 -0.3386 -0.2694  0.1236
  134SAPE   H2X14465   4.743   4.457   9.921 -0.4318 -0.0147 -0.3595
  134SAPE   H2Y14466   4.892   4.392   9.896  0.1679 -0.3942  1.4817
  134SAPE   C2314467   5.290   4.727  10.079 -0.9289 -0.4375  0.1789
  134SAPE   H3R14468   5.368   4.798  10.045 -3.8497  2.4373 -1.0924
  134SAPE   H3S14469   5.214   4.782  10.137 -1.7469 -1.1481 -0.1966
  134SAPE   C2414470   5.226   4.683   9.941  0.3923 -0.0959  0.1254
  134SAPE   H4R14471   5.150   4.607   9.970  1.4178 -1.3026 -0.2516
  134SAPE   H4S14472   5.307   4.633   9.883  0.3400  1.1977 -1.1196
  134SAPE   C2514473   5.180   4.802   9.853  0.3939 -0.0664 -0.0673
  134SAPE   H5R14474   5.094   4.860   9.891 -1.0088 -2.1771  0.1798
  134SAPE   C2614475   5.236   4.831   9.730 -0.1978 -0.3580 -0.3217
  134SAPE   H6R14476   5.204   4.919   9.671 -1.4096  1.2665  2.5021
  134SAPE   C2714477   5.349   4.758   9.661 -0.9242 -0.3142 -0.3040
  134SAPE   H7R14478   5.427   4.741   9.739 -0.4758 -0.7444 -0.8410
  134SAPE   H7S14479   5.410   4.820   9.592 -0.8611 -2.3695 -2.2120
  134SAPE   C2814480   5.307   4.628   9.596 -0.9294 -0.1611 -0.9366
  134SAPE   H8R14481   5.239   4.564   9.655 -1.2273  1.0032  0.0215
  134SAPE   C2914482   5.344   4.584   9.473 -0.6673 -0.4077  0.3080
  134SAPE   H9R14483   5.320   4.482   9.438  0.3489 -1.7773  3.2461
  134SAPE  C21014484   5.436   4.655   9.379 -0.5333 -0.2019 -0.2644
  134SAPE  H10R14485   5.505   4.575   9.345 -0.2311 -0.3710  0.7149
  134SAPE  H10S14486   5.496   4.730   9.434 -1.0446  0.1928 -0.2369
  134SAPE  C21114487   5.359   4.720   9.265  0.1424 -0.4388 -0.0639
  134SAPE  H11R14488   5.253   4.738   9.288  0.2872 -1.1128  1.2229
  134SAPE  C21214489   5.404   4.733   9.133 -0.2419  0.1524 -0.5140
  134SAPE  H12R14490   5.339   4.786   9.062 -1.3663 -0.1382  0.2780
  134SAPE  C21314491   5.546   4.701   9.090 -0.2084 -0.4649  0.0170
  134SAPE  H13R14492   5.555   4.590   9.080 -0.6429 -0.5474  0.4990
  134SAPE  H13S14493   5.620   4.723   9.169 -1.8220 -2.1420  2.1300
  134SAPE  C21414494   5.580   4.769   8.958 -0.5667 -0.9872 -0.3793
  134SAPE  H14R14495   5.601   4.876   8.973 -1.2481 -0.8178 -0.5716
  134SAPE  C21514496   5.582   4.725   8.833 -0.0334  0.0654 -0.1375
  134SAPE  H15R14497   5.618   4.786   8.750 -0.0781 -1.4127 -1.2874
  134SAPE  C21614498   5.535   4.585   8.791 -0.0628  0.4063 -0.5293
  134SAPE  H16R14499   5.462   4.552   8.869  0.0566  0.5120 -0.3724
  134SAPE  H16S14500   5.622   4.517   8.798  0.3537  1.0364  0.7096
  134SAPE  C21714501   5.474   4.586   8.653 -1.4910 -0.2575  0.1113
  134SAPE  H17R14502   5.475   4.484   8.608 -1.8999 -0.8517  1.3975
  134SAPE  H17S14503   5.535   4.638   8.576 -1.7752 -0.8599 -0.5324
  134SAPE  C21814504   5.322   4.623   8.660  1.4021 -0.2230  0.3820
  134SAPE  H18R14505   5.296   4.725   8.698 -0.3214 -0.2542 -0.6434
  134SAPE  H18S14506   5.272   4.551   8.728  0.3990 -0.0987 -0.2128
  134SAPE  C21914507   5.237   4.632   8.532  0.0422  0.0519 -0.1779
  134SAPE  H19R14508   5.243   4.527   8.497  2.3638  0.4147 -1.0923
  134SAPE  H19S14509   5.283   4.704   8.460 -0.0098  0.4677  0.2004
  134SAPE  C22014510   5.090   4.675   8.562 -0.3494  0.5296 -0.1344
  134SAPE  H20R14511   5.064   4.612   8.649  0.3267  0.4933  0.0470
  134SAPE  H20S14512   5.025   4.636   8.481  2.4306 -4.2930 -0.4187
  134SAPE  H20T14513   5.077   4.784   8.581 -0.8142  0.3247  0.8124
  134SAPE   C3314514   4.865   4.591   9.806  0.1800 -0.2221  0.0073
  134SAPE   H3X14515   4.952   4.659   9.822 -0.6522  0.4454  1.9147
  134SAPE   H3Y14516   4.776   4.657   9.805  0.4149  0.0967 -0.2557
  134SAPE   C3414517   4.874   4.533   9.667 -0.2600 -0.3579 -0.2541
  134SAPE   H4X14518   4.785   4.470   9.646 -0.5355 -0.4386  1.0713
  134SAPE   H4Y14519   4.968   4.477   9.649 -0.8622 -1.7597  0.7875
  134SAPE   C3514520   4.869   4.646   9.563 -0.6499  0.8884  0.5301
  134SAPE   H5X14521   4.926   4.737   9.591  0.7564 -0.2471  1.4842
  134SAPE   H5Y14522   4.764   4.681   9.555 -0.8553  0.3985  1.0123
  134SAPE   C3614523   4.906   4.613   9.425  0.3154 -0.1698  0.3104
  134SAPE   H6X14524   4.849   4.525   9.389  1.5106 -1.5808  1.7102
  134SAPE   H6Y14525   5.018   4.612   9.427  0.3294 -1.9416  0.8079
  134SAPE   C3714526   4.896   4.742   9.341  0.9066 -0.1872  0.2112
  134SAPE   H7X14527   4.942   4.827   9.394 -0.3684  1.1257 -0.6932
  134SAPE   H7Y14528   4.786   4.761   9.347  0.8804 -0.1977 -0.1801
  134SAPE   C3814529   4.931   4.730   9.195  0.4604 -0.4703 -0.7292
  134SAPE   H8X14530   4.880   4.642   9.151 -2.1699  0.9205 -0.6986
  134SAPE   H8Y14531   5.040   4.714   9.185  0.1975 -1.2340 -2.7192
  134SAPE   C3914532   4.893   4.860   9.117 -0.4924  0.6362 -0.4203
  134SAPE   H9X14533   4.978   4.930   9.131 -0.6012  0.6085  0.4413
  134SAPE   H9Y14534   4.806   4.906   9.170 -0.1237  0.4865  0.3306
  134SAPE  C31014535   4.871   4.840   8.970 -0.3175  0.7945 -0.2317
  134SAPE  H10X14536   4.770   4.798   8.950 -0.5238  0.3329  1.5538
  134SAPE  H10Y14537   4.943   4.775   8.916 -1.5691  0.2594 -1.3190
  134SAPE  C31114538   4.870   4.982   8.918 -0.0045 -0.4208  0.1184
  134SAPE  H11X14539   4.971   5.019   8.943 -0.1483 -0.0588  0.1705
  134SAPE  H11Y14540   4.796   5.050   8.965 -0.6103  1.5522 -3.3925
  134SAPE  C31214541   4.869   4.987   8.759  0.0061  0.0531 -0.8445
  134SAPE  H12X14542   4.763   4.971   8.729 -0.1232 -1.2742  0.2522
  134SAPE  H12Y14543   4.940   4.912   8.717 -0.5248 -1.3473  0.6788
  134SAPE  C31314544   4.924   5.121   8.704  0.0244  0.6833 -0.1068
  134SAPE  H13X14545   5.025   5.141   8.746  0.3571  0.1953 -0.6554
  134SAPE  H13Y14546   4.849   5.196   8.734  0.2079  2.0832 -2.8888
  134SAPE  C31414547   4.932   5.117   8.550 -0.4279 -0.1485  0.1716
  134SAPE  H14X14548   4.845   5.078   8.493  0.8237 -0.1976 -1.8281
  134SAPE  H14Y14549   5.013   5.042   8.535  0.8076  1.2719 -0.5951
  134SAPE  C31514550   4.994   5.244   8.495  0.0410 -0.1399 -0.2156
  134SAPE  H15X14551   5.069   5.277   8.570  1.6437  1.8427 -2.4966
  134SAPE  H15Y14552   4.920   5.325   8.478  2.5993  2.1093 -1.4336
  134SAPE  C31614553   5.064   5.218   8.357  0.6240  0.1358  0.1714
  134SAPE  H16X14554   4.987   5.202   8.279  0.5588  0.7306  0.1043
  134SAPE  H16Y14555   5.134   5.133   8.373  2.8480  1.5220 -1.5061
  134SAPE  C31714556   5.141   5.335   8.302 -0.2290 -0.6398  0.1065
  134SAPE  H17X14557   5.179   5.309   8.201  1.9082  0.3801  0.5745
  134SAPE  H17Y14558   5.234   5.352   8.360 -0.5443  1.8441 -0.0062
  134SAPE  C31814559   5.057   5.469   8.289  0.1560  0.7390 -0.2099
  134SAPE  H18X14560   5.068   5.517   8.389  0.6767  0.5182 -0.1522
  134SAPE  H18Y14561   4.952   5.453   8.259  0.3339 -0.8731 -0.0705
  134SAPE  H18Z14562   5.090   5.534   8.205  0.7763 -1.9062 -2.1192
  135SAPE     N14563   6.772   4.250  10.763  0.1772 -0.5568  0.2058
  135SAPE   HN114564   6.804   4.246  10.862  5.4574 -1.9716 -1.2492
  135SAPE   HN214565   6.744   4.150  10.750  2.4745 -1.7345  3.1361
  135SAPE   HN314566   6.851   4.268  10.698 -0.6042 -0.3700 -0.7141
  135SAPE   C1214567   6.658   4.344  10.727 -0.3159  0.1558 -0.6213
  135SAPE  H12A14568   6.692   4.448  10.744  1.0009 -0.3101 -0.2915
  135SAPE  H12B14569   6.570   4.326  10.793  0.1690  0.7334  0.1971
  135SAPE   C1114570   6.620   4.342  10.583 -0.0245  0.8166 -0.4489
  135SAPE  H11A14571   6.589   4.239  10.554  0.1817  0.3230  0.9804
  135SAPE  H11B14572   6.712   4.355  10.522  0.0918 -0.2038 -0.5246
  135SAPE     P14573   6.365   4.421  10.590 -0.0352 -0.4454  0.4177
  135SAPE   O1314574   6.352   4.294  10.659 -0.1160  0.1918  0.4730
  135SAPE   O1414575   6.322   4.541  10.666 -0.2378  0.4424  0.3237
  135SAPE   O1214576   6.517   4.439  10.553 -0.0941 -0.3900 -0.0851
  135SAPE   O1114577   6.293   4.408  10.447 -0.4797 -0.0994 -0.4087
  135SAPE    C114578   6.235   4.288  10.394 -0.0942  0.6036 -0.7475
  135SAPE    HA14579   6.276   4.194  10.437  0.2864  0.0890 -2.1740
  135SAPE    HB14580   6.124   4.294  10.382 -0.1040 -1.8803 -2.7383
  135SAPE    C214581   6.279   4.291  10.240  0.7196  0.1113  0.5268
  135SAPE    HS14582   6.255   4.186  10.211 -2.4797 -0.1049  3.2690
  135SAPE   O2114583   6.423   4.309  10.226 -0.1026  0.6841 -0.0523
  135SAPE   C2114584   6.501   4.222  10.270 -0.1259 -0.5227 -0.2085
  135SAPE   O2214585   6.476   4.120  10.340 -0.0763  0.3025  0.2386
  135SAPE   C2214586   6.646   4.264  10.253 -0.2378 -0.6208  0.0571
  135SAPE   H2R14587   6.645   4.374  10.270  0.0613 -0.5339 -0.4347
  135SAPE   H2S14588   6.707   4.214  10.331 -1.1158 -1.8913 -0.0394
  135SAPE    C314589   6.205   4.408  10.159 -0.5227  0.1773  0.1608
  135SAPE    HX14590   6.237   4.497  10.218 -1.1257  0.2028  0.4546
  135SAPE    HY14591   6.095   4.389  10.158 -0.1928 -1.9034  0.1153
  135SAPE   O3114592   6.263   4.427  10.030 -0.1189  0.2396 -0.2581
  135SAPE   C3114593   6.227   4.330   9.946  0.3506 -0.4818 -0.2716
  135SAPE   O3214594   6.159   4.236   9.970 -0.6019 -0.1632  0.1214
  135SAPE   C3214595   6.308   4.354   9.818  0.6253  0.1017  0.4866
  135SAPE   H2X14596   6.288   4.263   9.757  1.2404 -0.0531  0.5020
  135SAPE   H2Y14597   6.412   4.343   9.857 -0.5268 -4.5310  3.0574
  135SAPE   C2314598   6.697   4.223  10.111 -1.1233 -0.1106  0.0409
  135SAPE   H3R14599   6.796   4.272  10.092 -1.1231 -0.4283 -0.8354
  135SAPE   H3S14600   6.626   4.267  10.038 -3.1903  3.1596  3.6452
  135SAPE   C2414601   6.723   4.067  10.091  0.3826 -0.1324  0.2296
  135SAPE   H4R14602   6.788   4.039  10.177 -0.3344 -1.5513  0.3356
  135SAPE   H4S14603   6.798   4.048  10.011  0.2268  2.9149 -0.7765
  135SAPE   C2514604   6.608   3.975  10.082 -0.4064 -0.4046  0.1697
  135SAPE   H5R14605   6.578   3.940  10.182 -1.4747  0.9185  0.3352
  135SAPE   C2614606   6.540   3.964   9.964 -0.2963 -0.4330  0.0521
  135SAPE   H6R14607   6.447   3.905   9.963 -1.6275  1.5821 -0.5430
  135SAPE   C2714608   6.582   4.027   9.832 -0.0950  0.0643  0.2726
  135SAPE   H7R14609   6.677   3.977   9.805  1.3507  2.7691 -0.0126
  135SAPE   H7S14610   6.608   4.135   9.839  0.3541  0.5207 -4.7204
  135SAPE   C2814611   6.482   4.026   9.724 -0.1296 -0.1459  0.5114
  135SAPE   H8R14612   6.389   3.976   9.753 -0.1646  0.4862  1.5042
  135SAPE   C2914613   6.499   4.074   9.601  0.6745 -0.2471  0.6203
  135SAPE   H9R14614   6.413   4.074   9.533  0.7707  0.4998  0.4842
  135SAPE  C21014615   6.636   4.134   9.551  0.2320 -0.2965  0.7515
  135SAPE  H10R14616   6.715   4.057   9.540  0.4550 -0.3414  2.4997
  135SAPE  H10S14617   6.687   4.203   9.622  3.3817 -1.0397 -0.6325
  135SAPE  C21114618   6.599   4.220   9.427  0.2747 -0.1412 -0.0914
  135SAPE  H11R14619   6.614   4.327   9.447  0.7360 -0.0277 -1.0061
  135SAPE  C21214620   6.570   4.174   9.305 -0.4572  0.4715  0.3555
  135SAPE  H12R14621   6.557   4.255   9.231  1.1657 -1.3251 -2.0753
  135SAPE  C21314622   6.574   4.030   9.264  0.3423 -0.4586  0.1502
  135SAPE  H13R14623   6.472   3.992   9.240 -0.0661 -0.0959  1.2758
  135SAPE  H13S14624   6.615   3.959   9.340  0.7426  0.4360  0.7844
  135SAPE  C21414625   6.658   4.002   9.137 -0.4056 -0.5498 -0.2189
  135SAPE  H14R14626   6.754   4.055   9.129  0.5210 -1.6890  2.2219
  135SAPE  C21514627   6.625   3.920   9.038 -0.7709  0.0168  0.1271
  135SAPE  H15R14628   6.697   3.901   8.958 -0.6241 -1.2863  0.5526
  135SAPE  C21614629   6.498   3.839   9.032  0.5083 -0.1729  0.0568
  135SAPE  H16R14630   6.434   3.820   9.121  0.4126 -0.9808 -0.1799
  135SAPE  H16S14631   6.533   3.739   9.000 -1.6129 -0.4309 -1.6943
  135SAPE  C21714632   6.409   3.887   8.914  0.7001  0.6128  0.0071
  135SAPE  H17R14633   6.461   3.889   8.816 -0.2447  0.2646 -0.5164
  135SAPE  H17S14634   6.375   3.992   8.928 -0.3131  0.3177 -0.1795
  135SAPE  C21814635   6.274   3.807   8.888  0.3928  0.0760  0.4069
  135SAPE  H18R14636   6.208   3.818   8.977  0.0915 -0.1210  0.2072
  135SAPE  H18S14637   6.310   3.703   8.872  5.4165  1.6860 -0.6982
  135SAPE  C21914638   6.193   3.857   8.766 -0.1697  0.2570 -0.1269
  135SAPE  H19R14639   6.141   3.767   8.726  0.2445 -0.1594  0.2552
  135SAPE  H19S14640   6.271   3.882   8.692  1.4656 -2.1567  0.6447
  135SAPE  C22014641   6.104   3.979   8.791 -0.6590  0.0820 -0.4450
  135SAPE  H20R14642   6.029   3.956   8.869  1.9633  0.4878  2.3997
  135SAPE  H20S14643   6.052   3.994   8.694 -0.6768 -0.3945 -0.5118
  135SAPE  H20T14644   6.175   4.063   8.801 -2.8857  2.0445 -0.3453
  135SAPE   C3314645   6.273   4.479   9.733 -0.3499  0.2870 -0.3868
  135SAPE   H3X14646   6.300   4.569   9.792 -2.0341  1.3432 -1.1365
  135SAPE   H3Y14647   6.167   4.488   9.702 -0.5715  1.3513  0.6548
  135SAPE   C3414648   6.347   4.479   9.595 -0.6854  0.9517 -0.1305
  135SAPE   H4X14649   6.307   4.385   9.551  0.5064 -0.3745  1.5060
  135SAPE   H4Y14650   6.454   4.463   9.615 -1.0026  1.0764  1.8601
  135SAPE   C3514651   6.318   4.591   9.496  0.1804  0.0522  0.4937
  135SAPE   H5X14652   6.332   4.692   9.541 -2.3079  1.5143 -1.7296
  135SAPE   H5Y14653   6.208   4.594   9.481  0.0490  2.3551  1.5444
  135SAPE   C3614654   6.391   4.582   9.364 -0.4630  0.3852 -0.4399
  135SAPE   H6X14655   6.373   4.481   9.321  0.3418  0.6286 -1.3778
  135SAPE   H6Y14656   6.498   4.593   9.388  0.1016 -0.1097 -2.5366
  135SAPE   C3714657   6.348   4.696   9.264 -0.4552 -0.8016 -0.1189
  135SAPE   H7X14658   6.358   4.793   9.318 -2.5669 -0.2154 -0.6850
  135SAPE   H7Y14659   6.240   4.684   9.244 -0.4867 -2.2253  0.7891
  135SAPE   C3814660   6.427   4.697   9.131  1.0234  0.2604 -0.0933
  135SAPE   H8X14661   6.463   4.600   9.089  2.1494  0.8306 -0.4816
  135SAPE   H8Y14662   6.523   4.746   9.156 -0.0104  1.9150  0.7774
  135SAPE   C3914663   6.374   4.792   9.011  0.1885  0.3695  0.1829
  135SAPE   H9X14664   6.365   4.893   9.055  1.3066  0.3065  0.5767
  135SAPE   H9Y14665   6.277   4.753   8.973 -0.4051  0.7949  1.2256
  135SAPE  C31014666   6.468   4.793   8.894  1.0921  0.7002 -0.5202
  135SAPE  H10X14667   6.476   4.686   8.866 -0.7210  0.2779  0.4339
  135SAPE  H10Y14668   6.567   4.825   8.935  1.6540 -1.8987  0.3191
  135SAPE  C31114669   6.414   4.882   8.775  0.2999  0.5100  0.3160
  135SAPE  H11X14670   6.365   4.975   8.812 -0.3991  0.5446 -0.6591
  135SAPE  H11Y14671   6.333   4.821   8.731 -0.4772  0.8092  1.2876
  135SAPE  C31214672   6.530   4.898   8.675 -1.0068 -0.2831  0.8349
  135SAPE  H12X14673   6.618   4.943   8.725 -0.6648  3.1210 -2.4287
  135SAPE  H12Y14674   6.484   4.966   8.600  0.5495 -0.7194 -0.5865
  135SAPE  C31314675   6.559   4.760   8.608 -0.2762 -0.2525  0.7492
  135SAPE  H13X14676   6.467   4.714   8.565  0.7138 -0.5911 -1.1046
  135SAPE  H13Y14677   6.606   4.690   8.680  1.6406 -1.4212 -1.4935
  135SAPE  C31414678   6.648   4.793   8.484 -0.0142  0.2796  0.6026
  135SAPE  H14X14679   6.727   4.865   8.512  2.5836 -1.4888 -1.6105
  135SAPE  H14Y14680   6.583   4.844   8.409 -1.3650 -1.3045  0.6467
  135SAPE  C31514681   6.722   4.683   8.409 -0.0296  1.2651 -0.2126
  135SAPE  H15X14682   6.768   4.721   8.316 -0.2414  1.0833 -0.3928
  135SAPE  H15Y14683   6.639   4.613   8.383  0.9791 -0.1923  0.3449
  135SAPE  C31614684   6.839   4.610   8.477 -0.3837  0.7690 -0.3319
  135SAPE  H16X14685   6.797   4.574   8.573  1.9012 -1.8117 -0.2052
  135SAPE  H16Y14686   6.924   4.680   8.487 -1.6000  2.2502  0.1212
  135SAPE  C31714687   6.894   4.487   8.400  0.0748 -0.1144  0.4769
  135SAPE  H17X14688   6.919   4.516   8.296  0.3798 -0.1268  0.5456
  135SAPE  H17Y14689   6.816   4.407   8.400 -1.1240  0.9724 -1.7796
  135SAPE  C31814690   7.019   4.430   8.462 -0.1439  0.4507 -0.0725
  135SAPE  H18X14691   7.007   4.402   8.569  1.4874 -1.1706 -0.2658
  135SAPE  H18Y14692   7.104   4.501   8.452 -0.7071  1.1124 -0.2245
  135SAPE  H18Z14693   7.044   4.333   8.413  0.6993  0.8405 -0.4352
  136SAPE     N14694   1.552   5.234  10.903  0.4754  0.1694 -0.0404
  136SAPE   HN114695   1.471   5.186  10.947 -0.2402  0.0840 -1.4082
  136SAPE   HN214696   1.507   5.297  10.834 -1.0518  1.0514  1.6704
  136SAPE   HN314697   1.609   5.158  10.862  0.7137  0.0740  0.4591
  136SAPE   C1214698   1.645   5.311  10.982 -0.8548  0.2604 -0.8656
  136SAPE  H12A14699   1.601   5.360  11.071  1.3690  1.7677 -0.5197
  136SAPE  H12B14700   1.687   5.388  10.914 -0.5959  1.0389  0.1699
  136SAPE   C1114701   1.757   5.228  11.043 -0.7081  0.2458 -0.4664
  136SAPE  H11A14702   1.705   5.162  11.117 -2.6200  2.7320  0.5545
  136SAPE  H11B14703   1.826   5.289  11.105 -0.2744  0.6469 -1.3241
  136SAPE     P14704   1.967   5.204  10.885 -0.3279  0.3591  0.4377
  136SAPE   O1314705   1.995   5.340  10.921  0.2232 -0.2493 -0.3451
  136SAPE   O1414706   2.070   5.102  10.914  0.5645 -0.5809  0.0624
  136SAPE   O1214707   1.826   5.153  10.944  0.1526  0.2368 -0.2800
  136SAPE   O1114708   1.945   5.210  10.733 -0.0644 -0.1112  0.3359
  136SAPE    C114709   1.835   5.282  10.670 -0.2908 -0.3527  0.2348
  136SAPE    HA14710   1.758   5.212  10.632 -1.5168  1.5197 -0.9050
  136SAPE    HB14711   1.782   5.345  10.744 -1.1195 -0.4952 -0.2276
  136SAPE    C214712   1.871   5.374  10.548  0.1622  0.8825 -0.7205
  136SAPE    HS14713   1.775   5.425  10.521 -1.7601 -1.5748  1.0542
  136SAPE   O2114714   1.933   5.302  10.441  0.1663 -0.2589  0.5186
  136SAPE   C2114715   1.846   5.232  10.368  0.1816  0.4240  0.0505
  136SAPE   O2214716   1.728   5.218  10.399 -0.2177 -0.1000  0.5679
  136SAPE   C2214717   1.918   5.186  10.242  0.6973  0.2296 -0.6533
  136SAPE   H2R14718   1.915   5.267  10.166  2.7833  1.7913  0.8063
  136SAPE   H2S14719   2.025   5.158  10.247  0.3704 -1.2107 -1.2822
  136SAPE    C314720   1.958   5.494  10.591  0.0663  0.2345 -0.1755
  136SAPE    HX14721   2.045   5.450  10.643 -0.6527  0.0348  0.8888
  136SAPE    HY14722   1.905   5.560  10.663  2.2817  2.3366 -0.3465
  136SAPE   O3114723   2.005   5.563  10.472  0.0980 -0.3965  0.3993
  136SAPE   C3114724   1.917   5.615  10.390 -0.7162 -0.0498 -1.3542
  136SAPE   O3214725   1.799   5.637  10.420 -0.6495  0.2832  0.2689
  136SAPE   C3214726   1.992   5.647  10.264  0.4383  0.5112 -0.1872
  136SAPE   H2X14727   2.065   5.566  10.242 -0.4611 -0.2025 -0.6182
  136SAPE   H2Y14728   2.050   5.738  10.290 -1.5824  1.5600  0.9748
  136SAPE   C2314729   1.855   5.063  10.173 -0.0333  0.3215 -0.1724
  136SAPE   H3R14730   1.747   5.090  10.170 -0.0331  0.4835 -4.1555
  136SAPE   H3S14731   1.873   4.970  10.230  1.8956  0.9269  0.2977
  136SAPE   C2414732   1.919   5.040  10.034 -0.0216 -0.5360  0.4314
  136SAPE   H4R14733   2.024   5.020  10.063 -0.1415 -2.1421 -0.1641
  136SAPE   H4S14734   1.909   5.132   9.972 -0.4725 -0.9725 -0.1580
  136SAPE   C2514735   1.865   4.917   9.968  0.3327  0.2111  0.0513
  136SAPE   H5R14736   1.848   4.830  10.034 -1.0510 -1.6066 -2.5410
  136SAPE   C2614737   1.841   4.898   9.834  0.2056 -0.2863 -0.4448
  136SAPE   H6R14738   1.797   4.802   9.803  0.5389 -1.1073  1.5097
  136SAPE   C2714739   1.862   5.009   9.732 -0.5141  0.2407  0.3085
  136SAPE   H7R14740   1.868   5.113   9.771 -0.6820  0.0087  0.9666
  136SAPE   H7S14741   1.775   5.016   9.663 -0.5006 -0.1819  0.2487
  136SAPE   C2814742   1.998   4.985   9.667  0.5496  0.2704  0.0426
  136SAPE   H8R14743   2.078   4.984   9.743 -1.1345 -0.7182  1.9052
  136SAPE   C2914744   2.015   4.954   9.540 -0.4387  0.0166 -0.4883
  136SAPE   H9R14745   2.118   4.938   9.506 -0.1507  1.1387 -0.1550
  136SAPE  C21014746   1.909   4.949   9.430  0.0249  0.0868  0.1847
  136SAPE  H10R14747   1.819   5.011   9.449  1.0054  1.0882  1.7786
  136SAPE  H10S14748   1.862   4.848   9.435  1.3887 -0.6458 -0.9586
  136SAPE  C21114749   1.958   4.975   9.288 -0.2603  0.2707 -0.0419
  136SAPE  H11R14750   2.053   5.030   9.277 -0.5713  0.9194  0.4074
  136SAPE  C21214751   1.908   4.922   9.171 -0.6861  0.9316 -0.4006
  136SAPE  H12R14752   1.962   4.937   9.077  1.4089 -1.6116  0.2871
  136SAPE  C21314753   1.782   4.838   9.168  0.6074  0.2929  0.6325
  136SAPE  H13R14754   1.711   4.877   9.244  2.2975  0.8736  1.9947
  136SAPE  H13S14755   1.788   4.729   9.188 -0.6255  0.2435  0.7673
  136SAPE  C21414756   1.723   4.860   9.037 -0.1908 -0.4755  0.2447
  136SAPE  H14R14757   1.685   4.961   9.020  0.5146 -0.0296  1.2376
  136SAPE  C21514758   1.705   4.768   8.940  0.0699 -0.0359 -0.4840
  136SAPE  H15R14759   1.661   4.812   8.850  0.6340  0.8431 -0.3431
  136SAPE  C21614760   1.729   4.614   8.932  0.5814 -0.4236  0.1448
  136SAPE  H16R14761   1.631   4.564   8.914  0.0124  1.1285 -1.4240
  136SAPE  H16S14762   1.775   4.582   9.027 -1.6021 -2.7114  0.5356
  136SAPE  C21714763   1.835   4.587   8.819 -0.0122  0.6588  0.8681
  136SAPE  H17R14764   1.851   4.477   8.812 -1.6535  0.4158  0.4202
  136SAPE  H17S14765   1.923   4.642   8.858 -1.8382  3.5189  1.2640
  136SAPE  C21814766   1.801   4.640   8.680 -0.7712  0.1230  0.1961
  136SAPE  H18R14767   1.803   4.749   8.698 -0.9366  0.0578  0.6310
  136SAPE  H18S14768   1.698   4.607   8.656 -0.4455 -0.4450 -0.4561
  136SAPE  C21914769   1.895   4.613   8.569 -0.3441  0.7977  0.0147
  136SAPE  H19R14770   1.992   4.665   8.579 -0.5485  0.9932  1.0888
  136SAPE  H19S14771   1.842   4.651   8.479 -0.8161  0.5207  0.1711
  136SAPE  C22014772   1.922   4.461   8.546 -0.1275 -0.2879 -0.6338
  136SAPE  H20R14773   1.983   4.438   8.456  1.5732 -2.3865  0.9257
  136SAPE  H20S14774   1.822   4.413   8.536  0.2695 -1.3693  0.3634
  136SAPE  H20T14775   1.964   4.429   8.643 -2.2823 -1.5413 -0.0426
  136SAPE   C3314776   1.902   5.667  10.144 -0.3540  0.1173  0.1471
  136SAPE   H3X14777   1.857   5.768  10.151 -1.3511 -0.3697  0.8132
  136SAPE   H3Y14778   1.822   5.591  10.153 -0.8492  0.7480  1.2723
  136SAPE   C3414779   1.988   5.652  10.016  0.2446  0.4188 -0.4064
  136SAPE   H4X14780   2.059   5.737  10.010 -0.4958  1.2943  1.8573
  136SAPE   H4Y14781   1.916   5.674   9.935  0.5089  0.2024 -0.6982
  136SAPE   C3514782   2.048   5.522   9.977 -0.1558 -0.1129 -0.4268
  136SAPE   H5X14783   1.999   5.423   9.993  1.1613 -0.3318  3.1163
  136SAPE   H5Y14784   2.143   5.517  10.034 -1.0521  1.0537  1.2431
  136SAPE   C3614785   2.097   5.533   9.833 -0.9739  0.7281  0.0751
  136SAPE   H6X14786   2.178   5.608   9.827 -1.7978  1.6042 -0.2551
  136SAPE   H6Y14787   2.022   5.582   9.768 -1.5947 -0.1032  0.1368
  136SAPE   C3714788   2.155   5.398   9.769  0.2833  0.2141  0.1857
  136SAPE   H7X14789   2.080   5.317   9.755  1.7599 -1.1784  0.0172
  136SAPE   H7Y14790   2.230   5.361   9.843  0.0132 -2.6576 -0.8379
  136SAPE   C3814791   2.213   5.426   9.634  0.1479  0.1262 -0.0972
  136SAPE   H8X14792   2.271   5.519   9.650 -0.7260  0.8287 -0.8519
  136SAPE   H8Y14793   2.131   5.441   9.560  0.0117 -0.4726 -0.0718
  136SAPE   C3914794   2.295   5.311   9.577  0.3274 -0.1831 -0.8715
  136SAPE   H9X14795   2.222   5.228   9.585 -2.3850  2.1892  0.4394
  136SAPE   H9Y14796   2.382   5.296   9.645  0.1848 -0.5350 -0.7651
  136SAPE  C31014797   2.336   5.330   9.433  0.3282  0.3558  0.0606
  136SAPE  H10X14798   2.413   5.255   9.403  0.6834  0.6438  0.2377
  136SAPE  H10Y14799   2.363   5.436   9.413 -0.7773  0.7488  0.5707
  136SAPE  C31114800   2.215   5.304   9.337 -0.5713  0.1760 -0.9081
  136SAPE  H11X14801   2.138   5.382   9.352 -0.4746 -0.2152  2.2803
  136SAPE  H11Y14802   2.166   5.207   9.360  2.1747 -1.5241 -1.7173
  136SAPE  C31214803   2.258   5.287   9.193 -0.5486  0.1729 -0.2039
  136SAPE  H12X14804   2.317   5.193   9.185  1.0075  0.9744  1.2636
  136SAPE  H12Y14805   2.320   5.367   9.148  0.5670 -0.4482  0.1822
  136SAPE  C31314806   2.135   5.268   9.107  0.5798 -0.7403 -0.0348
  136SAPE  H13X14807   2.118   5.367   9.061 -0.5472 -0.4838  0.8852
  136SAPE  H13Y14808   2.037   5.259   9.158  0.8390 -2.1974  0.2537
  136SAPE  C31414809   2.145   5.152   9.001 -0.6212 -0.0925 -0.3226
  136SAPE  H14X14810   2.180   5.059   9.051  0.2893 -0.2595 -1.2296
  136SAPE  H14Y14811   2.227   5.188   8.934 -0.6493 -0.1227 -0.3725
  136SAPE  C31514812   2.017   5.145   8.912  0.0867 -0.8016  0.5146
  136SAPE  H15X14813   2.010   5.240   8.854 -1.4304 -0.7841  0.6841
  136SAPE  H15Y14814   1.925   5.113   8.965  0.7581 -2.5919  0.6565
  136SAPE  C31614815   2.040   5.044   8.801  0.3230  0.1152  0.2742
  136SAPE  H16X14816   2.075   4.946   8.841  2.3928  0.2485 -1.0159
  136SAPE  H16Y14817   2.115   5.088   8.732 -1.1253  3.1083  0.4454
  136SAPE  C31714818   1.920   5.013   8.711  0.7387  0.0827  0.4609
  136SAPE  H17X14819   1.825   5.009   8.768 -0.3644  0.6332 -1.2742
  136SAPE  H17Y14820   1.929   4.915   8.659 -1.0444  0.6939 -1.0946
  136SAPE  C31814821   1.918   5.113   8.589 -0.0380 -0.0665 -0.3245
  136SAPE  H18X14822   1.819   5.106   8.540 -1.3925 -1.0700  2.3165
  136SAPE  H18Y14823   2.011   5.097   8.531  2.7289  2.1222  3.0302
  136SAPE  H18Z14824   1.924   5.217   8.629  3.1775 -0.5231  0.7427
  137SAPE     N14825   5.053   2.153  11.125 -0.2597 -0.4926  0.2770
  137SAPE   HN114826   4.998   2.208  11.194  0.0814  1.8503 -1.2091
  137SAPE   HN214827   5.074   2.055  11.155  0.9927 -0.5002 -0.5627
  137SAPE   HN314828   5.143   2.204  11.115  1.4789 -3.3632  0.1587
  137SAPE   C1214829   4.969   2.153  11.000 -0.1607 -0.0703  0.3424
  137SAPE  H12A14830   4.981   2.254  10.958 -1.4797  0.6376  1.5757
  137SAPE  H12B14831   4.865   2.129  11.031 -0.1539 -2.0041 -0.9625
  137SAPE   C1114832   5.021   2.045  10.901  0.2258 -0.3259 -0.0342
  137SAPE  H11A14833   5.129   2.065  10.884  0.6428 -1.6604  0.8525
  137SAPE  H11B14834   4.963   2.060  10.808 -4.9197 -2.0621  2.4672
  137SAPE     P14835   4.869   1.836  10.934 -0.1587  0.3587  0.1735
  137SAPE   O1314836   4.896   1.699  10.979 -0.2208 -0.2889 -0.3034
  137SAPE   O1414837   4.751   1.906  10.993  0.1547  0.2034  0.0769
  137SAPE   O1214838   5.001   1.917  10.958  0.7321 -0.0457 -0.3555
  137SAPE   O1114839   4.875   1.842  10.782 -0.5909  0.7525  0.1089
  137SAPE    C114840   4.954   1.736  10.723  0.7572 -0.7737  0.6040
  137SAPE    HA14841   5.041   1.703  10.783  0.9857 -0.3820  0.4943
  137SAPE    HB14842   4.890   1.648  10.698  0.9397 -1.1036  1.2909
  137SAPE    C214843   5.013   1.797  10.595 -0.1731  0.4460  0.5704
  137SAPE    HS14844   5.057   1.894  10.626 -2.3771  2.0914 -1.1593
  137SAPE   O2114845   4.908   1.818  10.501 -0.2799  0.6881  0.7632
  137SAPE   C2114846   4.946   1.902  10.399  0.6637  0.0718 -0.3652
  137SAPE   O2214847   5.052   1.955  10.389 -0.2470  0.4583  0.1116
  137SAPE   C2214848   4.835   1.933  10.289  0.6851  0.5893 -0.0599
  137SAPE   H2R14849   4.751   1.861  10.296  1.6073 -0.4037  1.3461
  137SAPE   H2S14850   4.790   2.031  10.316  0.7956  0.0591  2.2678
  137SAPE    C314851   5.126   1.714  10.530 -0.7719 -0.6456  0.2219
  137SAPE    HX14852   5.207   1.705  10.606 -0.1409  2.1265  0.0017
  137SAPE    HY14853   5.177   1.765  10.446 -1.0004 -2.0643 -0.8097
  137SAPE   O3114854   5.077   1.585  10.483 -0.8838 -0.0635 -0.4421
  137SAPE   C3114855   5.188   1.513  10.444  0.9181  0.0450  1.0956
  137SAPE   O3214856   5.303   1.555  10.420  0.0249  0.0030  0.2323
  137SAPE   C3214857   5.146   1.369  10.420  0.2358  0.2029  1.0667
  137SAPE   H2X14858   5.037   1.354  10.436  0.4408 -1.3554  1.2016
  137SAPE   H2Y14859   5.197   1.311  10.500 -1.2661  0.4583  2.2521
  137SAPE   C2314860   4.888   1.939  10.148  0.3693 -0.1728  0.1412
  137SAPE   H3R14861   4.997   1.961  10.151  0.0337  1.8260 -0.6454
  137SAPE   H3S14862   4.844   2.024  10.091  1.2749 -0.5027 -1.1006
  137SAPE   C2414863   4.860   1.824  10.053 -0.6234 -0.8168 -0.0306
  137SAPE   H4R14864   4.750   1.814  10.043 -0.9771  1.4977  0.9407
  137SAPE   H4S14865   4.906   1.732  10.094  2.2078 -0.8031 -2.8073
  137SAPE   C2514866   4.922   1.839   9.920 -0.6014  0.0517 -0.1358
  137SAPE   H5R14867   4.868   1.911   9.857  1.2495  0.8287 -0.9296
  137SAPE   C2614868   5.035   1.781   9.870 -0.0553 -0.5049 -0.5318
  137SAPE   H6R14869   5.074   1.816   9.773 -0.1509 -1.6467 -0.9898
  137SAPE   C2714870   5.121   1.696   9.959 -0.7680  0.1710  0.1513
  137SAPE   H7R14871   5.046   1.622   9.997  0.3546 -1.2818 -0.3664
  137SAPE   H7S14872   5.159   1.756  10.044 -1.3896 -1.6918  1.8517
  137SAPE   C2814873   5.239   1.623   9.898  0.1983  0.3879  0.0943
  137SAPE   H8R14874   5.229   1.521   9.859  0.2783  1.0691 -1.7926
  137SAPE   C2914875   5.352   1.688   9.860 -0.0043 -0.4838  0.1577
  137SAPE   H9R14876   5.436   1.622   9.833  0.3507 -0.2527  0.6789
  137SAPE  C21014877   5.374   1.837   9.878 -0.2585 -0.2090  0.1458
  137SAPE  H10R14878   5.355   1.873   9.981  0.1623 -0.9306  0.4863
  137SAPE  H10S14879   5.308   1.891   9.806 -0.2988  0.6996  0.8554
  137SAPE  C21114880   5.517   1.866   9.837  0.5022  0.0955 -0.2417
  137SAPE  H11R14881   5.585   1.890   9.919  0.4678  0.7598 -0.4007
  137SAPE  C21214882   5.568   1.878   9.716  0.1914  0.8902 -0.1489
  137SAPE  H12R14883   5.675   1.901   9.710 -0.3129  3.0173 -2.6983
  137SAPE  C21314884   5.496   1.865   9.581 -0.4486 -0.1883  0.2821
  137SAPE  H13R14885   5.385   1.859   9.579 -0.6234  1.9902 -1.8791
  137SAPE  H13S14886   5.524   1.765   9.541  0.0594  0.2558 -0.5122
  137SAPE  C21414887   5.541   1.973   9.485 -0.2740  1.0764  0.1137
  137SAPE  H14R14888   5.479   2.063   9.485 -1.1270  0.5079 -0.9543
  137SAPE  C21514889   5.625   1.963   9.387 -0.6419  0.7396 -0.0250
  137SAPE  H15R14890   5.640   2.051   9.323  1.2266  1.4165  1.2671
  137SAPE  C21614891   5.707   1.844   9.354  0.2112 -0.3500 -0.0174
  137SAPE  H16R14892   5.669   1.753   9.403  2.6869 -1.9244 -0.8575
  137SAPE  H16S14893   5.812   1.839   9.390 -0.1356 -0.9891  0.9107
  137SAPE  C21714894   5.690   1.801   9.207 -0.2956  0.3093  0.2310
  137SAPE  H17R14895   5.587   1.777   9.174 -0.3111  1.1058 -0.3333
  137SAPE  H17S14896   5.759   1.719   9.177 -0.7164 -0.2727  0.8367
  137SAPE  C21814897   5.740   1.907   9.105 -0.5853 -0.2734 -0.0517
  137SAPE  H18R14898   5.824   1.968   9.147  0.0527 -0.6848 -0.7075
  137SAPE  H18S14899   5.659   1.982   9.100  0.0865  0.4961  0.2295
  137SAPE  C21914900   5.784   1.866   8.967  0.2466  0.1014  0.0653
  137SAPE  H19R14901   5.856   1.781   8.964 -2.1896 -2.0844 -2.4071
  137SAPE  H19S14902   5.839   1.952   8.924  0.2118 -0.8527 -2.0316
  137SAPE  C22014903   5.673   1.841   8.871 -0.9954 -0.6059 -0.8972
  137SAPE  H20R14904   5.590   1.798   8.931 -0.5139 -1.5559 -0.9030
  137SAPE  H20S14905   5.683   1.754   8.804 -1.4615 -1.4615  0.1112
  137SAPE  H20T14906   5.643   1.939   8.827  2.4580  1.0975  0.1704
  137SAPE   C3314907   5.170   1.332  10.274  0.2397  0.7282  0.5941
  137SAPE   H3X14908   5.152   1.224  10.254  0.6470  0.7609  0.0283
  137SAPE   H3Y14909   5.278   1.346  10.255  0.2052 -1.5753 -1.9862
  137SAPE   C3414910   5.081   1.403  10.171 -0.1347 -0.1181 -1.0199
  137SAPE   H4X14911   5.109   1.510  10.173  0.9037 -0.3902 -0.1687
  137SAPE   H4Y14912   4.974   1.406  10.200  0.8262  0.5027  3.0868
  137SAPE   C3514913   5.087   1.342  10.034 -0.6244  0.7505  0.3477
  137SAPE   H5X14914   5.185   1.322   9.985 -0.4998  2.0592  0.0270
  137SAPE   H5Y14915   5.042   1.421   9.971 -0.5110  0.3489 -0.2504
  137SAPE   C3614916   4.993   1.219  10.020 -0.0892 -0.0866  0.4157
  137SAPE   H6X14917   4.892   1.246  10.057 -1.4168 -3.0571 -0.6974
  137SAPE   H6Y14918   5.033   1.140  10.088  2.6634  0.7599 -0.1080
  137SAPE   C3714919   4.981   1.190   9.866 -0.3484  0.2581 -0.3534
  137SAPE   H7X14920   5.074   1.139   9.832 -0.9316 -1.1647  0.1371
  137SAPE   H7Y14921   4.973   1.282   9.803 -2.4114  1.5034  1.5764
  137SAPE   C3814922   4.863   1.101   9.841 -0.0219  0.5734  0.1166
  137SAPE   H8X14923   4.760   1.137   9.861 -0.9476 -1.5518 -0.4807
  137SAPE   H8Y14924   4.884   1.013   9.906  2.7336  0.7915 -0.3405
  137SAPE   C3914925   4.856   1.056   9.695  0.0373  0.1414 -0.1014
  137SAPE   H9X14926   4.776   0.984   9.668  1.8505 -1.6806 -0.8824
  137SAPE   H9Y14927   4.948   1.006   9.659 -1.2543 -1.5164 -1.2559
  137SAPE  C31014928   4.810   1.161   9.598 -0.3645 -0.6929  0.5475
  137SAPE  H10X14929   4.883   1.243   9.583 -0.1387 -0.9215  0.3938
  137SAPE  H10Y14930   4.710   1.197   9.632 -0.0729  0.1804  0.5080
  137SAPE  C31114931   4.796   1.107   9.455 -0.4360  0.6765 -0.4973
  137SAPE  H11X14932   4.727   1.020   9.458  0.7499 -0.2501  0.1911
  137SAPE  H11Y14933   4.893   1.073   9.414 -1.5543 -0.0261 -2.7582
  137SAPE  C31214934   4.757   1.204   9.344 -0.1432  0.5274 -0.2778
  137SAPE  H12X14935   4.850   1.264   9.329  0.9471  0.0374  3.5648
  137SAPE  H12Y14936   4.671   1.265   9.381  0.3827  0.4138  1.1915
  137SAPE  C31314937   4.716   1.138   9.206 -0.7281  0.0808 -0.3314
  137SAPE  H13X14938   4.694   1.230   9.147  1.4821 -0.2479 -1.8024
  137SAPE  H13Y14939   4.628   1.072   9.218 -1.7873  1.1255 -1.8781
  137SAPE  C31414940   4.843   1.060   9.151  0.5124 -0.2706  1.0049
  137SAPE  H14X14941   4.869   0.970   9.211  6.1178  1.6917  2.1129
  137SAPE  H14Y14942   4.933   1.123   9.140 -1.2828  2.1664 -0.9019
  137SAPE  C31514943   4.812   1.019   9.005  0.6373  0.2215 -0.1925
  137SAPE  H15X14944   4.787   1.105   8.940  0.5668  1.0463  0.9116
  137SAPE  H15Y14945   4.731   0.944   8.996  1.6570 -0.9544  0.0499
  137SAPE  C31614946   4.939   0.962   8.944  0.1318  0.5070  0.0507
  137SAPE  H16X14947   4.983   0.884   9.011 -1.3049  2.2125  3.2012
  137SAPE  H16Y14948   5.010   1.047   8.932 -1.1789  1.5792 -0.3004
  137SAPE  C31714949   4.925   0.918   8.804  0.5339  0.1073  0.0745
  137SAPE  H17X14950   4.875   0.997   8.744  0.5678 -0.8570 -1.2673
  137SAPE  H17Y14951   4.863   0.827   8.819  1.7480 -0.9072 -0.8852
  137SAPE  C31814952   5.056   0.865   8.743 -0.7393 -0.7056 -0.0778
  137SAPE  H18X14953   5.088   0.787   8.815 -0.7669  2.0093  3.1352
  137SAPE  H18Y14954   5.132   0.946   8.740 -0.6904 -0.7506 -0.0371
  137SAPE  H18Z14955   5.050   0.831   8.638 -1.4975  2.1627 -1.0636
  138SAPE     N14956   2.387   5.057  10.859  0.2757  0.5540  0.0750
  138SAPE   HN114957   2.456   4.998  10.910  1.1571  1.3136 -0.2187
  138SAPE   HN214958   2.289   5.025  10.877  0.5676 -0.7796 -0.5319
  138SAPE   HN314959   2.402   5.025  10.761 -0.8118 -0.9831  0.3660
  138SAPE   C1214960   2.408   5.208  10.866 -0.4383 -0.8170  0.4199
  138SAPE  H12A14961   2.471   5.226  10.956  3.1737 -1.7679 -1.7083
  138SAPE  H12B14962   2.314   5.266  10.878 -0.8783 -1.7093  1.5242
  138SAPE   C1114963   2.493   5.271  10.753 -0.1987  0.1599  0.2864
  138SAPE  H11A14964   2.462   5.220  10.659  0.0810  0.6653 -0.0866
  138SAPE  H11B14965   2.593   5.234  10.783 -0.4243  1.2435  2.5839
  138SAPE     P14966   2.559   5.497  10.641  0.1655  0.0357 -0.2672
  138SAPE   O1314967   2.467   5.510  10.524 -0.4733  0.6292 -0.0845
  138SAPE   O1414968   2.601   5.629  10.697 -0.0042 -0.1263  0.1452
  138SAPE   O1214969   2.494   5.418  10.761  0.5453 -0.2966  0.3444
  138SAPE   O1114970   2.680   5.409  10.602 -0.2395  0.3635  0.3634
  138SAPE    C114971   2.797   5.404  10.684  0.1113 -0.0433  0.5904
  138SAPE    HA14972   2.776   5.409  10.793 -0.4882  0.0576  0.4726
  138SAPE    HB14973   2.848   5.308  10.662  1.1430  0.4149  0.8908
  138SAPE    C214974   2.893   5.518  10.648  0.6139 -0.5590 -0.1014
  138SAPE    HS14975   2.842   5.614  10.669  0.1586 -0.3710 -1.9494
  138SAPE   O2114976   2.950   5.504  10.517 -0.0780 -0.5189 -0.2730
  138SAPE   C2114977   2.904   5.574  10.413 -0.0351 -0.1505  0.3638
  138SAPE   O2214978   2.817   5.659  10.412  0.1165  0.0561  0.0194
  138SAPE   C2214979   2.986   5.534  10.286  0.3562 -0.4489 -0.8877
  138SAPE   H2R14980   3.091   5.553  10.318  0.6399 -2.3137 -0.6388
  138SAPE   H2S14981   2.964   5.426  10.280 -0.3825 -0.5364  2.0591
  138SAPE    C314982   3.018   5.520  10.745 -0.0097  0.2632 -0.3551
  138SAPE    HX14983   2.972   5.552  10.841  0.3002 -0.8064  0.1685
  138SAPE    HY14984   3.091   5.598  10.714 -1.9235  1.8960 -0.9845
  138SAPE   O3114985   3.067   5.382  10.759 -0.0868  0.4016  0.3043
  138SAPE   C3114986   3.185   5.359  10.714  0.2639 -0.2317 -0.5431
  138SAPE   O3214987   3.277   5.431  10.683  0.3409  0.2809 -0.2887
  138SAPE   C3214988   3.193   5.204  10.698 -0.3388 -0.1511 -0.1116
  138SAPE   H2X14989   3.101   5.155  10.735  0.3429 -1.0303  0.4350
  138SAPE   H2Y14990   3.280   5.189  10.765 -1.5824  0.4737  1.7245
  138SAPE   C2314991   2.952   5.622  10.164 -0.7240 -0.4327  0.0980
  138SAPE   H3R14992   2.850   5.665  10.156 -1.2251 -1.3356  1.2184
  138SAPE   H3S14993   2.973   5.568  10.069  1.6037 -2.7522  1.7694
  138SAPE   C2414994   3.040   5.755  10.164  0.4956  0.8862 -0.0074
  138SAPE   H4R14995   3.024   5.809  10.068  0.1980  0.8783  0.0375
  138SAPE   H4S14996   3.147   5.724  10.165 -0.0316 -1.0347  0.3365
  138SAPE   C2514997   3.012   5.851  10.278  0.1822  0.0985 -0.1517
  138SAPE   H5R14998   2.915   5.854  10.330  1.8695  0.4978  3.2532
  138SAPE   C2614999   3.105   5.935  10.330  0.2198  1.0448  0.9033
  138SAPE   H6R15000   3.076   5.990  10.421 -1.8606 -0.2727  1.0926
  138SAPE   C2715001   3.243   5.960  10.277 -0.2527  0.3903 -0.4872
  138SAPE   H7R15002   3.266   5.911  10.180  1.3831  0.2772 -0.0840
  138SAPE   H7S15003   3.299   5.905  10.356 -0.2706 -1.6853 -1.8434
  138SAPE   C2815004   3.269   6.107  10.290 -0.1575  0.1092 -0.5023
  138SAPE   H8R15005   3.316   6.143  10.383  0.0163 -1.5324  0.0760
  138SAPE   C2915006   3.226   6.209  10.211  0.4607  0.2999  0.1779
  138SAPE   H9R15007   3.261   6.309  10.240 -0.4806  0.3212  1.3177
  138SAPE  C21015008   3.146   6.196  10.083  0.0807 -0.1400 -0.3339
  138SAPE  H10R15009   3.179   6.108  10.024 -2.6684 -0.1704 -2.0016
  138SAPE  H10S15010   3.167   6.281  10.016  1.5158 -1.9857 -2.3673
  138SAPE  C21115011   2.994   6.180  10.104  0.4550 -0.1517  0.0037
  138SAPE  H11R15012   2.970   6.197  10.210 -0.1439  2.2933 -0.4457
  138SAPE  C21215013   2.896   6.160  10.012  0.0512  0.6940 -0.4656
  138SAPE  H12R15014   2.795   6.160  10.054  0.3245  2.2929  0.2803
  138SAPE  C21315015   2.899   6.149   9.858  0.1457 -0.5147 -0.5330
  138SAPE  H13R15016   2.895   6.039   9.840  0.5315 -0.7391  0.6597
  138SAPE  H13S15017   2.990   6.205   9.827  0.2787 -0.6575 -0.3986
  138SAPE  C21415018   2.782   6.208   9.788  0.0458  0.1248 -0.8759
  138SAPE  H14R15019   2.700   6.244   9.852 -0.5752 -2.3903 -0.1543
  138SAPE  C21515020   2.781   6.223   9.657  0.0016  0.3818  0.1578
  138SAPE  H15R15021   2.694   6.277   9.617 -0.6841 -0.7396  0.0902
  138SAPE  C21615022   2.897   6.184   9.564 -0.0219  0.4565  0.1488
  138SAPE  H16R15023   2.866   6.126   9.474  0.5488  1.4273 -0.6922
  138SAPE  H16S15024   2.974   6.127   9.620  0.8199  1.8335  0.4355
  138SAPE  C21715025   2.979   6.306   9.520 -0.0584  0.1471  0.0044
  138SAPE  H17R15026   3.073   6.268   9.475  0.7371 -0.5975  2.1946
  138SAPE  H17S15027   3.025   6.363   9.604  2.3444 -1.6474 -0.0035
  138SAPE  C21815028   2.908   6.411   9.436 -0.3952 -0.0752  0.7277
  138SAPE  H18R15029   2.869   6.477   9.517  2.3479  3.3835 -0.4965
  138SAPE  H18S15030   2.831   6.353   9.382  2.8085 -1.2073 -3.1108
  138SAPE  C21915031   2.995   6.505   9.355  0.0637  0.2205  0.7094
  138SAPE  H19R15032   3.049   6.450   9.276  2.5122 -0.2926  2.6154
  138SAPE  H19S15033   3.069   6.550   9.424  0.7138 -1.2733  1.0042
  138SAPE  C22015034   2.904   6.611   9.282  0.4266 -0.1871 -0.2529
  138SAPE  H20R15035   2.960   6.695   9.238 -0.7510 -0.7087 -2.9533
  138SAPE  H20S15036   2.829   6.656   9.351 -0.9766 -2.1592 -0.3837
  138SAPE  H20T15037   2.851   6.559   9.199  1.7835  2.0862 -2.6829
  138SAPE   C3315038   3.232   5.144  10.562  0.2500 -0.5704 -0.4903
  138SAPE   H3X15039   3.228   5.033  10.567  0.5747 -0.5768 -0.3752
  138SAPE   H3Y15040   3.336   5.176  10.539  0.4661 -0.3360  0.7664
  138SAPE   C3415041   3.146   5.197  10.446  0.0310 -0.2173 -0.1348
  138SAPE   H4X15042   3.155   5.305  10.422  1.3648 -0.8602 -2.8574
  138SAPE   H4Y15043   3.038   5.184  10.470 -0.6199  2.5064 -1.2037
  138SAPE   C3515044   3.182   5.119  10.314 -0.1075 -0.2323  0.9238
  138SAPE   H5X15045   3.189   5.009  10.325  1.3213 -0.0767  1.7656
  138SAPE   H5Y15046   3.285   5.150  10.288 -0.0757 -0.7208  0.4575
  138SAPE   C3615047   3.106   5.159  10.182  0.1720  0.6628 -0.1311
  138SAPE   H6X15048   3.102   5.270  10.179  2.3024  0.8281  1.1691
  138SAPE   H6Y15049   2.999   5.130  10.191  0.2888  0.6918  1.8126
  138SAPE   C3715050   3.167   5.095  10.055  0.2890 -0.0588 -0.6121
  138SAPE   H7X15051   3.178   4.985  10.066 -1.2442 -0.0829  1.1328
  138SAPE   H7Y15052   3.260   5.153  10.038  0.5132 -0.6163 -1.3418
  138SAPE   C3815053   3.070   5.118   9.940  0.1277 -0.3067 -0.6461
  138SAPE   H8X15054   3.046   5.227   9.944 -1.9424 -0.7418  0.7852
  138SAPE   H8Y15055   2.968   5.079   9.962  0.4794 -2.2779 -2.2943
  138SAPE   C3915056   3.135   5.096   9.804  0.0588  0.3385  0.5715
  138SAPE   H9X15057   3.170   4.991   9.790  0.7554  0.6403 -0.0261
  138SAPE   H9Y15058   3.229   5.155   9.794 -1.8483  3.4323 -0.5125
  138SAPE  C31015059   3.032   5.112   9.685  0.1376 -0.6593  0.5809
  138SAPE  H10X15060   2.995   5.217   9.685  0.6674 -0.4486  1.9976
  138SAPE  H10Y15061   2.937   5.057   9.707 -0.1969  0.2292  1.4435
  138SAPE  C31115062   3.092   5.069   9.550 -0.7161  0.1799  0.2133
  138SAPE  H11X15063   3.126   4.964   9.563 -1.0172  0.2337  1.5153
  138SAPE  H11Y15064   3.181   5.130   9.523  0.1501 -1.9572 -2.3016
  138SAPE  C31215065   2.993   5.088   9.428  0.2314 -0.2573 -0.7667
  138SAPE  H12X15066   2.936   5.182   9.445  1.9046  0.6051  0.4083
  138SAPE  H12Y15067   2.924   5.001   9.428  3.1130 -2.6844 -0.0165
  138SAPE  C31315068   3.071   5.100   9.301 -0.5777 -0.2543 -0.1766
  138SAPE  H13X15069   3.158   5.031   9.307  0.3069  0.7748 -0.8646
  138SAPE  H13Y15070   3.122   5.197   9.287  0.2462 -0.3865  1.6600
  138SAPE  C31415071   2.981   5.090   9.180 -0.2915 -0.0120  0.5255
  138SAPE  H14X15072   2.899   5.159   9.207 -0.5565  0.7110 -1.9507
  138SAPE  H14Y15073   2.941   4.986   9.177 -1.7194  0.5302  0.2349
  138SAPE  C31515074   3.038   5.125   9.041  0.3822  0.1704 -0.1475
  138SAPE  H15X15075   3.124   5.058   9.021 -0.4064 -0.4183 -1.6989
  138SAPE  H15Y15076   3.059   5.234   9.031  1.6400 -0.0215  0.1532
  138SAPE  C31615077   2.937   5.098   8.931 -0.4761  0.2611 -0.1521
  138SAPE  H16X15078   2.839   5.141   8.961 -1.4367 -0.7367 -1.7439
  138SAPE  H16Y15079   2.918   4.989   8.934 -0.8258  0.3349  0.9085
  138SAPE  C31715080   2.981   5.150   8.790 -0.5235 -0.5598  0.3890
  138SAPE  H17X15081   3.007   5.257   8.792 -1.3435 -0.3485  0.1666
  138SAPE  H17Y15082   2.894   5.157   8.722 -0.3857 -2.2752 -0.0156
  138SAPE  C31815083   3.099   5.071   8.720 -0.1020 -0.0408  0.5769
  138SAPE  H18X15084   3.066   4.965   8.715  0.6772 -0.2610 -0.1080
  138SAPE  H18Y15085   3.179   5.070   8.797  1.2841  0.3622 -0.8242
  138SAPE  H18Z15086   3.140   5.112   8.625 -0.5944  0.6633  0.6619
  139SAPE     N15087   0.188   3.487  10.892 -0.3527 -0.0235 -0.1751
  139SAPE   HN115088   0.269   3.437  10.849  0.2134  1.5430 -1.0189
  139SAPE   HN215089   0.200   3.507  10.994  0.4568 -0.3312 -0.1999
  139SAPE   HN315090   0.101   3.431  10.889 -0.0676 -0.4483 -0.7855
  139SAPE   C1215091   0.179   3.618  10.824 -0.1410 -0.2698  0.4881
  139SAPE  H12A15092   0.109   3.690  10.872  0.7407  1.5435 -0.8700
  139SAPE  H12B15093   0.133   3.594  10.726  0.5349 -0.2706  0.1710
  139SAPE   C1115094   0.320   3.679  10.799  0.0255  0.4833 -0.5081
  139SAPE  H11A15095   0.304   3.787  10.780 -0.8411  0.3061 -0.8156
  139SAPE  H11B15096   0.371   3.626  10.716 -2.0668  1.1915 -2.3339
  139SAPE     P15097   0.511   3.770  10.951 -0.5513 -0.0245  0.0409
  139SAPE   O1315098   0.450   3.887  11.021  0.3161  0.2770 -0.1442
  139SAPE   O1415099   0.608   3.694  11.029  0.2365 -0.4066 -0.2184
  139SAPE   O1215100   0.391   3.668  10.921  0.1398  0.4043  0.1908
  139SAPE   O1115101   0.576   3.820  10.819  0.2517  0.0471 -0.2199
  139SAPE    C115102   0.650   3.725  10.744  0.0033  0.5953  0.5051
  139SAPE    HA15103   0.753   3.716  10.786 -0.2084 -0.9765  0.7592
  139SAPE    HB15104   0.608   3.622  10.739  1.4152  0.0499 -1.1989
  139SAPE    C215105   0.679   3.770  10.599  0.0031  0.0319 -0.1014
  139SAPE    HS15106   0.700   3.879  10.596  0.7512 -0.1311 -1.2458
  139SAPE   O2115107   0.570   3.731  10.510  0.8642  0.1651  0.3376
  139SAPE   C2115108   0.479   3.823  10.474 -0.4033  0.2226  0.4056
  139SAPE   O2215109   0.473   3.932  10.526 -0.0281 -0.0523 -0.8231
  139SAPE   C2215110   0.398   3.764  10.366 -0.2202 -0.0990  0.2248
  139SAPE   H2R15111   0.471   3.710  10.303  0.6933  0.3882  0.8443
  139SAPE   H2S15112   0.323   3.692  10.408 -1.4403  0.3527 -1.0707
  139SAPE    C315113   0.812   3.715  10.538  0.6457  0.2643 -0.2208
  139SAPE    HX15114   0.793   3.606  10.547 -2.9899  0.9395  2.6357
  139SAPE    HY15115   0.894   3.754  10.603 -0.6100 -0.6436  2.0142
  139SAPE   O3115116   0.821   3.745  10.398  0.0026  0.2793  0.0477
  139SAPE   C3115117   0.920   3.825  10.356 -0.1740 -0.4681 -0.6516
  139SAPE   O3215118   1.000   3.884  10.424 -0.4677 -0.0114  0.1080
  139SAPE   C3215119   0.908   3.831  10.204  0.4255  0.6272  0.3943
  139SAPE   H2X15120   0.832   3.911  10.196 -0.5384 -0.2720  0.3104
  139SAPE   H2Y15121   0.854   3.745  10.160  1.1890  0.4456 -0.2267
  139SAPE   C2315122   0.318   3.872  10.287  0.4671 -0.7311  0.4181
  139SAPE   H3R15123   0.397   3.944  10.258 -1.3216  1.8533  1.5473
  139SAPE   H3S15124   0.245   3.910  10.362  0.3282 -2.5324  1.2481
  139SAPE   C2415125   0.235   3.804  10.171  0.1166  0.1360 -0.2385
  139SAPE   H4R15126   0.297   3.758  10.091  0.0818  2.4487 -1.6874
  139SAPE   H4S15127   0.188   3.891  10.121  0.1025  0.9479  1.1279
  139SAPE   C2515128   0.129   3.711  10.224  0.0576 -0.0818 -0.6336
  139SAPE   H5R15129   0.066   3.760  10.300  3.0529  2.0022  0.7225
  139SAPE   C2615130   0.130   3.577  10.213 -0.1667 -0.3613 -0.1910
  139SAPE   H6R15131   0.066   3.514  10.278 -1.3859 -1.3457 -2.2351
  139SAPE   C2715132   0.229   3.498  10.127 -0.1155 -0.5847  0.3889
  139SAPE   H7R15133   0.318   3.473  10.189  1.2711  1.0785 -0.8264
  139SAPE   H7S15134   0.277   3.560  10.048  1.2313 -0.9632  0.8728
  139SAPE   C2815135   0.176   3.377  10.059  0.3740 -0.1376 -0.2921
  139SAPE   H8R15136   0.117   3.315  10.129 -3.3055  0.6466 -2.4245
  139SAPE   C2915137   0.184   3.348   9.930 -0.7384 -0.1381 -0.5665
  139SAPE   H9R15138   0.164   3.243   9.902  0.2552 -0.0761 -1.5914
  139SAPE  C21015139   0.256   3.436   9.831 -0.3097  0.0929  0.3456
  139SAPE  H10R15140   0.298   3.372   9.751  0.1306 -0.6116  1.1211
  139SAPE  H10S15141   0.345   3.487   9.875  0.1264  1.0718 -1.5917
  139SAPE  C21115142   0.153   3.536   9.784  0.0878  0.1389 -0.7706
  139SAPE  H11R15143   0.103   3.590   9.865 -1.3345 -0.1971 -1.3807
  139SAPE  C21215144   0.109   3.558   9.657 -0.4740 -0.9137  0.3323
  139SAPE  H12R15145   0.039   3.641   9.640 -1.2460 -1.4467  0.8877
  139SAPE  C21315146   0.167   3.485   9.536 -0.8522 -0.1508  0.9196
  139SAPE  H13R15147   0.275   3.466   9.550 -0.4743 -0.1393 -1.5584
  139SAPE  H13S15148   0.153   3.559   9.455 -2.0419 -0.2904  0.9842
  139SAPE  C21415149   0.106   3.354   9.493 -0.3626  0.0102  0.5047
  139SAPE  H14R15150   0.089   3.280   9.572  2.2299 -2.6976 -1.2513
  139SAPE  C21515151   0.082   3.312   9.364 -0.0470  0.2630  0.8150
  139SAPE  H15R15152   0.035   3.215   9.343 -0.0810  0.4898 -0.2390
  139SAPE  C21615153   0.105   3.386   9.238 -0.0636  0.2088  0.7886
  139SAPE  H16R15154   0.135   3.325   9.151 -1.6293 -0.4899  0.6997
  139SAPE  H16S15155   0.195   3.449   9.249  0.2132  0.3367 -1.6481
  139SAPE  C21715156  -0.015   3.473   9.206 -0.1302  0.4079  0.2252
  139SAPE  H17R15157  -0.063   3.507   9.301  3.2675  2.3188  1.4255
  139SAPE  H17S15158  -0.092   3.415   9.152 -1.4083  2.5035 -0.3466
  139SAPE  C21815159   0.024   3.598   9.135 -0.8757  0.8506 -0.0794
  139SAPE  H18R15160   0.107   3.651   9.187  0.8820  0.9151 -2.7038
  139SAPE  H18S15161  -0.058   3.671   9.117 -0.3563  1.1547 -1.3546
  139SAPE  C21915162   0.071   3.569   8.994 -0.6573 -0.0514  0.3890
  139SAPE  H19R15163   0.008   3.495   8.940 -0.3095 -0.0061 -0.0829
  139SAPE  H19S15164   0.167   3.514   8.993 -1.0329 -0.7607 -1.2850
  139SAPE  C22015165   0.070   3.692   8.900  0.9928  0.4317 -0.0655
  139SAPE  H20R15166   0.133   3.692   8.809  0.2410 -0.4542 -0.6094
  139SAPE  H20S15167   0.080   3.781   8.966  1.5572  0.1453  0.2422
  139SAPE  H20T15168  -0.034   3.705   8.862  0.2679  0.3191  1.7364
  139SAPE   C3315169   1.040   3.865  10.132 -0.9315 -0.0118  0.0194
  139SAPE   H3X15170   1.109   3.779  10.147 -0.1469  0.6570  0.2889
  139SAPE   H3Y15171   1.094   3.950  10.177 -0.1935 -0.8650  0.7978
  139SAPE   C3415172   1.021   3.906   9.986  0.2871 -0.7728 -0.1296
  139SAPE   H4X15173   0.944   3.986   9.981  1.4967  0.4106 -0.4867
  139SAPE   H4Y15174   0.982   3.815   9.936  0.5943 -0.6839 -0.5420
  139SAPE   C3515175   1.146   3.965   9.912 -0.2105 -0.6600 -0.5271
  139SAPE   H5X15176   1.178   4.060   9.959  0.6424 -0.9654 -0.4889
  139SAPE   H5Y15177   1.129   3.997   9.807 -0.1803 -1.3176 -0.7351
  139SAPE   C3615178   1.268   3.866   9.907 -1.3910  0.2809 -0.3060
  139SAPE   H6X15179   1.220   3.766   9.910  0.5297 -0.6853 -0.3492
  139SAPE   H6Y15180   1.334   3.871   9.996 -1.3206  0.0232 -0.3427
  139SAPE   C3715181   1.352   3.877   9.772 -0.6101  0.5146 -0.0573
  139SAPE   H7X15182   1.444   3.820   9.799  0.1255  0.6566 -2.0982
  139SAPE   H7Y15183   1.388   3.980   9.756  2.9318 -0.2935  1.7626
  139SAPE   C3815184   1.292   3.808   9.655  0.5071 -0.4291  0.1870
  139SAPE   H8X15185   1.196   3.859   9.634  1.3185  1.8147  1.5665
  139SAPE   H8Y15186   1.265   3.704   9.683 -0.1262 -0.3887 -0.2533
  139SAPE   C3915187   1.382   3.799   9.537  0.2992  0.0872  0.2473
  139SAPE   H9X15188   1.342   3.733   9.457  2.7200 -3.2719  1.5445
  139SAPE   H9Y15189   1.473   3.753   9.583  0.0870 -0.5706  0.0150
  139SAPE  C31015190   1.416   3.935   9.469  0.1620  0.7251 -0.1454
  139SAPE  H10X15191   1.443   4.019   9.537  1.3046  0.8636 -0.7536
  139SAPE  H10Y15192   1.311   3.962   9.445 -0.9965 -0.5707  2.9159
  139SAPE  C31115193   1.508   3.928   9.343  0.4532  0.4194  0.0783
  139SAPE  H11X15194   1.520   3.823   9.307  1.9666  0.2400  1.0380
  139SAPE  H11Y15195   1.616   3.951   9.348  1.6912 -4.0028 -1.3784
  139SAPE  C31215196   1.451   4.017   9.234 -0.4660 -0.0168  0.5542
  139SAPE  H12X15197   1.433   4.123   9.260 -0.9139 -0.5641  2.6488
  139SAPE  H12Y15198   1.350   3.985   9.199 -0.1651 -0.5338  0.1502
  139SAPE  C31315199   1.539   4.002   9.103 -0.4164 -0.6150  0.2058
  139SAPE  H13X15200   1.523   3.899   9.063  0.2584 -1.0344  0.9871
  139SAPE  H13Y15201   1.648   4.010   9.124  0.4372 -2.0453 -2.9099
  139SAPE  C31415202   1.500   4.106   8.994  0.0148 -0.5464  0.6026
  139SAPE  H14X15203   1.541   4.206   9.020 -0.8380  0.6366 -2.2026
  139SAPE  H14Y15204   1.390   4.120   9.003  0.0576 -0.7006  1.5063
  139SAPE  C31515205   1.538   4.076   8.847 -0.0668 -0.1818  0.4557
  139SAPE  H15X15206   1.502   3.978   8.808 -2.3455  0.1851  1.5036
  139SAPE  H15Y15207   1.648   4.072   8.833 -0.1325  1.1136 -0.6078
  139SAPE  C31615208   1.480   4.179   8.750  0.1093  0.1913  0.0517
  139SAPE  H16X15209   1.373   4.153   8.730  0.4172 -0.3830 -0.9179
  139SAPE  H16Y15210   1.479   4.279   8.800  1.8647  0.4344 -0.3361
  139SAPE  C31715211   1.558   4.179   8.625  0.0366  0.6640  0.2038
  139SAPE  H17X15212   1.534   4.085   8.569  0.9537  1.5218 -1.7052
  139SAPE  H17Y15213   1.662   4.182   8.663 -0.0802  0.4285  0.5536
  139SAPE  C31815214   1.527   4.301   8.542 -0.3176 -0.1153 -0.2986
  139SAPE  H18X15215   1.529   4.398   8.598 -1.6724 -0.7729  0.9542
  139SAPE  H18Y15216   1.422   4.292   8.507 -1.0697 -0.0691  1.7633
  139SAPE  H18Z15217   1.607   4.306   8.466  1.1570  2.3921  1.2484
  140SAPE     N15218   0.276   2.878  10.747 -0.2179 -0.4994  0.2835
  140SAPE   HN115219   0.233   2.871  10.653 -0.1870 -0.7196  0.2859
  140SAPE   HN215220   0.352   2.949  10.751 -0.8163  0.2213 -0.8871
  140SAPE   HN315221   0.323   2.787  10.766 -0.3529 -0.3838  1.2591
  140SAPE   C1215222   0.187   2.920  10.861 -0.2701 -0.1281  0.9551
  140SAPE  H12A15223   0.252   2.945  10.948  3.9510 -1.8231 -1.4030
  140SAPE  H12B15224   0.117   2.839  10.888  1.9730 -2.6716 -0.3400
  140SAPE   C1115225   0.104   3.049  10.826  0.0428 -0.0245  0.0278
  140SAPE  H11A15226   0.065   3.027  10.724  0.7389  0.5112 -0.3612
  140SAPE  H11B15227   0.187   3.122  10.832 -1.6593  1.8910  1.5598
  140SAPE     P15228  -0.085   3.196  10.902 -0.2734 -0.4040  0.4938
  140SAPE   O1315229  -0.210   3.178  10.974  0.5651  0.3638 -0.0777
  140SAPE   O1415230  -0.007   3.315  10.936  0.4695  0.1811  0.0585
  140SAPE   O1215231   0.009   3.070  10.932 -0.4619 -0.4956  0.4700
  140SAPE   O1115232  -0.112   3.183  10.751  0.4437  0.6815 -0.2397
  140SAPE    C115233  -0.189   3.084  10.686  0.1800 -0.1896  0.0063
  140SAPE    HA15234  -0.132   2.989  10.674 -0.1029 -0.3440 -0.1135
  140SAPE    HB15235  -0.278   3.051  10.744  1.0604  0.3475  1.7445
  140SAPE    C215236  -0.249   3.133  10.559 -0.3493 -0.0321  0.3696
  140SAPE    HS15237  -0.323   3.068  10.508  1.7421 -1.2982 -1.2414
  140SAPE   O2115238  -0.150   3.150  10.455  0.5074  0.5346 -0.5988
  140SAPE   C2115239  -0.133   3.037  10.383 -1.1104 -0.5262 -0.2374
  140SAPE   O2215240  -0.172   2.925  10.414 -0.0103 -0.1670 -0.2006
  140SAPE   C2215241  -0.076   3.073  10.243 -0.0226 -0.3633 -0.2887
  140SAPE   H2R15242   0.002   3.151  10.259 -0.9210  1.2597 -3.0650
  140SAPE   H2S15243  -0.024   2.981  10.209  1.3767 -0.8923  2.9595
  140SAPE    C315244  -0.321   3.270  10.593 -0.3057  0.1032  0.2845
  140SAPE    HX15245  -0.250   3.339  10.644  0.6703  0.5155 -1.5481
  140SAPE    HY15246  -0.401   3.248  10.667  0.0941 -1.4947  0.2717
  140SAPE   O3115247  -0.384   3.338  10.475  0.6181  0.5199 -0.1180
  140SAPE   C3115248  -0.296   3.409  10.401 -0.0668 -0.1527 -0.1513
  140SAPE   O3215249  -0.178   3.427  10.424 -0.1393 -0.1625  0.1781
  140SAPE   C3215250  -0.367   3.487  10.290 -0.0737  0.1777 -0.1503
  140SAPE   H2X15251  -0.439   3.550  10.347 -1.1280  0.1535 -1.4156
  140SAPE   H2Y15252  -0.427   3.411  10.235  0.2838 -1.1562  1.2205
  140SAPE   C2315253  -0.182   3.139  10.146  0.0038 -0.3362 -0.1709
  140SAPE   H3R15254  -0.124   3.210  10.082 -1.3109 -0.2210 -1.2953
  140SAPE   H3S15255  -0.262   3.191  10.203 -0.2847 -1.0240  0.0542
  140SAPE   C2415256  -0.263   3.037  10.055  0.3900 -0.1294 -0.1724
  140SAPE   H4R15257  -0.350   3.097  10.021  0.1302 -0.9662 -1.0346
  140SAPE   H4S15258  -0.319   2.963  10.115 -2.0496 -0.0245 -2.1671
  140SAPE   C2515259  -0.182   2.972   9.943  0.6796  0.1031  0.8935
  140SAPE   H5R15260  -0.101   2.908   9.982 -1.1392 -1.1005  2.9148
  140SAPE   C2615261  -0.199   2.989   9.804 -0.5125  0.4882  0.3530
  140SAPE   H6R15262  -0.129   2.943   9.732 -1.1874  0.1986 -0.1363
  140SAPE   C2715263  -0.302   3.075   9.737 -0.1577  1.2204  0.5969
  140SAPE   H7R15264  -0.269   3.176   9.704 -4.0913  2.0009 -1.5571
  140SAPE   H7S15265  -0.382   3.105   9.808 -1.1735  1.7953 -0.7487
  140SAPE   C2815266  -0.365   3.002   9.619 -0.1802 -0.2829 -0.5145
  140SAPE   H8R15267  -0.443   2.933   9.654  1.0618 -0.1540  2.9404
  140SAPE   C2915268  -0.331   3.024   9.493  0.4357 -0.0028  0.4896
  140SAPE   H9R15269  -0.390   2.975   9.415 -2.3791  0.7819  1.9954
  140SAPE  C21015270  -0.226   3.111   9.439  0.4213 -0.2023 -0.2024
  140SAPE  H10R15271  -0.130   3.094   9.492  0.1566 -1.6676 -0.1390
  140SAPE  H10S15272  -0.256   3.213   9.471 -1.7679 -1.2009  1.2225
  140SAPE  C21115273  -0.191   3.114   9.293 -0.4830  0.5097  0.9789
  140SAPE  H11R15274  -0.101   3.053   9.274 -0.6103  0.2310  1.2758
  140SAPE  C21215275  -0.260   3.174   9.202  0.1364  0.2303  0.1597
  140SAPE  H12R15276  -0.237   3.156   9.096 -1.9854 -2.6400  0.0735
  140SAPE  C21315277  -0.390   3.258   9.222 -0.6497  0.0524  0.6173
  140SAPE  H13R15278  -0.420   3.276   9.328  0.8914  1.8713  0.7897
  140SAPE  H13S15279  -0.466   3.187   9.183 -0.2054  0.3378 -0.8223
  140SAPE  C21415280  -0.394   3.385   9.140  0.3001 -0.1611 -0.2110
  140SAPE  H14R15281  -0.327   3.459   9.188 -0.1669  0.0088  0.1812
  140SAPE  C21515282  -0.443   3.392   9.015 -1.1133  0.3480  0.0489
  140SAPE  H15R15283  -0.453   3.493   8.974  2.1206  0.0546 -1.8359
  140SAPE  C21615284  -0.507   3.284   8.930  0.6348 -0.0997 -0.5989
  140SAPE  H16R15285  -0.480   3.183   8.967  0.6318 -0.3678 -1.3090
  140SAPE  H16S15286  -0.452   3.295   8.834  0.4503  0.8042 -0.6164
  140SAPE  C21715287  -0.658   3.305   8.916  0.1276  0.3724  0.0878
  140SAPE  H17R15288  -0.676   3.406   8.875 -1.0544  1.1729  2.4221
  140SAPE  H17S15289  -0.701   3.279   9.015  0.2088 -1.7280 -0.3699
  140SAPE  C21815290  -0.721   3.201   8.824 -0.1119  0.4176  0.0511
  140SAPE  H18R15291  -0.723   3.107   8.884  1.6164 -1.0268 -2.0290
  140SAPE  H18S15292  -0.668   3.182   8.729  0.8921  1.1640  0.4518
  140SAPE  C21915293  -0.868   3.246   8.824  0.9386 -0.3592  0.1181
  140SAPE  H19R15294  -0.866   3.347   8.778  1.5983 -1.2744 -1.9982
  140SAPE  H19S15295  -0.918   3.260   8.922  0.2135  0.2547 -0.3348
  140SAPE  C22015296  -0.955   3.147   8.739  0.4138 -0.9622  0.2847
  140SAPE  H20R15297  -0.907   3.145   8.639  1.8259 -0.0403  0.9057
  140SAPE  H20S15298  -1.062   3.176   8.734  0.3209 -1.0799  1.4242
  140SAPE  H20T15299  -0.957   3.048   8.788 -1.7383 -1.2745 -0.3495
  140SAPE   C3315300  -0.298   3.583  10.198  0.2760  0.4721 -0.0188
  140SAPE   H3X15301  -0.227   3.650  10.252  1.9745  0.0679 -1.6423
  140SAPE   H3Y15302  -0.372   3.656  10.162 -0.0392 -0.4235 -1.2482
  140SAPE   C3415303  -0.230   3.521  10.068 -0.9517 -0.9575 -0.1948
  140SAPE   H4X15304  -0.212   3.416  10.098  0.0411 -0.7997 -0.2061
  140SAPE   H4Y15305  -0.131   3.560  10.038 -1.0777 -1.7941 -1.7953
  140SAPE   C3515306  -0.320   3.529   9.947  1.0494 -0.7153 -0.4742
  140SAPE   H5X15307  -0.348   3.632   9.916  0.6407 -0.5898  0.2938
  140SAPE   H5Y15308  -0.413   3.473   9.971  0.9821 -0.4335 -0.0599
  140SAPE   C3615309  -0.256   3.467   9.824  0.0854 -0.0480  0.7027
  140SAPE   H6X15310  -0.225   3.361   9.836  3.4569  0.5708 -1.3428
  140SAPE   H6Y15311  -0.165   3.525   9.796 -1.6994  1.8413 -1.6291
  140SAPE   C3715312  -0.350   3.483   9.698  0.1167  0.3723  0.6005
  140SAPE   H7X15313  -0.447   3.434   9.722  0.7231 -0.4924  1.3486
  140SAPE   H7Y15314  -0.300   3.434   9.612  0.7387  0.1137  1.0993
  140SAPE   C3815315  -0.363   3.633   9.655 -0.4846 -0.1362 -0.1141
  140SAPE   H8X15316  -0.260   3.671   9.671 -0.7984  0.3003  0.9878
  140SAPE   H8Y15317  -0.424   3.693   9.726 -1.9852 -0.7723 -0.8309
  140SAPE   C3915318  -0.382   3.657   9.506 -0.0772  0.6414  0.1215
  140SAPE   H9X15319  -0.301   3.597   9.458  0.4361  1.7639 -0.4448
  140SAPE   H9Y15320  -0.378   3.764   9.479 -1.5074  0.6241 -0.2587
  140SAPE  C31015321  -0.520   3.601   9.455 -0.8169 -0.4650  0.0302
  140SAPE  H10X15322  -0.601   3.644   9.518  1.0237  2.4373  0.6049
  140SAPE  H10Y15323  -0.514   3.490   9.466  0.3181 -0.3758  0.4157
  140SAPE  C31115324  -0.552   3.642   9.313  0.4593  0.4372 -0.0099
  140SAPE  H11X15325  -0.477   3.610   9.238 -0.2736  0.5198 -0.7923
  140SAPE  H11Y15326  -0.556   3.753   9.307 -0.3371  0.4368  0.3898
  140SAPE  C31215327  -0.682   3.569   9.275  0.6718  0.5610 -0.0070
  140SAPE  H12X15328  -0.755   3.605   9.351  1.0610  0.6938  0.3063
  140SAPE  H12Y15329  -0.676   3.459   9.282 -1.1018  0.4121 -0.4650
  140SAPE  C31315330  -0.730   3.611   9.137 -0.3326  0.3481  0.1578
  140SAPE  H13X15331  -0.650   3.578   9.067 -1.1816 -1.1994 -0.1261
  140SAPE  H13Y15332  -0.735   3.722   9.131 -1.4763  0.2531 -1.0707
  140SAPE  C31415333  -0.859   3.544   9.091  0.0345 -0.8936 -0.1665
  140SAPE  H14X15334  -0.935   3.553   9.171 -1.6573 -0.1726 -1.7828
  140SAPE  H14Y15335  -0.847   3.436   9.070 -0.0031 -0.4399 -2.9360
  140SAPE  C31515336  -0.925   3.614   8.976 -0.1064 -0.1822  0.4484
  140SAPE  H15X15337  -0.854   3.620   8.891 -1.9273  1.4943 -1.0452
  140SAPE  H15Y15338  -0.947   3.720   9.001  1.2955  0.6267 -1.4202
  140SAPE  C31615339  -1.053   3.548   8.939  0.5118  0.3047  0.4016
  140SAPE  H16X15340  -1.119   3.536   9.028 -1.5870 -2.7176 -1.3557
  140SAPE  H16Y15341  -1.041   3.446   8.896  3.4603  0.9974 -0.6802
  140SAPE  C31715342  -1.133   3.633   8.840  0.4881  0.3837 -0.8770
  140SAPE  H17X15343  -1.058   3.662   8.763  1.1879 -2.3196 -1.3235
  140SAPE  H17Y15344  -1.166   3.721   8.900 -0.9777 -1.8919  1.8842
  140SAPE  C31815345  -1.253   3.564   8.777 -0.0356  0.8306 -0.0014
  140SAPE  H18X15346  -1.210   3.478   8.721 -0.2769  0.0203  1.0274
  140SAPE  H18Y15347  -1.313   3.620   8.702 -3.2976  0.1542  1.9195
  140SAPE  H18Z15348  -1.330   3.537   8.852  0.3655 -0.2973  0.0283
  141SAPE     N15349   5.816   0.578  10.792 -0.0769  0.0246 -0.3136
  141SAPE   HN115350   5.900   0.531  10.830  0.4221  0.7200 -0.5268
  141SAPE   HN215351   5.780   0.652  10.855  0.1526 -1.7508  2.0162
  141SAPE   HN315352   5.748   0.503  10.769  0.3614 -0.2830 -0.6227
  141SAPE   C1215353   5.855   0.652  10.663  0.1988  0.0114 -0.6506
  141SAPE  H12A15354   5.864   0.573  10.586  0.1020  1.0553 -1.7696
  141SAPE  H12B15355   5.952   0.706  10.674  0.2377  0.5259 -2.9905
  141SAPE   C1115356   5.748   0.756  10.634  0.1384  0.2644  0.1226
  141SAPE  H11A15357   5.640   0.736  10.649 -0.4747  2.6024 -0.6166
  141SAPE  H11B15358   5.753   0.769  10.524  0.7023  1.1211  0.2367
  141SAPE     P15359   5.705   0.917  10.840 -0.1710  0.0596  0.1770
  141SAPE   O1315360   5.677   0.789  10.908  0.1480  0.5141  0.1343
  141SAPE   O1415361   5.795   1.013  10.913 -0.2834 -0.1925  0.3232
  141SAPE   O1215362   5.770   0.882  10.697 -0.1691  0.1283  0.2665
  141SAPE   O1115363   5.569   0.987  10.790 -0.1647 -0.6051 -0.0194
  141SAPE    C115364   5.584   1.102  10.705  0.3398  0.1914  0.2430
  141SAPE    HA15365   5.502   1.173  10.726 -0.2608 -0.0774 -1.1011
  141SAPE    HB15366   5.682   1.153  10.715  0.6289 -0.2306 -0.3841
  141SAPE    C215367   5.565   1.073  10.547  1.1715 -0.4042 -0.2067
  141SAPE    HS15368   5.655   1.016  10.515  1.2796 -0.5754  0.3941
  141SAPE   O2115369   5.559   1.205  10.480  0.2844  0.0462  0.4718
  141SAPE   C2115370   5.677   1.254  10.455 -0.3335 -0.5681  0.1134
  141SAPE   O2215371   5.782   1.205  10.491  0.1254  0.3886  0.0860
  141SAPE   C2215372   5.664   1.394  10.384 -0.0642  0.6677 -0.1351
  141SAPE   H2R15373   5.639   1.467  10.464  2.5639 -0.2191  1.6213
  141SAPE   H2S15374   5.764   1.415  10.341  0.3042 -0.4933  0.1150
  141SAPE    C315375   5.440   0.999  10.501 -0.2663 -0.6505  0.2736
  141SAPE    HX15376   5.359   1.074  10.509  2.0116  1.9275  0.6360
  141SAPE    HY15377   5.420   0.916  10.572  0.0901 -1.5686 -0.6583
  141SAPE   O3115378   5.467   0.949  10.366  0.0084  0.5009 -0.5135
  141SAPE   C3115379   5.375   0.869  10.324 -0.4122  0.0144 -0.3979
  141SAPE   O3215380   5.260   0.859  10.361 -0.4861 -0.1077  0.1162
  141SAPE   C3215381   5.442   0.785  10.210  0.1076  0.3735 -0.0218
  141SAPE   H2X15382   5.384   0.691  10.223  0.7497  0.2188  2.1070
  141SAPE   H2Y15383   5.550   0.777  10.237  1.1905  3.1572 -2.9364
  141SAPE   C2315384   5.557   1.395  10.267 -0.1602  0.1312 -0.2381
  141SAPE   H3R15385   5.553   1.496  10.222  2.0170  0.5874  0.4852
  141SAPE   H3S15386   5.457   1.370  10.311  0.1365  0.4133  0.6247
  141SAPE   C2415387   5.593   1.292  10.161  0.4624  0.0005  0.0068
  141SAPE   H4R15388   5.613   1.193  10.206  1.0267  0.0675 -0.0829
  141SAPE   H4S15389   5.683   1.328  10.106  0.5458 -0.5497 -0.2249
  141SAPE   C2515390   5.479   1.270  10.055 -0.4146  0.0638 -0.0216
  141SAPE   H5R15391   5.380   1.242  10.093  0.0870 -1.1138  0.4859
  141SAPE   C2615392   5.493   1.287   9.920 -0.3269  1.0873  0.3636
  141SAPE   H6R15393   5.397   1.274   9.867  0.8506 -0.8351 -1.4015
  141SAPE   C2715394   5.606   1.315   9.833  0.2866  0.0287 -0.4063
  141SAPE   H7R15395   5.690   1.268   9.890  0.3517  1.3519  0.6347
  141SAPE   H7S15396   5.639   1.421   9.834  2.7895 -0.6314  2.0783
  141SAPE   C2815397   5.610   1.255   9.695  0.0816 -0.0206 -0.2830
  141SAPE   H8R15398   5.653   1.154   9.686  0.3741  0.1845 -1.3594
  141SAPE   C2915399   5.581   1.320   9.582  0.4582  0.1595 -0.3429
  141SAPE   H9R15400   5.609   1.267   9.490  2.8349 -1.9437  1.4603
  141SAPE  C21015401   5.523   1.457   9.572 -0.8550  0.0938 -0.6280
  141SAPE  H10R15402   5.581   1.535   9.626 -0.8939 -0.1597 -0.2140
  141SAPE  H10S15403   5.419   1.448   9.612 -1.3128  1.4050 -1.4662
  141SAPE  C21115404   5.502   1.496   9.429 -0.1098 -0.3921  0.0458
  141SAPE  H11R15405   5.579   1.470   9.356 -0.0485 -0.3823  0.1076
  141SAPE  C21215406   5.397   1.562   9.373 -0.2469 -0.1398  0.3392
  141SAPE  H12R15407   5.390   1.576   9.264 -0.0962 -2.4616 -0.0115
  141SAPE  C21315408   5.271   1.602   9.442  0.0138 -0.9269  0.1815
  141SAPE  H13R15409   5.230   1.687   9.382  1.3305  2.0456  3.1850
  141SAPE  H13S15410   5.295   1.651   9.538  1.0584  0.9247 -0.9604
  141SAPE  C21415411   5.171   1.495   9.461 -0.0548  0.3861  0.4182
  141SAPE  H14R15412   5.206   1.394   9.435 -2.0978 -0.1221 -0.5336
  141SAPE  C21515413   5.034   1.504   9.464 -1.0323  0.0725 -0.3122
  141SAPE  H15R15414   4.992   1.404   9.484 -0.7401 -0.1640 -0.8136
  141SAPE  C21615415   4.949   1.627   9.456  0.1705  0.1769 -0.5877
  141SAPE  H16R15416   4.995   1.706   9.518  1.2583 -0.8833  0.0084
  141SAPE  H16S15417   4.849   1.609   9.500  0.9955 -0.7130  1.0166
  141SAPE  C21715418   4.943   1.686   9.312  0.3927  0.7874  0.5684
  141SAPE  H17R15419   5.048   1.685   9.276  0.2536 -2.2763 -0.0285
  141SAPE  H17S15420   4.915   1.793   9.305  0.5616  0.7686 -0.5534
  141SAPE  C21815421   4.873   1.599   9.203 -0.0035 -0.1303 -0.5577
  141SAPE  H18R15422   4.823   1.521   9.264  0.7549 -1.0966 -1.1600
  141SAPE  H18S15423   4.949   1.542   9.145 -0.0977 -0.8679  0.0365
  141SAPE  C21915424   4.773   1.652   9.104  0.5008  0.4312 -0.0433
  141SAPE  H19R15425   4.813   1.737   9.044 -0.5365  2.0937  1.5121
  141SAPE  H19S15426   4.684   1.701   9.148 -1.4223 -0.5491 -2.5838
  141SAPE  C22015427   4.728   1.533   9.017 -0.3170  0.2640  0.3521
  141SAPE  H20R15428   4.705   1.443   9.077 -0.6451  0.6080  0.7480
  141SAPE  H20S15429   4.800   1.522   8.933  0.1609  0.8186  0.6824
  141SAPE  H20T15430   4.632   1.564   8.970 -1.1072  1.5349  2.6508
  141SAPE   C3315431   5.413   0.846  10.073 -0.6149  0.4844 -0.0662
  141SAPE   H3X15432   5.450   0.764  10.008  0.1286 -0.2307  1.2003
  141SAPE   H3Y15433   5.471   0.940  10.060 -1.0419  0.4994 -2.1980
  141SAPE   C3415434   5.261   0.875  10.047 -0.5720  0.0809 -0.0987
  141SAPE   H4X15435   5.223   0.958  10.111 -2.1383 -0.6596 -0.0220
  141SAPE   H4Y15436   5.201   0.787  10.079  1.5602 -1.1952  0.6523
  141SAPE   C3515437   5.240   0.940   9.909  0.9209  0.3372 -0.0342
  141SAPE   H5X15438   5.273   1.045   9.901 -3.2209  1.7452 -1.1747
  141SAPE   H5Y15439   5.130   0.944   9.896  0.7893 -0.7391  0.5907
  141SAPE   C3615440   5.293   0.855   9.801 -0.6120  0.1717 -0.6445
  141SAPE   H6X15441   5.288   0.746   9.822  1.3358  0.2123  0.2256
  141SAPE   H6Y15442   5.403   0.864   9.792 -0.6722 -0.0325 -1.7674
  141SAPE   C3715443   5.229   0.878   9.666  0.1266 -1.0089  0.4329
  141SAPE   H7X15444   5.120   0.886   9.681  0.2131  0.5940  0.4270
  141SAPE   H7Y15445   5.271   0.800   9.599  0.1752 -0.0029 -0.7316
  141SAPE   C3815446   5.273   1.016   9.602  1.0547  0.7509 -0.6564
  141SAPE   H8X15447   5.383   1.016   9.587  0.9094  0.6346 -1.7739
  141SAPE   H8Y15448   5.252   1.105   9.666 -1.3664 -0.2621  0.0974
  141SAPE   C3915449   5.198   1.051   9.470  0.3254 -0.4817 -0.6830
  141SAPE   H9X15450   5.104   1.109   9.482 -0.2235 -1.2352 -1.2335
  141SAPE   H9Y15451   5.163   0.955   9.427 -0.8788 -1.1878  1.6795
  141SAPE  C31015452   5.284   1.125   9.375 -0.2860  0.8217  0.8382
  141SAPE  H10X15453   5.367   1.054   9.353 -1.4534 -0.6663  0.9997
  141SAPE  H10Y15454   5.322   1.217   9.424 -1.1216  1.7882 -0.2944
  141SAPE  C31115455   5.204   1.161   9.249 -0.3417  0.5366 -0.2513
  141SAPE  H11X15456   5.115   1.224   9.273  1.0555  2.6919 -0.4828
  141SAPE  H11Y15457   5.162   1.074   9.193  1.6454  0.3202 -1.4992
  141SAPE  C31215458   5.278   1.241   9.141 -0.4269 -0.1469  0.1114
  141SAPE  H12X15459   5.362   1.176   9.107 -0.9043 -1.5895  1.5943
  141SAPE  H12Y15460   5.330   1.328   9.187 -1.2593  1.2156 -1.3897
  141SAPE  C31315461   5.181   1.276   9.025  0.0385  0.3533 -0.6038
  141SAPE  H13X15462   5.129   1.371   9.051  1.5260  0.4673  2.4080
  141SAPE  H13Y15463   5.103   1.197   9.018  0.9941 -0.6582 -0.1299
  141SAPE  C31415464   5.239   1.288   8.881 -0.1611  0.2821 -0.2210
  141SAPE  H14X15465   5.154   1.299   8.811 -0.4487  0.5538  0.1648
  141SAPE  H14Y15466   5.291   1.192   8.862 -1.7904 -1.5655  3.5888
  141SAPE  C31515467   5.328   1.412   8.875 -0.1610 -0.8740 -0.4451
  141SAPE  H15X15468   5.403   1.426   8.956  0.8140  1.7036 -1.7003
  141SAPE  H15Y15469   5.261   1.499   8.893 -1.5253 -2.0057  0.1344
  141SAPE  C31615470   5.398   1.438   8.738 -0.0186 -0.4637 -0.0117
  141SAPE  H16X15471   5.364   1.538   8.706  0.9237  0.3720  1.4497
  141SAPE  H16Y15472   5.362   1.370   8.658  3.7870 -2.6465 -0.1203
  141SAPE  C31715473   5.548   1.430   8.748  0.2258  0.1660  0.4020
  141SAPE  H17X15474   5.577   1.517   8.810 -0.3655  0.0564  0.8426
  141SAPE  H17Y15475   5.601   1.444   8.651  2.7627  0.8586  1.7899
  141SAPE  C31815476   5.592   1.298   8.815 -0.3046 -0.5237 -0.2620
  141SAPE  H18X15477   5.542   1.210   8.770 -2.8742 -0.2922  1.9261
  141SAPE  H18Y15478   5.559   1.303   8.921  1.2757 -1.8700  0.3283
  141SAPE  H18Z15479   5.703   1.292   8.824 -0.3855  0.4097  2.0989
  142SAPE     N15480   0.862   0.747  10.926 -0.2551 -0.2905 -0.0024
  142SAPE   HN115481   0.813   0.818  10.869 -0.9183  0.8826  1.9196
  142SAPE   HN215482   0.908   0.680  10.862  1.1584  0.9174 -0.3087
  142SAPE   HN315483   0.786   0.699  10.979  1.2283 -2.7386  0.0722
  142SAPE   C1215484   0.942   0.815  11.037 -0.3790 -0.3372  0.4146
  142SAPE  H12A15485   1.034   0.848  10.984 -0.1790 -0.1767  0.8618
  142SAPE  H12B15486   0.954   0.729  11.106 -0.7258 -2.4161 -1.9272
  142SAPE   C1115487   0.870   0.936  11.099 -0.1918  0.3821  0.8205
  142SAPE  H11A15488   0.939   0.975  11.177  0.7269  0.9400 -0.2303
  142SAPE  H11B15489   0.783   0.879  11.137 -0.5492  0.8736  0.7585
  142SAPE     P15490   0.700   1.111  11.021 -0.2766 -0.2087  0.2451
  142SAPE   O1315491   0.591   1.016  11.036  0.3438 -0.1163  0.0003
  142SAPE   O1415492   0.722   1.198  11.137  0.7785  0.4693  0.1873
  142SAPE   O1215493   0.833   1.025  10.995 -0.0670  0.0301 -0.4133
  142SAPE   O1115494   0.671   1.190  10.888  0.0439 -0.1768  0.4093
  142SAPE    C115495   0.744   1.308  10.848 -0.6059  0.5063 -0.4960
  142SAPE    HA15496   0.735   1.397  10.915  2.3655  1.8241 -1.6350
  142SAPE    HB15497   0.853   1.284  10.842 -0.8529 -0.5995 -0.6171
  142SAPE    C215498   0.694   1.354  10.708  0.7310  0.4314  0.2969
  142SAPE    HS15499   0.583   1.353  10.706  0.7044  1.1625  0.9428
  142SAPE   O2115500   0.725   1.251  10.609 -0.4074 -0.2952  0.1254
  142SAPE   C2115501   0.850   1.235  10.568 -0.5344  0.4176 -0.1262
  142SAPE   O2215502   0.951   1.291  10.610  0.2400 -1.3786 -0.7780
  142SAPE   C2215503   0.851   1.146  10.447 -0.3420 -0.2890 -0.4727
  142SAPE   H2R15504   0.929   1.072  10.474 -1.3614 -1.0419  0.4850
  142SAPE   H2S15505   0.757   1.087  10.446 -2.1258  2.1401  3.0083
  142SAPE    C315506   0.742   1.491  10.663  0.0319 -0.5321 -0.1102
  142SAPE    HX15507   0.850   1.506  10.688  0.8677  2.1205 -4.2625
  142SAPE    HY15508   0.691   1.564  10.730  1.4310 -0.1182  0.5438
  142SAPE   O3115509   0.697   1.518  10.529 -0.0637 -0.5515  0.0226
  142SAPE   C3115510   0.781   1.599  10.455  0.5983  0.1556  0.1676
  142SAPE   O3215511   0.875   1.663  10.494 -0.3925  0.5336  0.2186
  142SAPE   C3215512   0.723   1.597  10.308  0.2457 -0.0692 -0.2059
  142SAPE   H2X15513   0.613   1.603  10.325  0.3634  0.4749  0.4053
  142SAPE   H2Y15514   0.739   1.493  10.272  2.3148  1.1170 -3.0966
  142SAPE   C2315515   0.900   1.226  10.327  0.1061 -0.0640  0.3358
  142SAPE   H3R15516   1.010   1.236  10.331  0.2113 -0.0869 -1.4509
  142SAPE   H3S15517   0.846   1.322  10.317  0.2810  0.0895  0.8448
  142SAPE   C2415518   0.882   1.154  10.186 -0.2139 -0.0319  0.0179
  142SAPE   H4R15519   0.918   1.051  10.206  2.0688  0.5757 -0.6667
  142SAPE   H4S15520   0.942   1.213  10.113  1.6866  1.1013  2.3559
  142SAPE   C2515521   0.734   1.138  10.148 -0.0074  0.3191 -0.7085
  142SAPE   H5R15522   0.674   1.100  10.231 -0.3475  1.7021 -0.2997
  142SAPE   C2615523   0.685   1.149  10.022  0.2170 -0.5216 -0.1478
  142SAPE   H6R15524   0.576   1.148  10.010  0.1778  2.7575 -0.9815
  142SAPE   C2715525   0.751   1.184   9.896 -0.0125 -0.0611  0.5427
  142SAPE   H7R15526   0.792   1.286   9.913 -0.5772  0.2520  0.0912
  142SAPE   H7S15527   0.677   1.205   9.816  0.8788 -2.3486 -0.9812
  142SAPE   C2815528   0.860   1.089   9.848  0.3245 -0.1106  0.1417
  142SAPE   H8R15529   0.950   1.112   9.906 -0.3150  1.3518  0.6091
  142SAPE   C2915530   0.862   0.998   9.746 -0.5821  0.1540 -1.1692
  142SAPE   H9R15531   0.960   0.950   9.730  0.0226  0.2525  1.7497
  142SAPE  C21015532   0.745   0.965   9.652 -0.7437 -0.0341  0.0004
  142SAPE  H10R15533   0.791   0.916   9.564  0.9549  1.1790  0.1802
  142SAPE  H10S15534   0.704   1.059   9.608  1.5966  0.9214 -0.2487
  142SAPE  C21115535   0.628   0.896   9.709 -0.6032 -0.1633 -0.0341
  142SAPE  H11R15536   0.623   0.913   9.818 -1.4286  0.0886 -0.1030
  142SAPE  C21215537   0.537   0.817   9.639  0.4046  0.2044  0.0368
  142SAPE  H12R15538   0.451   0.767   9.687 -0.6195  0.3212 -1.6022
  142SAPE  C21315539   0.549   0.802   9.490 -0.0302  0.2140 -0.0025
  142SAPE  H13R15540   0.624   0.866   9.441 -0.7201  0.2685 -1.0164
  142SAPE  H13S15541   0.463   0.852   9.441 -0.4595  1.4888  1.9454
  142SAPE  C21415542   0.572   0.661   9.441  0.6315  0.2186 -0.3232
  142SAPE  H14R15543   0.603   0.583   9.512  1.8733  1.1100  0.1584
  142SAPE  C21515544   0.550   0.621   9.316 -0.0984  0.1085  0.0616
  142SAPE  H15R15545   0.556   0.515   9.288  3.8749  0.4440 -1.0887
  142SAPE  C21615546   0.500   0.710   9.197 -0.3729  0.3905  0.0019
  142SAPE  H16R15547   0.576   0.788   9.177 -0.8393  1.5459  2.3236
  142SAPE  H16S15548   0.396   0.747   9.213 -0.8378 -0.7085 -0.3403
  142SAPE  C21715549   0.499   0.615   9.078  0.4113  0.2900  0.0348
  142SAPE  H17R15550   0.428   0.532   9.101 -1.0042  1.7601  1.2529
  142SAPE  H17S15551   0.601   0.574   9.061  0.2106 -0.4708  0.6235
  142SAPE  C21815552   0.463   0.678   8.942  0.4941  0.3507 -0.0329
  142SAPE  H18R15553   0.528   0.766   8.930 -1.4484  1.6454 -1.7764
  142SAPE  H18S15554   0.358   0.716   8.940 -0.1075 -1.1981  0.3375
  142SAPE  C21915555   0.506   0.587   8.830  0.0371  0.7879 -0.0474
  142SAPE  H19R15556   0.615   0.565   8.827  0.0126  0.5315  0.6637
  142SAPE  H19S15557   0.477   0.648   8.742 -0.2900 -0.7589 -1.0709
  142SAPE  C22015558   0.419   0.457   8.832 -0.0909  0.1508 -0.8877
  142SAPE  H20R15559   0.315   0.492   8.846  0.3758  1.8002 -1.3490
  142SAPE  H20S15560   0.456   0.388   8.911 -0.5003  0.0428 -0.7903
  142SAPE  H20T15561   0.429   0.405   8.734 -0.0331  0.6643 -1.1555
  142SAPE   C3315562   0.788   1.687  10.206  0.2927  0.3966 -0.0099
  142SAPE   H3X15563   0.899   1.681  10.199  0.4411  0.4931  1.7851
  142SAPE   H3Y15564   0.769   1.792  10.239  0.0417 -0.1708  1.7517
  142SAPE   C3415565   0.717   1.662  10.072  0.2667  0.0137 -0.4377
  142SAPE   H4X15566   0.617   1.711  10.071  0.1985 -0.0843 -2.3302
  142SAPE   H4Y15567   0.701   1.552  10.064  2.6994 -0.4841  0.5821
  142SAPE   C3515568   0.791   1.720   9.943 -0.0946 -0.3423 -0.1757
  142SAPE   H5X15569   0.893   1.679   9.934 -0.2385 -1.0720  1.1527
  142SAPE   H5Y15570   0.810   1.826   9.971  1.3432 -0.7071  0.3258
  142SAPE   C3615571   0.698   1.722   9.816  0.0647 -0.0147  0.2695
  142SAPE   H6X15572   0.619   1.800   9.826  2.0477  1.8351  3.0311
  142SAPE   H6Y15573   0.651   1.622   9.813 -0.0176  0.0393 -0.4831
  142SAPE   C3715574   0.775   1.739   9.685 -0.2780 -0.3634  0.4027
  142SAPE   H7X15575   0.867   1.678   9.673  1.0129  1.7482 -1.2293
  142SAPE   H7Y15576   0.826   1.836   9.669  0.2373 -0.8708 -1.2214
  142SAPE   C3815577   0.668   1.718   9.574  0.2475  0.1535 -0.7051
  142SAPE   H8X15578   0.575   1.769   9.609  0.7471 -0.8622  2.4814
  142SAPE   H8Y15579   0.642   1.610   9.574  0.1242  0.1738 -1.5745
  142SAPE   C3915580   0.715   1.750   9.444  0.2399  0.4132  0.7772
  142SAPE   H9X15581   0.759   1.662   9.392  2.1235  0.7874  1.6722
  142SAPE   H9Y15582   0.785   1.836   9.446  0.1961  0.4388  1.3149
  142SAPE  C31015583   0.601   1.796   9.347 -0.0024 -0.1175 -0.2705
  142SAPE  H10X15584   0.539   1.876   9.391  0.2267  0.6357 -1.2687
  142SAPE  H10Y15585   0.539   1.704   9.343 -0.0653 -0.1748  1.4082
  142SAPE  C31115586   0.659   1.833   9.207 -0.6919 -0.5219 -0.1595
  142SAPE  H11X15587   0.733   1.758   9.172  2.6149  1.0604  2.7824
  142SAPE  H11Y15588   0.711   1.931   9.208  0.9193 -1.3458 -0.3594
  142SAPE  C31215589   0.546   1.837   9.104 -0.7423 -0.5581  0.0548
  142SAPE  H12X15590   0.476   1.915   9.139  0.0524 -0.4047  1.3865
  142SAPE  H12Y15591   0.487   1.742   9.101 -1.6864  0.0415 -1.5276
  142SAPE  C31315592   0.588   1.872   8.957  0.2729  0.0994  0.5294
  142SAPE  H13X15593   0.619   1.780   8.904  0.5528  0.8103 -0.5574
  142SAPE  H13Y15594   0.666   1.950   8.965  0.3300  0.3519 -1.8053
  142SAPE  C31415595   0.475   1.937   8.876  0.6268  0.9718 -0.0010
  142SAPE  H14X15596   0.375   1.896   8.904  0.3920  0.8571 -0.9446
  142SAPE  H14Y15597   0.486   1.909   8.769 -1.8843 -3.7613  0.6676
  142SAPE  C31515598   0.467   2.089   8.881  0.6182  0.1014 -0.8293
  142SAPE  H15X15599   0.480   2.133   8.982  2.7058 -0.2655 -0.9064
  142SAPE  H15Y15600   0.361   2.117   8.859  0.4550  0.9630  0.8780
  142SAPE  C31615601   0.567   2.148   8.786  0.3042 -0.0294  0.0129
  142SAPE  H16X15602   0.662   2.091   8.786  1.5072  1.8693  0.8619
  142SAPE  H16Y15603   0.595   2.253   8.810  2.8040 -0.6391  0.0773
  142SAPE  C31715604   0.524   2.142   8.636 -0.4266  0.2359  0.0337
  142SAPE  H17X15605   0.432   2.202   8.617 -0.3287  0.5245  0.4472
  142SAPE  H17Y15606   0.508   2.036   8.607  1.3737 -0.1782  0.4614
  142SAPE  C31815607   0.625   2.204   8.541 -0.2686  0.0755 -0.3005
  142SAPE  H18X15608   0.646   2.312   8.556  1.8775  0.1124 -2.9314
  142SAPE  H18Y15609   0.593   2.193   8.435 -1.7554  0.1185  0.1186
  142SAPE  H18Z15610   0.721   2.149   8.549 -0.0598  0.3897 -0.6524
  143SAPE     N15611   0.249   0.658  10.755 -0.3129  0.1012 -1.2058
  143SAPE   HN115612   0.217   0.643  10.657  1.5957 -0.3640 -1.8006
  143SAPE   HN215613   0.243   0.582  10.825 -1.6837  1.0053 -0.3015
  143SAPE   HN315614   0.213   0.742  10.804  1.0868 -0.3640  0.7257
  143SAPE   C1215615   0.398   0.683  10.737 -0.3147  0.6359  0.2550
  143SAPE  H12A15616   0.403   0.743  10.644 -0.6646  0.4493  0.1150
  143SAPE  H12B15617   0.443   0.584  10.711 -2.6870 -0.7129  0.9751
  143SAPE   C1115618   0.475   0.738  10.855  0.5310 -0.1787 -0.6261
  143SAPE  H11A15619   0.443   0.841  10.885 -0.0958 -0.2083 -1.1680
  143SAPE  H11B15620   0.583   0.743  10.832  0.2774  1.8487 -1.6015
  143SAPE     P15621   0.544   0.553  11.019 -0.0336  0.2268  0.1638
  143SAPE   O1315622   0.674   0.608  11.065 -0.6353 -0.0769 -0.5425
  143SAPE   O1415623   0.478   0.470  11.119 -0.1835 -0.2025 -0.0491
  143SAPE   O1215624   0.452   0.668  10.978 -0.9215 -0.0099 -0.4681
  143SAPE   O1115625   0.567   0.475  10.880  0.0952  0.3727  0.0181
  143SAPE    C115626   0.489   0.359  10.855  0.8624 -0.3184  0.0770
  143SAPE    HA15627   0.486   0.288  10.940 -1.7529  0.8251  1.0823
  143SAPE    HB15628   0.383   0.387  10.837  0.1808 -1.0269  2.5759
  143SAPE    C215629   0.540   0.288  10.730  0.1483  0.9444  0.0929
  143SAPE    HS15630   0.541   0.360  10.645 -2.1566  2.5549  1.3302
  143SAPE   O2115631   0.455   0.169  10.707  0.3019 -0.0496  0.5241
  143SAPE   C2115632   0.348   0.212  10.642  0.0491 -1.0404 -0.0771
  143SAPE   O2215633   0.333   0.324  10.595 -0.0085  0.4294 -0.5583
  143SAPE   C2215634   0.252   0.101  10.612  0.0399 -0.6553  0.0289
  143SAPE   H2R15635   0.308   0.007  10.631 -0.1234 -1.2890 -2.3555
  143SAPE   H2S15636   0.177   0.116  10.693 -2.9597  0.4398 -2.7507
  143SAPE    C315637   0.684   0.236  10.743  0.1404 -0.2750  1.0051
  143SAPE    HX15638   0.690   0.186  10.842 -2.3056 -0.5407  1.0977
  143SAPE    HY15639   0.752   0.322  10.754  0.0911 -0.0988  0.0307
  143SAPE   O3115640   0.717   0.135  10.635  0.0583 -0.4516 -0.3129
  143SAPE   C3115641   0.749   0.199  10.522 -0.6660  0.3275  0.3878
  143SAPE   O3215642   0.780   0.316  10.507  0.3704  0.0088 -0.3885
  143SAPE   C3215643   0.735   0.095  10.410  0.3747  0.1886  0.1579
  143SAPE   H2X15644   0.628   0.078  10.383  0.5411 -1.3424  0.3853
  143SAPE   H2Y15645   0.764  -0.002  10.455  0.9831 -0.3387 -1.3162
  143SAPE   C2315646   0.196   0.092  10.468  0.3279 -0.8174 -0.5235
  143SAPE   H3R15647   0.169   0.190  10.425  0.0359 -1.1390 -1.0894
  143SAPE   H3S15648   0.097   0.041  10.462  0.0248 -0.1428 -1.4108
  143SAPE   C2415649   0.295   0.023  10.377  0.2252 -0.6256  0.7369
  143SAPE   H4R15650   0.298  -0.087  10.393  0.4442 -0.8250 -0.5394
  143SAPE   H4S15651   0.401   0.051  10.395  0.6169 -0.4647 -1.4747
  143SAPE   C2515652   0.260   0.044  10.229  0.4366 -0.2979 -1.0248
  143SAPE   H5R15653   0.294   0.133  10.174 -0.3416 -0.5166 -1.8913
  143SAPE   C2615654   0.183  -0.033  10.153  0.7807  0.1950  0.4247
  143SAPE   H6R15655   0.167  -0.010  10.046  1.3188 -0.3874  0.2132
  143SAPE   C2715656   0.112  -0.158  10.191 -1.0479  0.0409  0.0802
  143SAPE   H7R15657   0.097  -0.145  10.300  2.3279 -1.9488  0.9465
  143SAPE   H7S15658   0.177  -0.248  10.181  1.2883  1.6755 -0.1962
  143SAPE   C2815659  -0.012  -0.192  10.127 -0.5757 -0.6221  0.0832
  143SAPE   H8R15660  -0.093  -0.181  10.200 -0.2882  1.3867  0.1522
  143SAPE   C2915661  -0.036  -0.227  10.002 -0.1147 -0.5806 -0.4450
  143SAPE   H9R15662  -0.141  -0.245   9.973 -0.0775  0.1318 -1.0668
  143SAPE  C21015663   0.063  -0.238   9.891  0.6220  0.5339 -0.1158
  143SAPE  H10R15664   0.038  -0.326   9.829 -0.1205 -0.2218  1.2133
  143SAPE  H10S15665   0.168  -0.243   9.925  0.0731  0.2467  1.6402
  143SAPE  C21115666   0.039  -0.117   9.809  0.3247 -0.4822 -0.2369
  143SAPE  H11R15667   0.020  -0.027   9.869 -0.6080 -1.6628  1.2960
  143SAPE  C21215668   0.019  -0.104   9.671  0.0013 -0.6857 -0.0120
  143SAPE  H12R15669  -0.002  -0.001   9.642  5.5808  1.9242  3.4987
  143SAPE  C21315670   0.020  -0.206   9.565 -0.3415  0.1762 -0.0580
  143SAPE  H13R15671   0.090  -0.288   9.592 -0.4758  1.1702  3.8483
  143SAPE  H13S15672   0.054  -0.170   9.465 -3.2076  1.3283 -0.7336
  143SAPE  C21415673  -0.114  -0.263   9.559  0.0263 -0.2244  0.3239
  143SAPE  H14R15674  -0.175  -0.254   9.650 -1.2133 -0.1563 -0.4841
  143SAPE  C21515675  -0.158  -0.348   9.463 -1.1245  0.6024 -0.3852
  143SAPE  H15R15676  -0.262  -0.383   9.459 -0.8308 -0.1684 -2.0693
  143SAPE  C21615677  -0.072  -0.382   9.341  0.6102 -0.2415  0.4747
  143SAPE  H16R15678  -0.042  -0.487   9.360 -0.9331 -0.9782 -0.9103
  143SAPE  H16S15679   0.025  -0.331   9.327  0.2207  0.4457  0.2055
  143SAPE  C21715680  -0.166  -0.366   9.215 -0.5383 -0.5488 -0.9253
  143SAPE  H17R15681  -0.209  -0.264   9.200 -2.4418 -1.3310 -1.0485
  143SAPE  H17S15682  -0.256  -0.429   9.230  0.0835 -1.6513 -1.6813
  143SAPE  C21815683  -0.114  -0.428   9.084 -0.3247 -0.3883  0.0274
  143SAPE  H18R15684  -0.049  -0.511   9.119 -1.3093  0.0164  3.0986
  143SAPE  H18S15685  -0.053  -0.355   9.027  0.7965 -0.8500  0.5978
  143SAPE  C21915686  -0.219  -0.472   8.981 -0.2594  0.9275  0.5818
  143SAPE  H19R15687  -0.294  -0.542   9.023 -0.5955  2.4268  2.6321
  143SAPE  H19S15688  -0.158  -0.532   8.910  2.0217  1.6995  1.7818
  143SAPE  C22015689  -0.287  -0.357   8.902  0.1224  0.2783  0.1778
  143SAPE  H20R15690  -0.361  -0.398   8.830  1.6593 -0.1721 -1.2146
  143SAPE  H20S15691  -0.206  -0.312   8.840  3.7836 -3.5023  1.7269
  143SAPE  H20T15692  -0.332  -0.272   8.958 -2.6967 -0.8166 -0.2648
  143SAPE   C3315693   0.827   0.125  10.292  0.4343 -0.1033  0.4919
  143SAPE   H3X15694   0.934   0.144  10.316  0.7084 -1.8245  0.7500
  143SAPE   H3Y15695   0.783   0.201  10.224  1.2200  1.0019  1.1833
  143SAPE   C3415696   0.827   0.010  10.194 -0.3328 -0.0460 -0.2471
  143SAPE   H4X15697   0.721  -0.021  10.182  0.1385 -1.1914 -1.7785
  143SAPE   H4Y15698   0.883  -0.074  10.239  1.2298 -0.3037 -2.5131
  143SAPE   C3515699   0.894   0.038  10.057 -0.7099 -0.0152  0.3032
  143SAPE   H5X15700   0.911  -0.065  10.020  0.2639  0.3267 -0.2249
  143SAPE   H5Y15701   0.997   0.078  10.072 -1.2206  0.5199  2.9305
  143SAPE   C3615702   0.802   0.116   9.956 -0.1595 -0.2463  0.2213
  143SAPE   H6X15703   0.823   0.225   9.961 -0.3336 -0.0355 -2.4210
  143SAPE   H6Y15704   0.696   0.098   9.984  0.3320 -1.8732  1.2034
  143SAPE   C3715705   0.817   0.075   9.812  0.2454  0.1463 -0.0519
  143SAPE   H7X15706   0.792  -0.034   9.810  3.1161 -0.5911  0.2950
  143SAPE   H7Y15707   0.925   0.087   9.791 -0.0831  2.7336 -0.5415
  143SAPE   C3815708   0.733   0.152   9.717 -0.2130 -0.2727 -0.9342
  143SAPE   H8X15709   0.739   0.257   9.752  1.6343 -0.6405 -0.0535
  143SAPE   H8Y15710   0.628   0.116   9.714  0.1504 -1.3272 -2.6702
  143SAPE   C3915711   0.792   0.144   9.572 -0.1610  0.2638 -0.4211
  143SAPE   H9X15712   0.792   0.040   9.534 -4.2439 -0.5567  1.3073
  143SAPE   H9Y15713   0.894   0.189   9.569  0.7185 -1.6939 -1.5585
  143SAPE  C31015714   0.720   0.234   9.468 -0.7440 -0.0553 -0.3696
  143SAPE  H10X15715   0.747   0.340   9.489  0.0494 -0.1518 -0.8643
  143SAPE  H10Y15716   0.614   0.207   9.487 -0.8954  1.5671  1.5099
  143SAPE  C31115717   0.766   0.196   9.323  0.8509 -0.2936 -0.1575
  143SAPE  H11X15718   0.740   0.090   9.300 -2.2162  0.9276 -3.1307
  143SAPE  H11Y15719   0.877   0.195   9.316  0.7860 -2.5499 -2.6432
  143SAPE  C31215720   0.700   0.275   9.201 -0.6191  0.0163 -0.2841
  143SAPE  H12X15721   0.753   0.257   9.105  0.5195  1.9699 -0.0748
  143SAPE  H12Y15722   0.710   0.383   9.224  2.3167 -0.2678  0.0955
  143SAPE  C31315723   0.545   0.254   9.180 -0.6996 -0.1183  0.0962
  143SAPE  H13X15724   0.504   0.342   9.127 -1.3549 -0.0067  0.7678
  143SAPE  H13Y15725   0.498   0.248   9.280 -0.1490 -3.5616  0.2975
  143SAPE  C31415726   0.506   0.133   9.096  0.2665 -0.0026  0.1768
  143SAPE  H14X15727   0.559   0.040   9.126 -0.2741 -0.2524  0.3632
  143SAPE  H14Y15728   0.535   0.148   8.990  2.2353  1.3801  0.8604
  143SAPE  C31515729   0.359   0.096   9.108  0.1685  1.1428  0.1388
  143SAPE  H15X15730   0.294   0.186   9.115  1.2943  1.8391  2.7440
  143SAPE  H15Y15731   0.342   0.039   9.202 -2.0578  1.0668 -0.2382
  143SAPE  C31615732   0.305   0.013   8.990  0.0704 -0.0050  0.0803
  143SAPE  H16X15733   0.210  -0.036   9.020  0.6563 -1.6249 -0.6102
  143SAPE  H16Y15734   0.381  -0.066   8.967  0.8029 -0.0211  2.2550
  143SAPE  C31715735   0.284   0.089   8.854 -0.8014  0.4348 -0.2681
  143SAPE  H17X15736   0.281   0.019   8.768  0.3482 -1.5923  1.2637
  143SAPE  H17Y15737   0.375   0.150   8.837  0.6920 -1.8741 -0.8839
  143SAPE  C31815738   0.162   0.185   8.830 -0.3338 -0.4641 -0.2357
  143SAPE  H18X15739   0.066   0.133   8.851 -0.4842  0.1239  0.5954
  143SAPE  H18Y15740   0.157   0.214   8.723 -1.0679 -0.4317 -0.2027
  143SAPE  H18Z15741   0.173   0.282   8.884  0.7212 -1.5122  1.5346
  144SAPE     N15742   2.665   4.262  10.738  0.3241  0.3390  0.6070
  144SAPE   HN115743   2.723   4.300  10.661 -1.6496  0.6814 -0.7967
  144SAPE   HN215744   2.714   4.176  10.771  0.4959  0.5284  0.8429
  144SAPE   HN315745   2.577   4.236  10.689 -1.0437  2.8038  1.5968
  144SAPE   C1215746   2.629   4.335  10.853 -0.4517 -0.3473 -0.6807
  144SAPE  H12A15747   2.571   4.425  10.826  0.0920 -0.3508 -1.9131
  144SAPE  H12B15748   2.715   4.380  10.907 -0.7714 -0.6239  0.0822
  144SAPE   C1115749   2.549   4.242  10.949  0.3458  0.3923 -1.1907
  144SAPE  H11A15750   2.528   4.297  11.043  2.7149 -0.7466  0.1005
  144SAPE  H11B15751   2.606   4.151  10.978 -0.3864  0.2974 -0.0027
  144SAPE     P15752   2.293   4.271  10.874  0.0131  0.4985 -0.1177
  144SAPE   O1315753   2.182   4.174  10.871 -0.1352 -0.1940  0.4039
  144SAPE   O1415754   2.285   4.372  10.984 -0.2722  0.2101  0.1462
  144SAPE   O1215755   2.428   4.193  10.885 -0.2087  0.0512  0.0980
  144SAPE   O1115756   2.322   4.339  10.737  0.2564 -0.0714  0.0715
  144SAPE    C115757   2.279   4.282  10.620  0.8166 -0.0800 -0.0047
  144SAPE    HA15758   2.206   4.199  10.632 -1.8269  1.8128 -1.8554
  144SAPE    HB15759   2.227   4.363  10.565  0.8960  1.0100  1.4577
  144SAPE    C215760   2.385   4.230  10.525  0.0509 -0.2898  0.1961
  144SAPE    HS15761   2.336   4.199  10.430 -1.1467  0.6789  0.4846
  144SAPE   O2115762   2.463   4.128  10.599 -0.0325  0.1182  0.5727
  144SAPE   C2115763   2.402   4.012  10.581  0.8841 -0.8918 -0.5414
  144SAPE   O2215764   2.326   3.979  10.493 -0.2261  0.2269  0.1483
  144SAPE   C2215765   2.449   3.919  10.700 -0.0085  0.5173 -0.4189
  144SAPE   H2R15766   2.516   3.975  10.769 -0.9903 -0.6008  1.5606
  144SAPE   H2S15767   2.363   3.891  10.765  1.0105  0.5986  1.0153
  144SAPE    C315768   2.485   4.341  10.484 -0.2904 -0.2264  0.5599
  144SAPE    HX15769   2.488   4.418  10.565 -4.0856  0.7160 -0.0127
  144SAPE    HY15770   2.442   4.402  10.401  0.2119  0.5046  0.8219
  144SAPE   O3115771   2.618   4.296  10.439  0.2764  0.2154 -0.5017
  144SAPE   C3115772   2.624   4.241  10.319 -0.3624 -0.0019 -0.0235
  144SAPE   O3215773   2.535   4.243  10.238 -0.0353 -0.0721 -0.3437
  144SAPE   C3215774   2.760   4.175  10.302  0.4475  0.0240 -0.0904
  144SAPE   H2X15775   2.779   4.116  10.395 -1.0162  0.8034  0.7275
  144SAPE   H2Y15776   2.838   4.253  10.288 -0.9173  1.4117 -0.1645
  144SAPE   C2315777   2.529   3.804  10.634 -0.2184  0.0765  0.4787
  144SAPE   H3R15778   2.450   3.740  10.589  1.4416 -2.4255  0.9606
  144SAPE   H3S15779   2.565   3.750  10.725  0.7357  1.1869  0.7831
  144SAPE   C2415780   2.647   3.841  10.542 -0.3087 -0.4443 -0.2303
  144SAPE   H4R15781   2.680   3.945  10.566 -0.4385 -0.9322  2.3302
  144SAPE   H4S15782   2.604   3.844  10.439  1.6884  0.5914 -1.0852
  144SAPE   C2515783   2.761   3.744  10.544  0.7109 -0.2833 -0.0289
  144SAPE   H5R15784   2.807   3.749  10.645  2.7085  0.4645 -0.9141
  144SAPE   C2615785   2.816   3.661  10.448  0.5070  0.7893 -0.6809
  144SAPE   H6R15786   2.898   3.595  10.479 -0.2875 -0.4751 -1.2240
  144SAPE   C2715787   2.764   3.651  10.304 -0.1722 -0.1844  0.3275
  144SAPE   H7R15788   2.671   3.710  10.294  0.6895  1.7305  2.6150
  144SAPE   H7S15789   2.759   3.550  10.257  2.8641  1.5170 -4.3513
  144SAPE   C2815790   2.855   3.731  10.210 -0.3642  0.0732  0.3707
  144SAPE   H8R15791   2.906   3.812  10.265 -1.0003  0.8136 -0.1230
  144SAPE   C2915792   2.881   3.723  10.077  0.0748  0.1134  0.4854
  144SAPE   H9R15793   2.945   3.801  10.034  0.1817 -1.4558 -2.4227
  144SAPE  C21015794   2.821   3.625   9.978 -0.0381  0.0777  0.4284
  144SAPE  H10R15795   2.737   3.663   9.916 -0.8169 -1.8172  0.2684
  144SAPE  H10S15796   2.781   3.540  10.037  2.1014 -1.0894  0.3068
  144SAPE  C21115797   2.923   3.569   9.878  0.2917 -0.2992 -0.0209
  144SAPE  H11R15798   3.025   3.544   9.911  0.9520 -0.7467 -2.2458
  144SAPE  C21215799   2.896   3.543   9.748 -0.9402 -0.7149 -0.3104
  144SAPE  H12R15800   2.983   3.505   9.693  0.5746  0.0218  1.4447
  144SAPE  C21315801   2.768   3.543   9.661  0.1441 -0.3714 -0.2066
  144SAPE  H13R15802   2.733   3.647   9.645 -0.7973 -0.8628 -1.5618
  144SAPE  H13S15803   2.695   3.491   9.727 -0.2646  0.6730  0.1855
  144SAPE  C21415804   2.776   3.460   9.538 -0.0648  0.6059 -0.1697
  144SAPE  H14R15805   2.729   3.361   9.548  0.0007  0.6890  1.2116
  144SAPE  C21515806   2.834   3.496   9.424  0.1445 -0.4751  0.2449
  144SAPE  H15R15807   2.844   3.430   9.337 -1.2830  1.4818 -1.5128
  144SAPE  C21615808   2.900   3.634   9.405 -0.8101  0.4899  0.1674
  144SAPE  H16R15809   2.909   3.689   9.501  2.3842  0.0589  0.2455
  144SAPE  H16S15810   2.852   3.698   9.328 -3.2929 -1.6668 -0.2262
  144SAPE  C21715811   3.055   3.609   9.390 -0.3943  0.2797 -0.1053
  144SAPE  H17R15812   3.102   3.550   9.472  2.6999  0.4328 -1.5970
  144SAPE  H17S15813   3.118   3.700   9.379 -1.0516  0.5441 -2.0460
  144SAPE  C21815814   3.086   3.544   9.253  0.1566  0.3095 -0.3540
  144SAPE  H18R15815   3.053   3.617   9.176  1.0763  0.6005 -0.4866
  144SAPE  H18S15816   3.025   3.452   9.239  1.6216 -0.3979 -2.7358
  144SAPE  C21915817   3.236   3.507   9.236  0.5080 -0.8688 -0.3141
  144SAPE  H19R15818   3.270   3.458   9.329 -0.1577 -1.8667 -0.5797
  144SAPE  H19S15819   3.285   3.607   9.243  0.1597 -0.7906  1.5960
  144SAPE  C22015820   3.262   3.451   9.100 -1.2605  0.8523  0.6361
  144SAPE  H20R15821   3.241   3.519   9.015 -0.5263 -0.0713 -0.3093
  144SAPE  H20S15822   3.213   3.352   9.090  1.7469 -0.7217  0.0737
  144SAPE  H20T15823   3.370   3.426   9.091 -1.5132  0.6522 -3.6920
  144SAPE   C3315824   2.778   4.084  10.173  0.2945  0.4929 -0.5007
  144SAPE   H3X15825   2.704   4.002  10.165  0.6625  0.2434 -1.5967
  144SAPE   H3Y15826   2.871   4.022  10.175 -0.7053 -1.0467  0.2460
  144SAPE   C3415827   2.773   4.171  10.047  0.1829 -0.2701  0.5951
  144SAPE   H4X15828   2.839   4.261  10.053  1.3019 -0.8018 -2.2457
  144SAPE   H4Y15829   2.668   4.201  10.027  0.1968 -0.5591  0.0762
  144SAPE   C3515830   2.825   4.083   9.935  0.3206  0.2075  0.2071
  144SAPE   H5X15831   2.749   4.003   9.924  0.2217  0.2134  0.8019
  144SAPE   H5Y15832   2.917   4.029   9.964  0.0641 -0.0740  0.5038
  144SAPE   C3615833   2.833   4.153   9.796  0.2892  0.4552 -0.2549
  144SAPE   H6X15834   2.914   4.229   9.796  0.5086  0.2664  1.4337
  144SAPE   H6Y15835   2.738   4.206   9.773  1.3654  1.7509 -1.9215
  144SAPE   C3715836   2.878   4.049   9.687 -0.3453  0.3256  0.2936
  144SAPE   H7X15837   2.786   3.992   9.659 -0.0237  0.3782 -0.9343
  144SAPE   H7Y15838   2.964   3.984   9.713 -0.6408 -0.2625 -0.1611
  144SAPE   C3815839   2.915   4.105   9.542  0.0234 -0.2934  0.0378
  144SAPE   H8X15840   2.984   4.192   9.548 -0.1248 -0.0050 -1.9042
  144SAPE   H8Y15841   2.821   4.142   9.495  0.1511 -0.4386 -0.3300
  144SAPE   C3915842   2.972   4.004   9.448  0.2686 -0.3593 -0.1875
  144SAPE   H9X15843   2.915   3.909   9.443  2.7994 -1.9260 -2.7726
  144SAPE   H9Y15844   3.077   3.979   9.475  0.0742 -0.3466  0.6041
  144SAPE  C31015845   2.976   4.042   9.298  0.1876 -0.1635  0.7104
  144SAPE  H10X15846   3.020   4.141   9.274  1.0623 -0.4139  1.2321
  144SAPE  H10Y15847   2.870   4.053   9.269  0.4411 -1.3581 -0.7712
  144SAPE  C31115848   3.035   3.933   9.208  0.1107  0.5022  0.3960
  144SAPE  H11X15849   2.963   3.849   9.203  0.4049  0.2550  0.2765
  144SAPE  H11Y15850   3.135   3.896   9.237  0.7939  1.4912 -0.6379
  144SAPE  C31215851   3.067   3.994   9.070  0.6584  0.6548 -0.2267
  144SAPE  H12X15852   3.127   3.921   9.011 -1.1989 -1.8772  0.8378
  144SAPE  H12Y15853   3.140   4.074   9.096  1.7648 -0.7177  1.1334
  144SAPE  C31315854   2.943   4.064   9.015  0.2772 -0.2027  0.2694
  144SAPE  H13X15855   2.922   4.157   9.071 -2.3045 -0.1182 -0.6981
  144SAPE  H13Y15856   2.849   4.011   9.039 -0.1626  0.7140  0.6158
  144SAPE  C31415857   2.950   4.102   8.868  0.3562  0.6070 -0.3032
  144SAPE  H14X15858   2.867   4.170   8.840 -0.7961 -0.2129  1.0069
  144SAPE  H14Y15859   2.952   4.004   8.816  3.7310 -1.0406  2.4902
  144SAPE  C31515860   3.083   4.166   8.826 -0.2562  0.3315  0.9872
  144SAPE  H15X15861   3.167   4.096   8.847  0.3575  0.7517 -0.0030
  144SAPE  H15Y15862   3.089   4.256   8.891 -1.9615  0.4501  1.0359
  144SAPE  C31615863   3.086   4.225   8.679  0.2484 -0.3903 -0.0814
  144SAPE  H16X15864   3.012   4.307   8.670  1.7783  1.2310  1.2009
  144SAPE  H16Y15865   3.064   4.134   8.621  0.5630  0.3238 -1.3497
  144SAPE  C31715866   3.213   4.298   8.638  0.0457  0.1574  0.2397
  144SAPE  H17X15867   3.300   4.230   8.650  1.0051  1.4265  0.5640
  144SAPE  H17Y15868   3.230   4.388   8.701 -0.0942  0.6969 -0.4806
  144SAPE  C31815869   3.218   4.360   8.490 -0.6498 -0.3658  0.2162
  144SAPE  H18X15870   3.150   4.448   8.487 -0.1890 -0.0233 -0.2918
  144SAPE  H18Y15871   3.182   4.295   8.408  0.0236  0.2791 -0.6091
  144SAPE  H18Z15872   3.323   4.384   8.464 -0.2849 -2.4278 -0.4472
  145SAPE     N15873   4.367   5.317  11.003  0.2131 -0.0146 -0.1341
  145SAPE   HN115874   4.363   5.254  11.086 -0.1851 -1.8905 -1.5310
  145SAPE   HN215875   4.276   5.298  10.957 -1.4955 -0.5576  3.1925
  145SAPE   HN315876   4.446   5.294  10.940 -0.8131 -0.6990 -1.2027
  145SAPE   C1215877   4.348   5.459  11.024 -0.0020 -0.5463 -0.0522
  145SAPE  H12A15878   4.451   5.500  11.015  0.5594 -1.8300  0.3075
  145SAPE  H12B15879   4.320   5.463  11.131 -0.1493 -1.0525 -0.0725
  145SAPE   C1115880   4.235   5.507  10.931  0.3258  0.0254  0.4717
  145SAPE  H11A15881   4.249   5.486  10.823 -0.7824 -1.6982  0.6252
  145SAPE  H11B15882   4.234   5.618  10.937  0.2567  0.0181  0.5975
  145SAPE     P15883   3.970   5.495  10.938 -0.4201  0.1878 -0.2315
  145SAPE   O1315884   3.869   5.387  10.929  0.1469 -0.1020 -0.0284
  145SAPE   O1415885   3.945   5.598  11.033 -0.2030 -0.3906  0.3682
  145SAPE   O1215886   4.110   5.444  10.969 -0.0841 -0.0861 -0.9823
  145SAPE   O1115887   3.981   5.554  10.790  0.1026 -0.1241 -0.5455
  145SAPE    C115888   4.038   5.492  10.675 -0.2645  0.0298 -0.5811
  145SAPE    HA15889   4.132   5.548  10.656 -1.1794  2.4097  1.2808
  145SAPE    HB15890   4.070   5.388  10.699 -1.0635 -0.0035  0.4150
  145SAPE    C215891   3.930   5.500  10.561  0.0768  0.3529 -0.6487
  145SAPE    HS15892   3.873   5.406  10.577 -1.2144  1.2136  0.0092
  145SAPE   O2115893   3.993   5.508  10.439 -0.4371 -0.7665 -0.0573
  145SAPE   C2115894   3.944   5.437  10.339 -0.4164  0.0550 -0.0282
  145SAPE   O2215895   3.843   5.367  10.342 -0.2093 -0.0469 -0.0158
  145SAPE   C2215896   4.039   5.444  10.218  0.3069 -0.5509  0.0259
  145SAPE   H2R15897   4.145   5.455  10.250 -0.0934  0.4223  1.0814
  145SAPE   H2S15898   4.024   5.351  10.159  1.2489 -0.7774  0.1309
  145SAPE    C315899   3.842   5.626  10.575 -0.0057 -0.3039  0.9209
  145SAPE    HX15900   3.897   5.719  10.552  1.0242 -1.3703 -1.2586
  145SAPE    HY15901   3.798   5.631  10.676  1.1850 -3.1018  1.6990
  145SAPE   O3115902   3.727   5.618  10.480 -0.0863 -0.0257  0.3645
  145SAPE   C3115903   3.613   5.555  10.511  0.1765 -0.0125  0.2511
  145SAPE   O3215904   3.586   5.516  10.624 -0.0076 -0.4195 -0.1266
  145SAPE   C3215905   3.520   5.559  10.391  0.6375  0.1020  0.3002
  145SAPE   H2X15906   3.531   5.659  10.343 -2.6286  1.2940  1.7460
  145SAPE   H2Y15907   3.413   5.547  10.418  0.0788 -1.9853 -2.4687
  145SAPE   C2315908   4.019   5.574  10.134 -0.5069  0.7549 -0.6344
  145SAPE   H3R15909   4.110   5.573  10.071  1.8296 -1.0043  2.5001
  145SAPE   H3S15910   4.011   5.671  10.187  0.4317  0.0525  0.8386
  145SAPE   C2415911   3.894   5.551  10.045 -0.3430 -0.3153 -0.0513
  145SAPE   H4R15912   3.809   5.545  10.116  0.3018  2.1676  1.0283
  145SAPE   H4S15913   3.897   5.459   9.982  0.1364  1.0984 -2.2170
  145SAPE   C2515914   3.874   5.672   9.960 -0.2471 -0.2816  0.2165
  145SAPE   H5R15915   3.855   5.772  10.001  0.1916  0.8717 -2.2047
  145SAPE   C2615916   3.871   5.673   9.822 -0.2693 -0.5114  0.5613
  145SAPE   H6R15917   3.843   5.767   9.772  0.2260 -0.2264  0.8205
  145SAPE   C2715918   3.888   5.565   9.719 -0.1866 -0.2327 -0.7482
  145SAPE   H7R15919   3.942   5.474   9.753 -2.5027 -2.0199 -1.5973
  145SAPE   H7S15920   3.960   5.614   9.650  0.2325  0.1564 -0.0375
  145SAPE   C2815921   3.759   5.510   9.665  0.1488  0.7764 -0.5283
  145SAPE   H8R15922   3.700   5.450   9.735 -1.5748  2.0062 -0.8827
  145SAPE   C2915923   3.724   5.549   9.548  0.6426 -0.1471  0.2978
  145SAPE   H9R15924   3.637   5.491   9.514  2.1794 -0.5377 -3.5882
  145SAPE  C21015925   3.789   5.642   9.442  0.1666  0.3351 -0.2592
  145SAPE  H10R15926   3.828   5.582   9.357 -0.2678 -0.2285 -0.0656
  145SAPE  H10S15927   3.869   5.708   9.480 -1.0171  2.3270 -1.0830
  145SAPE  C21115928   3.674   5.730   9.392  0.8154 -0.2153 -0.7823
  145SAPE  H11R15929   3.601   5.771   9.464  1.2748  1.6234 -1.3075
  145SAPE  C21215930   3.640   5.739   9.252  1.1720 -0.3682 -1.5130
  145SAPE  H12R15931   3.549   5.790   9.217  0.6424 -0.7753 -0.7524
  145SAPE  C21315932   3.712   5.678   9.131 -0.0504  0.1758  0.5029
  145SAPE  H13R15933   3.654   5.600   9.078  0.6464 -0.5282  0.7622
  145SAPE  H13S15934   3.794   5.613   9.168  0.9119  1.8370  1.3867
  145SAPE  C21415935   3.770   5.778   9.038 -0.5680  0.4638  0.1951
  145SAPE  H14R15936   3.873   5.810   9.062  0.3233  1.1039 -3.7392
  145SAPE  C21515937   3.733   5.826   8.917 -0.4752 -0.0027 -0.4126
  145SAPE  H15R15938   3.789   5.896   8.853 -0.0116 -0.3477 -0.3964
  145SAPE  C21615939   3.605   5.785   8.849  0.5395 -0.1293 -0.2747
  145SAPE  H16R15940   3.525   5.859   8.866  1.2421  1.0500 -1.8789
  145SAPE  H16S15941   3.564   5.691   8.892  0.7319 -0.2816 -0.4227
  145SAPE  C21715942   3.624   5.781   8.694  0.3580 -0.0728 -0.6379
  145SAPE  H17R15943   3.523   5.737   8.680 -1.0723  2.4626  0.9828
  145SAPE  H17S15944   3.701   5.713   8.651 -2.0693 -2.5586 -1.2961
  145SAPE  C21815945   3.626   5.919   8.632  0.2864 -0.1720  0.3644
  145SAPE  H18R15946   3.719   5.973   8.661  0.3741 -0.6016  0.8952
  145SAPE  H18S15947   3.537   5.967   8.677 -0.1183 -1.1648  0.6526
  145SAPE  C21915948   3.625   5.915   8.480 -0.2361 -0.1197  0.3426
  145SAPE  H19R15949   3.627   6.025   8.460  0.9516  0.3071  2.5516
  145SAPE  H19S15950   3.531   5.875   8.436 -0.4032  0.7043 -0.0649
  145SAPE  C22015951   3.746   5.851   8.419 -0.4885 -0.7942  0.2769
  145SAPE  H20R15952   3.762   5.744   8.442  1.1485 -0.1329  2.6512
  145SAPE  H20S15953   3.842   5.902   8.443 -1.3658 -0.0260  2.4545
  145SAPE  H20T15954   3.726   5.855   8.310 -0.5818 -0.8004  0.2942
  145SAPE   C3315955   3.551   5.446  10.293 -0.1082 -0.7714 -0.1340
  145SAPE   H3X15956   3.529   5.351  10.346  0.5021  0.0565  1.7081
  145SAPE   H3Y15957   3.652   5.458  10.247 -0.7942 -1.0015 -1.7535
  145SAPE   C3415958   3.452   5.436  10.174  0.2843  0.0864 -0.4913
  145SAPE   H4X15959   3.355   5.490  10.180  0.8940  1.1802 -0.2166
  145SAPE   H4Y15960   3.442   5.328  10.151 -0.5040 -0.1450  0.7936
  145SAPE   C3515961   3.515   5.508  10.049  0.2080  0.5399 -0.3407
  145SAPE   H5X15962   3.621   5.478  10.030 -0.4748 -2.4359  0.0055
  145SAPE   H5Y15963   3.507   5.618  10.060 -0.4270  0.5643 -0.9754
  145SAPE   C3615964   3.444   5.469   9.917  0.3281  0.6015  0.3815
  145SAPE   H6X15965   3.442   5.360   9.897  1.1683  0.9000 -1.5583
  145SAPE   H6Y15966   3.500   5.508   9.830 -2.7099  1.1376 -1.4734
  145SAPE   C3715967   3.310   5.541   9.901 -0.7744  0.1226 -0.4273
  145SAPE   H7X15968   3.331   5.650   9.904  1.4585 -0.1565 -2.7173
  145SAPE   H7Y15969   3.236   5.522   9.982 -1.0208 -0.0448 -0.6888
  145SAPE   C3815970   3.228   5.514   9.777 -0.3159 -0.1681  0.3078
  145SAPE   H8X15971   3.154   5.596   9.765  0.1589  0.1183 -0.9006
  145SAPE   H8Y15972   3.175   5.418   9.787  1.8752 -1.5639 -0.6130
  145SAPE   C3915973   3.315   5.512   9.647 -0.0676  0.0630  0.1011
  145SAPE   H9X15974   3.372   5.417   9.639 -1.0452 -0.4789 -0.5500
  145SAPE   H9Y15975   3.391   5.593   9.647  0.5198 -0.4783  0.7310
  145SAPE  C31015976   3.227   5.534   9.519 -0.9726  1.2499  0.3480
  145SAPE  H10X15977   3.186   5.637   9.518  1.4755  2.2903 -0.9648
  145SAPE  H10Y15978   3.142   5.462   9.526  0.3733 -0.3265  1.2055
  145SAPE  C31115979   3.310   5.508   9.394 -0.2164 -0.3025 -0.2324
  145SAPE  H11X15980   3.340   5.402   9.393 -2.5117 -1.0117 -0.1243
  145SAPE  H11Y15981   3.397   5.577   9.395 -0.9043  0.5841 -0.3068
  145SAPE  C31215982   3.229   5.514   9.261  0.2433 -0.2169 -0.4635
  145SAPE  H12X15983   3.157   5.598   9.253 -0.4678 -0.8990 -1.3722
  145SAPE  H12Y15984   3.171   5.421   9.242  1.3249 -0.5422 -2.4650
  145SAPE  C31315985   3.325   5.516   9.137  0.2336  0.4739  0.1929
  145SAPE  H13X15986   3.380   5.420   9.149 -1.0193 -0.2260  0.6323
  145SAPE  H13Y15987   3.401   5.596   9.150  0.1613  0.8670 -1.6556
  145SAPE  C31415988   3.252   5.541   8.998  0.4585  0.1715 -0.6852
  145SAPE  H14X15989   3.157   5.484   8.994 -0.4670  1.4667  1.1947
  145SAPE  H14Y15990   3.317   5.503   8.917  1.9494 -2.5888  1.6298
  145SAPE  C31515991   3.225   5.688   8.972 -0.0987 -0.4015  0.6512
  145SAPE  H15X15992   3.325   5.737   8.981  1.0342 -2.3331 -0.6847
  145SAPE  H15Y15993   3.154   5.724   9.049  1.2783  0.1360  1.7257
  145SAPE  C31615994   3.173   5.703   8.829 -0.8455 -0.3126 -0.0318
  145SAPE  H16X15995   3.082   5.640   8.835 -1.1170  0.1047  0.2813
  145SAPE  H16Y15996   3.240   5.667   8.748 -1.1477  0.6933 -0.7609
  145SAPE  C31715997   3.148   5.847   8.795  0.6299 -0.2536 -0.4200
  145SAPE  H17X15998   3.144   5.870   8.687 -0.6683 -0.4047 -0.4168
  145SAPE  H17Y15999   3.227   5.912   8.839  1.0754 -0.2450 -1.2206
  145SAPE  C31816000   3.014   5.902   8.850  0.0453 -0.0055  0.8730
  145SAPE  H18X16001   2.986   5.998   8.802  0.1776 -0.3753  0.0561
  145SAPE  H18Y16002   3.024   5.924   8.959 -0.1875  0.5865  0.7773
  145SAPE  H18Z16003   2.922   5.841   8.837 -0.8811  1.4092  0.4987
  146SAPE     N16004   5.125   2.787  10.925  0.2249  0.2481  0.0735
  146SAPE   HN116005   5.022   2.803  10.923  0.4037  1.5855  0.7476
  146SAPE   HN216006   5.143   2.758  11.023 -2.7753  0.1538  0.6894
  146SAPE   HN316007   5.153   2.886  10.916 -1.5624  0.7742 -0.0355
  146SAPE   C1216008   5.179   2.696  10.819  0.6360 -0.3451 -0.3078
  146SAPE  H12A16009   5.289   2.690  10.827  0.5370 -1.9812  0.1556
  146SAPE  H12B16010   5.163   2.748  10.722 -1.9284  0.7597  0.6149
  146SAPE   C1116011   5.122   2.550  10.825  0.4065 -0.2825 -0.0323
  146SAPE  H11A16012   5.160   2.499  10.734 -0.3366  0.4738 -0.7888
  146SAPE  H11B16013   5.011   2.556  10.824  0.3462  2.7179  3.1333
  146SAPE     P16014   5.279   2.434  10.997 -0.3572 -0.1009 -0.0210
  146SAPE   O1316015   5.358   2.543  11.059 -0.1090  0.2683 -0.1563
  146SAPE   O1416016   5.254   2.313  11.081 -0.0631  0.5711 -0.1392
  146SAPE   O1216017   5.148   2.497  10.950 -0.4723  0.8904 -0.6520
  146SAPE   O1116018   5.348   2.393  10.862  0.0424 -0.2231  0.2500
  146SAPE    C116019   5.303   2.275  10.807 -0.1768 -0.1802  0.1424
  146SAPE    HA16020   5.324   2.184  10.866 -0.2611  0.8829  1.8967
  146SAPE    HB16021   5.193   2.275  10.789 -0.1738  0.6789  0.0555
  146SAPE    C216022   5.359   2.245  10.662 -0.3181 -0.5221  0.1065
  146SAPE    HS16023   5.466   2.221  10.679  0.4615  3.6584  2.3541
  146SAPE   O2116024   5.337   2.368  10.583  0.2042  0.2480 -0.5752
  146SAPE   C2116025   5.447   2.417  10.519 -0.5776  0.0918 -0.1255
  146SAPE   O2216026   5.557   2.366  10.525 -0.0077 -0.2425  0.7216
  146SAPE   C2216027   5.419   2.543  10.434 -0.3398  0.2994 -0.0891
  146SAPE   H2R16028   5.517   2.565  10.387  0.3586 -1.0707  0.6463
  146SAPE   H2S16029   5.353   2.517  10.348 -2.3178  1.2209  1.0824
  146SAPE    C316030   5.289   2.124  10.596 -0.0970 -0.2985  0.3296
  146SAPE    HX16031   5.180   2.145  10.588 -0.5606 -1.9913  1.6532
  146SAPE    HY16032   5.286   2.040  10.668 -0.7215 -0.8252 -0.2910
  146SAPE   O3116033   5.344   2.100  10.466 -0.1441  0.4642  0.6836
  146SAPE   C3116034   5.450   2.006  10.467  0.6860  0.0594  0.3527
  146SAPE   O3216035   5.492   1.964  10.570  0.1107  0.3207 -0.4275
  146SAPE   C3216036   5.485   1.967  10.323  0.6517  0.6983 -0.0528
  146SAPE   H2X16037   5.551   2.039  10.269  2.1460 -1.1469 -0.8046
  146SAPE   H2Y16038   5.387   1.967  10.270  0.9152  1.0288 -0.5584
  146SAPE   C2316039   5.366   2.665  10.515 -0.3206  0.7961  0.6746
  146SAPE   H3R16040   5.446   2.683  10.590  0.4657 -0.8383  0.2664
  146SAPE   H3S16041   5.267   2.640  10.560  0.4633 -0.9436  1.4917
  146SAPE   C2416042   5.352   2.782  10.424 -0.1512  0.4178  0.0932
  146SAPE   H4R16043   5.448   2.800  10.371  0.1327 -1.3252 -0.0309
  146SAPE   H4S16044   5.342   2.871  10.490 -0.8732 -1.8930  3.3539
  146SAPE   C2516045   5.221   2.791  10.343 -0.5464  0.5558  0.1750
  146SAPE   H5R16046   5.132   2.805  10.407  0.0670 -0.6928  1.3414
  146SAPE   C2616047   5.206   2.801  10.205  0.2508  0.4492  0.8900
  146SAPE   H6R16048   5.109   2.822  10.157 -0.1696  1.2767  2.0398
  146SAPE   C2716049   5.320   2.786  10.106  1.0728 -0.1091  0.5244
  146SAPE   H7R16050   5.419   2.791  10.156  1.1834 -0.2190  0.3171
  146SAPE   H7S16051   5.325   2.879  10.044  2.7663  0.4919  1.4674
  146SAPE   C2816052   5.324   2.671  10.001  0.1616  0.0236  0.0956
  146SAPE   H8R16053   5.348   2.572  10.042  2.1501  0.1095 -0.7920
  146SAPE   C2916054   5.289   2.677   9.873 -0.1551 -0.0765  0.0210
  146SAPE   H9R16055   5.301   2.586   9.813  0.5364  0.1480 -0.1866
  146SAPE  C21016056   5.231   2.793   9.798  0.5517  0.4920  0.0489
  146SAPE  H10R16057   5.301   2.877   9.777 -0.0813  0.8564 -0.6646
  146SAPE  H10S16058   5.169   2.839   9.878 -1.1687 -0.0501 -0.9171
  146SAPE  C21116059   5.160   2.744   9.677  0.0653 -0.0136 -0.3369
  146SAPE  H11R16060   5.093   2.662   9.708  1.0664 -0.5703  0.4278
  146SAPE  C21216061   5.184   2.777   9.551  0.0344  0.4260 -0.3216
  146SAPE  H12R16062   5.112   2.730   9.482  0.1362 -0.1352 -0.0566
  146SAPE  C21316063   5.278   2.886   9.499  0.5835  0.4216 -0.5579
  146SAPE  H13R16064   5.372   2.871   9.557 -1.2654 -2.3971  1.9761
  146SAPE  H13S16065   5.228   2.980   9.529  1.4665  0.4513  0.9210
  146SAPE  C21416066   5.297   2.889   9.352 -0.6714  0.8603 -0.0828
  146SAPE  H14R16067   5.207   2.906   9.291 -2.5454 -3.6115  1.0421
  146SAPE  C21516068   5.419   2.903   9.296  0.3410 -0.9443  0.0938
  146SAPE  H15R16069   5.434   2.905   9.187 -1.0686  0.3239 -0.1094
  146SAPE  C21616070   5.551   2.905   9.367  0.0108 -0.1520  0.4100
  146SAPE  H16R16071   5.536   2.935   9.472  0.4958  0.3569  0.3397
  146SAPE  H16S16072   5.624   2.983   9.336  0.5495 -0.9737 -0.4806
  146SAPE  C21716073   5.618   2.766   9.356 -0.3563 -0.0917  0.1782
  146SAPE  H17R16074   5.549   2.681   9.378  1.4173 -2.2144 -1.8609
  146SAPE  H17S16075   5.701   2.782   9.428 -0.3309 -1.2910  0.4522
  146SAPE  C21816076   5.683   2.731   9.220 -0.4563 -0.2032 -0.0184
  146SAPE  H18R16077   5.613   2.697   9.141  1.3967 -0.1834 -1.7674
  146SAPE  H18S16078   5.756   2.647   9.230  1.5909  1.2594 -1.7797
  146SAPE  C21916079   5.773   2.842   9.172  0.4662 -1.1189 -0.3713
  146SAPE  H19R16080   5.840   2.878   9.253  1.3285  0.9342 -1.8917
  146SAPE  H19S16081   5.709   2.928   9.141  0.4963 -1.1392 -0.4867
  146SAPE  C22016082   5.859   2.807   9.050 -0.3819 -0.1242  0.2749
  146SAPE  H20R16083   5.795   2.797   8.960  0.4452 -1.8992 -0.1705
  146SAPE  H20S16084   5.920   2.715   9.059 -0.1465 -0.0989 -0.9104
  146SAPE  H20T16085   5.918   2.901   9.041 -1.5181  0.5794 -0.0677
  146SAPE   C3316086   5.557   1.825  10.310 -0.1103 -0.0775  0.3271
  146SAPE   H3X16087   5.530   1.783  10.210 -0.3979  1.9325 -0.4796
  146SAPE   H3Y16088   5.510   1.762  10.388 -0.4406  2.2200  2.0499
  146SAPE   C3416089   5.711   1.815  10.327 -0.1904 -0.8307 -0.0771
  146SAPE   H4X16090   5.731   1.711  10.360  0.8287 -0.5142  0.3712
  146SAPE   H4Y16091   5.746   1.877  10.413  1.5587 -1.5674 -0.1995
  146SAPE   C3516092   5.800   1.833  10.199  0.5973 -1.0277 -0.1375
  146SAPE   H5X16093   5.903   1.855  10.234 -0.3444  2.0979  1.0162
  146SAPE   H5Y16094   5.771   1.931  10.155  2.4283 -0.2273  0.3224
  146SAPE   C3616095   5.795   1.725  10.093 -0.2070 -0.2400  0.0660
  146SAPE   H6X16096   5.687   1.709  10.075 -0.0421 -2.0003  0.4858
  146SAPE   H6Y16097   5.817   1.627  10.140 -1.8411  0.2081  1.8668
  146SAPE   C3716098   5.862   1.762   9.962  0.3533 -0.8725  1.2278
  146SAPE   H7X16099   5.967   1.788   9.989  0.2760 -0.7721  1.4276
  146SAPE   H7Y16100   5.823   1.858   9.924  1.0130  0.1113  2.9390
  146SAPE   C3816101   5.857   1.652   9.849  0.7667  0.3087 -0.1773
  146SAPE   H8X16102   5.766   1.662   9.787 -0.2246 -0.5741  1.0759
  146SAPE   H8Y16103   5.853   1.553   9.899  2.1538 -0.0316 -0.7092
  146SAPE   C3916104   5.977   1.649   9.757 -0.1846  0.3302 -0.8914
  146SAPE   H9X16105   6.049   1.576   9.798 -1.8726 -0.9423 -0.0687
  146SAPE   H9Y16106   6.020   1.751   9.752 -2.9718  1.7321  1.0522
  146SAPE  C31016107   5.948   1.607   9.616 -0.1804 -0.2626  0.9020
  146SAPE  H10X16108   5.891   1.693   9.575  1.7830  0.0502 -1.4156
  146SAPE  H10Y16109   5.881   1.518   9.613 -1.3150  0.5204  1.7737
  146SAPE  C31116110   6.067   1.589   9.532  0.2572 -0.0517  0.0257
  146SAPE  H11X16111   6.136   1.504   9.551  0.0467  0.3282  2.9950
  146SAPE  H11Y16112   6.133   1.678   9.529  0.1798  0.0955  1.8166
  146SAPE  C31216113   6.016   1.567   9.382 -0.3547 -0.0474 -0.7456
  146SAPE  H12X16114   6.116   1.577   9.335 -0.1930 -1.7533 -0.8140
  146SAPE  H12Y16115   5.954   1.650   9.344  3.7491  3.9643  0.3655
  146SAPE  C31316116   5.977   1.424   9.341 -0.0913 -0.8679  0.6399
  146SAPE  H13X16117   5.868   1.418   9.360 -0.5246  1.3530 -0.7766
  146SAPE  H13Y16118   6.027   1.354   9.411 -0.4132 -1.7060  0.0402
  146SAPE  C31416119   6.011   1.397   9.196 -0.7113 -0.0818  0.4303
  146SAPE  H14X16120   6.119   1.391   9.174 -0.8274  0.9426 -0.4859
  146SAPE  H14Y16121   5.981   1.478   9.126 -0.3418  0.2087  0.6045
  146SAPE  C31516122   5.942   1.267   9.145  0.1810 -0.3285  0.9974
  146SAPE  H15X16123   5.833   1.281   9.162  0.0404 -1.3069  0.9684
  146SAPE  H15Y16124   5.977   1.175   9.197 -0.2174 -0.5374  0.9001
  146SAPE  C31616125   5.950   1.252   8.995 -0.0557  0.4566 -0.5097
  146SAPE  H16X16126   5.929   1.346   8.940 -1.1914 -0.7507 -2.2580
  146SAPE  H16Y16127   5.873   1.181   8.957 -1.3297  0.6523  1.5375
  146SAPE  C31716128   6.089   1.199   8.956 -0.4071  0.2707  0.0244
  146SAPE  H17X16129   6.110   1.105   9.012 -0.7256  0.9693  1.3617
  146SAPE  H17Y16130   6.167   1.260   9.005  0.8507 -0.3667 -1.1336
  146SAPE  C31816131   6.122   1.216   8.803 -0.0915  0.6535  0.2138
  146SAPE  H18X16132   6.117   1.322   8.771  1.3866  1.1934  1.6319
  146SAPE  H18Y16133   6.060   1.159   8.731  0.1911  1.7933 -0.9677
  146SAPE  H18Z16134   6.222   1.171   8.787 -0.2042  0.6099 -0.3989
  147SAPE     N16135   4.915   3.005   6.415 -0.3936  0.3441  0.4114
  147SAPE   HN116136   4.824   3.033   6.372 -1.6695 -3.0086  0.6157
  147SAPE   HN216137   4.953   3.078   6.479 -0.1327  0.8365 -0.2943
  147SAPE   HN316138   4.975   2.996   6.331  0.8461 -2.2538  1.4707
  147SAPE   C1216139   4.890   2.887   6.500 -0.4712  0.6304  0.3257
  147SAPE  H12A16140   4.872   2.917   6.606  4.6357 -0.0884  1.6401
  147SAPE  H12B16141   4.991   2.842   6.499  0.0517  1.7571 -1.1951
  147SAPE   C1116142   4.792   2.791   6.437  0.2517 -0.1787  0.4118
  147SAPE  H11A16143   4.786   2.699   6.499 -0.5759 -0.7748 -0.5210
  147SAPE  H11B16144   4.830   2.759   6.338  0.2985  1.7862 -0.2551
  147SAPE     P16145   4.600   2.901   6.293  0.0241  0.1030  0.1175
  147SAPE   O1316146   4.674   3.029   6.251  0.1221  0.0839 -0.5766
  147SAPE   O1416147   4.604   2.784   6.204 -0.5762 -0.6378  0.1386
  147SAPE   O1216148   4.664   2.856   6.425 -0.3650 -0.0714  0.1491
  147SAPE   O1116149   4.447   2.931   6.316 -0.2331 -0.0886  0.0197
  147SAPE    C116150   4.396   3.062   6.331  0.0418  0.0873 -0.2842
  147SAPE    HA16151   4.445   3.126   6.254  1.0021  0.1756  0.3833
  147SAPE    HB16152   4.289   3.059   6.302 -0.2335  1.3561  0.5210
  147SAPE    C216153   4.407   3.097   6.478 -0.4763 -0.7727 -0.4673
  147SAPE    HS16154   4.512   3.079   6.512 -0.1573 -0.2778 -1.1636
  147SAPE   O2116155   4.300   3.027   6.546  0.3050  0.2182 -0.3704
  147SAPE   C2116156   4.336   2.947   6.647 -0.3601  0.1474  0.1827
  147SAPE   O2216157   4.452   2.940   6.689  0.0944  0.0603 -0.3686
  147SAPE   C2216158   4.206   2.900   6.703  0.2775  0.0439 -0.5528
  147SAPE   H2R16159   4.128   2.978   6.715 -0.0197 -0.1870 -0.9627
  147SAPE   H2S16160   4.158   2.821   6.641 -0.6947  0.3751 -0.2456
  147SAPE    C316161   4.381   3.252   6.488  0.3940  0.4836 -0.2471
  147SAPE    HX16162   4.284   3.292   6.450 -0.5108  1.7038  2.9967
  147SAPE    HY16163   4.458   3.302   6.426 -0.3582  2.0108 -0.0030
  147SAPE   O3116164   4.390   3.306   6.624  0.2932  0.0151 -0.0500
  147SAPE   C3116165   4.512   3.324   6.673 -0.2194  0.0647  1.1715
  147SAPE   O3216166   4.613   3.289   6.613 -0.4135 -0.1896  0.1796
  147SAPE   C3216167   4.498   3.394   6.808 -0.0803  0.0228 -0.0406
  147SAPE   H2X16168   4.460   3.325   6.887 -0.7576 -0.5367 -0.8394
  147SAPE   H2Y16169   4.411   3.462   6.792 -1.1552 -0.6683  2.3301
  147SAPE   C2316170   4.220   2.850   6.851 -0.5372  0.3128 -0.1372
  147SAPE   H3R16171   4.260   2.935   6.910  1.0811  1.4229 -2.6450
  147SAPE   H3S16172   4.304   2.778   6.864  2.2978  3.1741 -1.2979
  147SAPE   C2416173   4.085   2.809   6.918 -0.4444 -0.1441  0.7981
  147SAPE   H4R16174   4.115   2.734   6.993  1.1765 -0.4800 -0.1364
  147SAPE   H4S16175   4.024   2.761   6.838 -1.0075  3.2995 -1.0460
  147SAPE   C2516176   4.017   2.935   6.970 -0.0417  1.1304  0.2189
  147SAPE   H5R16177   3.982   3.003   6.891 -1.5690 -0.4790 -0.5576
  147SAPE   C2616178   3.976   2.967   7.095 -0.4249 -0.6319  0.1387
  147SAPE   H6R16179   3.917   3.058   7.114 -1.0402 -1.2456  1.3092
  147SAPE   C2716180   3.999   2.890   7.222 -0.2636  0.4809  0.6932
  147SAPE   H7R16181   4.082   2.938   7.277 -0.7389 -1.4676  3.3008
  147SAPE   H7S16182   4.032   2.787   7.196  1.5673  0.4801  2.7646
  147SAPE   C2816183   3.868   2.884   7.298 -0.5128 -0.1671  0.1192
  147SAPE   H8R16184   3.787   2.843   7.237 -0.2983 -1.0835  0.4394
  147SAPE   C2916185   3.859   2.897   7.432  0.3659 -0.9604  0.3812
  147SAPE   H9R16186   3.759   2.893   7.478  0.3637  0.6831  0.5840
  147SAPE  C21016187   3.982   2.911   7.520  0.9818 -0.2808 -0.0609
  147SAPE  H10R16188   3.996   3.019   7.541  1.2061 -0.4724  0.7818
  147SAPE  H10S16189   4.073   2.869   7.474 -0.6849 -1.0890 -2.8810
  147SAPE  C21116190   3.968   2.830   7.647 -0.1526  0.9172  0.4235
  147SAPE  H11R16191   4.011   2.730   7.637 -0.0120  1.0523 -0.3927
  147SAPE  C21216192   3.907   2.872   7.761 -0.2834  0.2933  0.1344
  147SAPE  H12R16193   3.912   2.806   7.848 -2.1751 -0.5112 -0.3073
  147SAPE  C21316194   3.834   2.999   7.780 -0.2801  0.3729 -0.1538
  147SAPE  H13R16195   3.857   3.066   7.694  2.5351 -1.8737 -1.3022
  147SAPE  H13S16196   3.858   3.054   7.874 -1.2379  0.7909 -0.1397
  147SAPE  C21416197   3.687   2.981   7.761  1.2021  0.4001 -0.9581
  147SAPE  H14R16198   3.672   2.934   7.663  0.3034 -0.2673 -0.5090
  147SAPE  C21516199   3.590   3.006   7.850  0.2191  0.8425 -0.0641
  147SAPE  H15R16200   3.486   2.976   7.826 -0.2612  1.4588  1.1690
  147SAPE  C21616201   3.611   3.063   7.992  0.2833  0.6306  0.1366
  147SAPE  H16R16202   3.714   3.103   8.007  0.9520 -1.0356  0.1989
  147SAPE  H16S16203   3.589   2.990   8.072 -0.1140  2.4320  1.7498
  147SAPE  C21716204   3.495   3.165   8.008  0.4926  0.1209 -0.5009
  147SAPE  H17R16205   3.404   3.129   7.954  1.9846 -3.1265 -1.0455
  147SAPE  H17S16206   3.519   3.268   7.972 -0.8225  1.2617  1.6243
  147SAPE  C21816207   3.448   3.177   8.152  0.0776  0.5307 -0.2799
  147SAPE  H18R16208   3.531   3.208   8.219  1.0822 -1.3747 -0.5554
  147SAPE  H18S16209   3.406   3.079   8.184  1.8380 -0.0406  0.3953
  147SAPE  C21916210   3.331   3.267   8.189  0.0567 -0.1486  1.0213
  147SAPE  H19R16211   3.276   3.238   8.281 -0.9821  3.1552  1.5761
  147SAPE  H19S16212   3.261   3.254   8.104  1.1788  0.5025 -0.0449
  147SAPE  C22016213   3.376   3.415   8.196  0.0748 -0.6628 -0.3526
  147SAPE  H20R16214   3.286   3.479   8.207 -0.1337 -0.7484 -1.5077
  147SAPE  H20S16215   3.417   3.439   8.096  2.0991  2.0102  0.9865
  147SAPE  H20T16216   3.444   3.432   8.283 -2.2051  0.7344  1.2891
  147SAPE   C3316217   4.625   3.471   6.851  0.8400  0.3197 -0.2552
  147SAPE   H3X16218   4.642   3.547   6.772 -0.6945  1.1024  0.1304
  147SAPE   H3Y16219   4.701   3.391   6.860  0.3241 -0.0091  1.4352
  147SAPE   C3416220   4.622   3.532   6.993  0.3400 -0.0941 -0.2586
  147SAPE   H4X16221   4.545   3.611   7.005  1.4257  0.5566  3.9671
  147SAPE   H4Y16222   4.723   3.572   7.016  0.6811  0.3476 -2.3485
  147SAPE   C3516223   4.578   3.434   7.104  0.3115  0.0768 -0.0991
  147SAPE   H5X16224   4.647   3.347   7.114 -1.1442 -0.9935  1.1552
  147SAPE   H5Y16225   4.476   3.400   7.074  0.5264 -0.5970 -0.0835
  147SAPE   C3616226   4.569   3.503   7.243  0.0593 -0.1071  0.5235
  147SAPE   H6X16227   4.517   3.601   7.227  1.7474  0.4722 -2.1078
  147SAPE   H6Y16228   4.673   3.520   7.278  0.0906 -2.1386  1.4996
  147SAPE   C3716229   4.500   3.415   7.354 -0.1092 -0.3598  0.1813
  147SAPE   H7X16230   4.565   3.334   7.392 -0.7762 -0.4755  1.1027
  147SAPE   H7Y16231   4.400   3.375   7.328 -0.1918 -1.9008  2.5772
  147SAPE   C3816232   4.466   3.496   7.484  0.1109 -0.2034  0.3062
  147SAPE   H8X16233   4.370   3.548   7.468 -0.1313  0.7008  3.9008
  147SAPE   H8Y16234   4.534   3.584   7.485 -0.4882  0.3286 -1.7457
  147SAPE   C3916235   4.446   3.407   7.603 -0.0075  0.0392 -0.6502
  147SAPE   H9X16236   4.541   3.352   7.622  0.0722  0.8634  1.5060
  147SAPE   H9Y16237   4.363   3.338   7.575  0.3579 -0.5726 -0.2586
  147SAPE  C31016238   4.414   3.478   7.735 -0.3687  0.4397 -0.5213
  147SAPE  H10X16239   4.308   3.511   7.724 -0.3527  0.6453 -0.0632
  147SAPE  H10Y16240   4.480   3.564   7.760 -0.6931  0.7109 -0.5885
  147SAPE  C31116241   4.414   3.374   7.852 -0.3135  0.7661 -0.6898
  147SAPE  H11X16242   4.514   3.327   7.849 -0.8349 -0.4035 -0.1993
  147SAPE  H11Y16243   4.335   3.297   7.844 -1.4912  1.5137  2.3469
  147SAPE  C31216244   4.394   3.442   7.987  0.3810  0.1094  0.0684
  147SAPE  H12X16245   4.305   3.507   7.974  0.1837 -0.6408 -3.0564
  147SAPE  H12Y16246   4.479   3.510   8.010 -0.2855  1.2864 -0.8227
  147SAPE  C31316247   4.370   3.344   8.100  0.5143 -0.0165  0.0321
  147SAPE  H13X16248   4.298   3.265   8.069  1.2074 -2.0338  3.0498
  147SAPE  H13Y16249   4.334   3.385   8.197 -2.9023 -0.7559 -0.8013
  147SAPE  C31416250   4.502   3.277   8.143  0.2034 -0.2271  0.4555
  147SAPE  H14X16251   4.536   3.225   8.051 -2.7219 -1.6460  0.0730
  147SAPE  H14Y16252   4.483   3.191   8.212 -2.1583  1.0745  1.5397
  147SAPE  C31516253   4.625   3.372   8.196  0.9507  0.0670  0.1090
  147SAPE  H15X16254   4.670   3.429   8.111  0.7490 -1.0729 -0.7841
  147SAPE  H15Y16255   4.702   3.308   8.244  0.8060 -0.5309 -0.4361
  147SAPE  C31616256   4.583   3.478   8.298  0.0989  0.3923 -0.5113
  147SAPE  H16X16257   4.503   3.535   8.247 -0.1456  0.0753 -0.4894
  147SAPE  H16Y16258   4.668   3.545   8.321  0.0704  0.5549 -0.8694
  147SAPE  C31716259   4.521   3.419   8.426  0.1029  0.2452 -0.1434
  147SAPE  H17X16260   4.453   3.336   8.395  0.7647 -0.5590  0.5039
  147SAPE  H17Y16261   4.461   3.502   8.469 -1.1018 -1.0215  0.7263
  147SAPE  C31816262   4.607   3.364   8.528 -0.3882 -0.9712  0.4512
  147SAPE  H18X16263   4.544   3.316   8.606 -0.2805 -0.0633  1.1123
  147SAPE  H18Y16264   4.665   3.447   8.573 -1.7785  1.3818 -1.8095
  147SAPE  H18Z16265   4.682   3.288   8.500 -1.5179 -2.4410  1.2481
  148SAPE     N16266   6.345   0.946   6.353  0.3195 -0.0303 -0.2554
  148SAPE   HN116267   6.274   0.883   6.395 -0.7000  0.8735 -0.5732
  148SAPE   HN216268   6.359   1.030   6.414  2.4672 -0.1389 -0.5316
  148SAPE   HN316269   6.317   0.981   6.259 -1.7881 -1.8638 -0.3992
  148SAPE   C1216270   6.486   0.882   6.353 -0.0007 -0.3664  0.2040
  148SAPE  H12A16271   6.556   0.951   6.300 -0.8365  1.4938  1.4231
  148SAPE  H12B16272   6.473   0.790   6.293  0.1912  0.1675 -0.6749
  148SAPE   C1116273   6.533   0.850   6.494 -0.1878  0.3622 -0.0320
  148SAPE  H11A16274   6.627   0.791   6.488 -0.0526  0.4746  0.8452
  148SAPE  H11B16275   6.449   0.789   6.533  1.8435 -1.4366  1.7236
  148SAPE     P16276   6.691   1.048   6.574  0.0629  0.2057 -0.1198
  148SAPE   O1316277   6.789   0.960   6.642 -0.1087  0.2717 -0.0416
  148SAPE   O1416278   6.736   1.089   6.437 -0.1488 -0.0066  0.3583
  148SAPE   O1216279   6.545   0.971   6.568  0.3958  0.3029  0.9844
  148SAPE   O1116280   6.658   1.184   6.663  0.0496  0.3552  0.4703
  148SAPE    C116281   6.609   1.162   6.794 -0.4176  0.5122  0.0601
  148SAPE    HA16282   6.620   1.055   6.822  1.9791  0.2144 -1.6755
  148SAPE    HB16283   6.650   1.237   6.864  1.6923  0.4293 -0.9966
  148SAPE    C216284   6.454   1.197   6.809 -0.4043  0.2440 -0.4586
  148SAPE    HS16285   6.402   1.178   6.712  2.5834  0.8804 -2.3021
  148SAPE   O2116286   6.438   1.325   6.865 -0.1572  0.2046  0.4114
  148SAPE   C2116287   6.335   1.388   6.814 -0.4394 -0.2969 -0.6229
  148SAPE   O2216288   6.257   1.344   6.729 -0.9255 -0.0813 -0.0260
  148SAPE   C2216289   6.334   1.528   6.876 -0.3932  0.3059 -0.3310
  148SAPE   H2R16290   6.297   1.528   6.980 -0.5519  1.7649 -0.3590
  148SAPE   H2S16291   6.438   1.567   6.884  0.5177 -1.5741 -2.0300
  148SAPE    C316292   6.392   1.102   6.915  0.0182 -0.1341  0.3547
  148SAPE    HX16293   6.410   0.997   6.884  3.4008  0.1297  1.0162
  148SAPE    HY16294   6.282   1.114   6.926 -0.3180 -2.6049  0.3331
  148SAPE   O3116295   6.468   1.118   7.041  0.1290 -0.0042 -0.2805
  148SAPE   C3116296   6.407   1.187   7.133 -0.4080 -0.0461  0.1851
  148SAPE   O3216297   6.293   1.221   7.139  0.6220  0.0822  0.3973
  148SAPE   C3216298   6.515   1.217   7.247  0.2297 -0.3296  0.4422
  148SAPE   H2X16299   6.567   1.313   7.228  1.9105 -1.6474 -2.2955
  148SAPE   H2Y16300   6.586   1.132   7.254  0.2664 -0.3835 -0.4251
  148SAPE   C2316301   6.243   1.626   6.797  0.2010 -0.2198 -1.0150
  148SAPE   H3R16302   6.158   1.568   6.755 -1.5490  1.6827 -0.1962
  148SAPE   H3S16303   6.301   1.670   6.712 -1.0142 -1.1145 -2.3598
  148SAPE   C2416304   6.175   1.743   6.878  0.1223  0.4617  0.3614
  148SAPE   H4R16305   6.091   1.692   6.930 -0.0719 -1.5230 -1.7174
  148SAPE   H4S16306   6.130   1.808   6.799  1.5311 -0.0748 -0.9480
  148SAPE   C2516307   6.262   1.820   6.974 -0.0734 -0.3358 -0.1830
  148SAPE   H5R16308   6.351   1.860   6.922 -0.5030  2.8581  1.2783
  148SAPE   C2616309   6.247   1.849   7.098 -0.0302  0.7581  0.6551
  148SAPE   H6R16310   6.330   1.909   7.139  2.4246 -0.3960 -2.2296
  148SAPE   C2716311   6.144   1.805   7.192  0.4856 -0.1667 -0.4410
  148SAPE   H7R16312   6.056   1.753   7.147 -0.6312 -0.0058  1.4693
  148SAPE   H7S16313   6.104   1.896   7.240  1.5496  0.3396 -0.4905
  148SAPE   C2816314   6.218   1.715   7.288 -0.1296  0.2324  0.1163
  148SAPE   H8R16315   6.188   1.610   7.277 -3.6051  1.0484  0.8921
  148SAPE   C2916316   6.298   1.757   7.390 -0.1822 -0.2171 -0.1714
  148SAPE   H9R16317   6.355   1.678   7.441 -1.2166  0.1922  1.7474
  148SAPE  C21016318   6.345   1.897   7.423  0.8464 -0.2863  0.2096
  148SAPE  H10R16319   6.256   1.964   7.427  0.2030 -1.1643  1.1472
  148SAPE  H10S16320   6.404   1.922   7.332  0.3620  2.7894  0.6417
  148SAPE  C21116321   6.424   1.903   7.552  0.8976 -0.0369  0.1061
  148SAPE  H11R16322   6.369   1.862   7.638 -1.0387 -2.2893 -2.0668
  148SAPE  C21216323   6.548   1.959   7.566  0.0181 -0.5760  0.6794
  148SAPE  H12R16324   6.602   1.929   7.657 -0.3510 -0.4481  0.9433
  148SAPE  C21316325   6.628   2.025   7.450 -0.2581 -0.2481 -0.8244
  148SAPE  H13R16326   6.602   2.132   7.432 -1.8532 -0.7941 -2.0769
  148SAPE  H13S16327   6.606   1.973   7.355 -1.3259  1.4079 -1.5429
  148SAPE  C21416328   6.774   2.023   7.484  0.5056  0.7801  0.0224
  148SAPE  H14R16329   6.831   1.945   7.430  0.2104  1.7305 -1.7380
  148SAPE  C21516330   6.843   2.103   7.566  1.1922 -0.1430  0.2087
  148SAPE  H15R16331   6.950   2.080   7.578  1.0574  0.0805  2.0372
  148SAPE  C21616332   6.778   2.206   7.652 -0.1320 -0.0003 -0.0323
  148SAPE  H16R16333   6.682   2.250   7.620 -1.1145 -2.4857 -0.7202
  148SAPE  H16S16334   6.855   2.286   7.658 -0.2589  0.1813 -0.7359
  148SAPE  C21716335   6.748   2.163   7.799  0.9154  0.0451 -0.1939
  148SAPE  H17R16336   6.667   2.087   7.791  1.7040 -0.7943 -0.4568
  148SAPE  H17S16337   6.709   2.250   7.857 -0.3442  0.3507 -1.4342
  148SAPE  C21816338   6.856   2.091   7.878  0.3802 -0.2134  0.0700
  148SAPE  H18R16339   6.934   2.167   7.898  0.3985  0.7892 -3.2203
  148SAPE  H18S16340   6.897   2.002   7.826 -0.6137 -0.2455 -0.6934
  148SAPE  C21916341   6.807   2.040   8.016  0.3733  0.1027  0.1884
  148SAPE  H19R16342   6.719   1.973   8.010  0.5359 -0.2387  1.3980
  148SAPE  H19S16343   6.780   2.137   8.065  0.7743 -0.7319  2.1600
  148SAPE  C22016344   6.920   1.982   8.096 -0.3860 -0.3855  0.2800
  148SAPE  H20R16345   6.973   1.904   8.037 -0.5431  0.8110 -1.5330
  148SAPE  H20S16346   6.879   1.944   8.192 -0.3369  3.0466  1.8152
  148SAPE  H20T16347   7.000   2.053   8.125  0.2682 -1.2132  0.5416
  148SAPE   C3316348   6.447   1.225   7.388  0.5896  0.0987 -1.0343
  148SAPE   H3X16349   6.517   1.192   7.468 -2.3503 -1.4351  1.1511
  148SAPE   H3Y16350   6.371   1.143   7.389  0.4714  0.2014 -0.1584
  148SAPE   C3416351   6.397   1.363   7.415 -0.2851  0.0064  0.1838
  148SAPE   H4X16352   6.328   1.402   7.338 -0.8288 -0.0997  0.6093
  148SAPE   H4Y16353   6.482   1.435   7.412  0.8246 -1.0283  3.0445
  148SAPE   C3516354   6.319   1.376   7.539 -0.3853 -0.4011  0.4600
  148SAPE   H5X16355   6.281   1.277   7.573  1.0491 -0.3445  2.3857
  148SAPE   H5Y16356   6.230   1.441   7.523 -1.1032 -0.7176  2.7788
  148SAPE   C3616357   6.392   1.438   7.659  0.1121 -0.4467 -0.3534
  148SAPE   H6X16358   6.450   1.523   7.618 -3.4508  1.7804 -1.2533
  148SAPE   H6Y16359   6.466   1.363   7.694 -1.1032 -1.5579 -0.0551
  148SAPE   C3716360   6.294   1.480   7.770 -0.5632  0.1705  0.5922
  148SAPE   H7X16361   6.225   1.393   7.773  1.1367 -1.3537 -1.3996
  148SAPE   H7Y16362   6.227   1.562   7.736 -0.6231 -0.7161 -1.6029
  148SAPE   C3816363   6.360   1.506   7.904 -0.1555  0.0325 -0.0906
  148SAPE   H8X16364   6.415   1.602   7.900 -1.3026  0.7689  1.1946
  148SAPE   H8Y16365   6.433   1.422   7.917 -0.7442 -0.9636 -2.6567
  148SAPE   C3916366   6.256   1.524   8.014  0.1579 -0.2021 -0.4075
  148SAPE   H9X16367   6.195   1.432   8.005  1.4445 -0.9817 -1.6009
  148SAPE   H9Y16368   6.191   1.612   7.993  0.8479  0.5763  0.6263
  148SAPE  C31016369   6.325   1.531   8.156 -0.7392  0.0795  0.3923
  148SAPE  H10X16370   6.376   1.629   8.164  1.7675 -0.9632 -1.7035
  148SAPE  H10Y16371   6.399   1.449   8.166 -4.0616 -2.9484  2.7221
  148SAPE  C31116372   6.227   1.511   8.269  0.2051 -0.1253 -0.1821
  148SAPE  H11X16373   6.167   1.420   8.245 -2.5497  1.0846  1.5221
  148SAPE  H11Y16374   6.161   1.598   8.250  0.6392 -0.0938 -1.6745
  148SAPE  C31216375   6.286   1.478   8.409 -0.5957 -0.3173  0.3798
  148SAPE  H12X16376   6.206   1.482   8.487 -0.2680  2.7252  0.6698
  148SAPE  H12Y16377   6.370   1.547   8.433 -0.2249 -1.2043  1.7510
  148SAPE  C31316378   6.338   1.329   8.414  0.0794 -0.0564 -0.3088
  148SAPE  H13X16379   6.404   1.298   8.330  1.6117 -0.1954  0.9190
  148SAPE  H13Y16380   6.253   1.257   8.413  0.3675 -0.4197 -1.8261
  148SAPE  C31416381   6.408   1.292   8.546  0.0777 -0.3592  0.6993
  148SAPE  H14X16382   6.348   1.308   8.638 -1.3457  1.8063 -0.5198
  148SAPE  H14Y16383   6.503   1.349   8.546 -0.8149  1.1817  0.1671
  148SAPE  C31516384   6.454   1.143   8.537 -0.4485 -0.5401 -0.1553
  148SAPE  H15X16385   6.499   1.130   8.436  1.0478  2.4207  0.0056
  148SAPE  H15Y16386   6.365   1.078   8.549 -4.1654  4.2785  1.4320
  148SAPE  C31616387   6.559   1.101   8.643  1.0024  0.3851  0.2507
  148SAPE  H16X16388   6.530   1.152   8.737 -0.7573 -0.7450  0.3869
  148SAPE  H16Y16389   6.651   1.153   8.611  0.5062  0.2274 -1.5374
  148SAPE  C31716390   6.571   0.948   8.674 -0.0846 -0.3054  0.7586
  148SAPE  H17X16391   6.491   0.912   8.742  0.3736 -0.0868  1.4312
  148SAPE  H17Y16392   6.667   0.946   8.731  1.2227 -1.5446 -1.3358
  148SAPE  C31816393   6.592   0.869   8.541  0.4789  0.5288 -0.1487
  148SAPE  H18X16394   6.668   0.914   8.473  1.2433 -0.1704  0.2195
  148SAPE  H18Y16395   6.490   0.872   8.497  0.5144  2.7149 -0.1718
  148SAPE  H18Z16396   6.615   0.763   8.565  1.0282  0.5425 -0.5877
  149SAPE     N16397   1.064   1.457   6.345 -0.1443 -0.5831 -0.2128
  149SAPE   HN116398   1.126   1.374   6.332  0.9091  0.0501  0.5763
  149SAPE   HN216399   0.977   1.442   6.291  0.5760  0.4854 -1.7480
  149SAPE   HN316400   1.106   1.544   6.306 -1.1912  1.0844  2.1176
  149SAPE   C1216401   1.041   1.490   6.493  0.2160 -0.0501 -0.0313
  149SAPE  H12A16402   1.141   1.516   6.532 -0.1444  0.7403  0.3788
  149SAPE  H12B16403   1.006   1.398   6.545 -1.0706  1.0991  1.2236
  149SAPE   C1116404   0.942   1.601   6.528 -0.1473 -0.1416  0.3713
  149SAPE  H11A16405   0.959   1.629   6.635  0.9120  0.5202  0.0434
  149SAPE  H11B16406   0.837   1.570   6.508  0.3561 -0.2762 -2.3244
  149SAPE     P16407   0.877   1.824   6.389 -0.1723  0.1473  0.1544
  149SAPE   O1316408   0.907   1.963   6.422  0.2701  0.4654  0.0538
  149SAPE   O1416409   0.869   1.789   6.246 -0.5837 -0.1838  0.2443
  149SAPE   O1216410   0.974   1.724   6.460 -0.5354  0.7519 -0.4625
  149SAPE   O1116411   0.736   1.783   6.449  0.0038 -0.3693  0.0757
  149SAPE    C116412   0.684   1.862   6.555  0.0897  0.0317 -0.5241
  149SAPE    HA16413   0.757   1.919   6.617  1.0628 -1.7020 -0.0237
  149SAPE    HB16414   0.616   1.940   6.515  0.3576  0.3963 -0.2837
  149SAPE    C216415   0.617   1.785   6.674 -0.2029  1.1962 -0.3372
  149SAPE    HS16416   0.562   1.861   6.734 -0.7701  1.1810 -0.8292
  149SAPE   O2116417   0.724   1.722   6.751  0.2180 -0.2149  0.1664
  149SAPE   C2116418   0.703   1.717   6.882 -0.8752 -0.2152 -0.2519
  149SAPE   O2216419   0.607   1.756   6.941  0.4743 -0.1911 -0.2778
  149SAPE   C2216420   0.825   1.643   6.944 -0.2087  0.7016 -0.2802
  149SAPE   H2R16421   0.828   1.556   6.876 -3.1373  0.1737  0.1741
  149SAPE   H2S16422   0.916   1.708   6.945 -0.7855  1.5214  0.8774
  149SAPE    C316423   0.513   1.682   6.609 -0.0571 -0.0173  0.2276
  149SAPE    HX16424   0.562   1.592   6.567 -0.5385  0.6171 -1.8234
  149SAPE    HY16425   0.468   1.742   6.526  1.3010  0.8997  0.1299
  149SAPE   O3116426   0.401   1.644   6.690 -0.2295  0.5407 -0.0069
  149SAPE   C3116427   0.417   1.559   6.790  0.4222  0.7676  0.1155
  149SAPE   O3216428   0.509   1.478   6.805  0.0142  0.0064  0.3526
  149SAPE   C3216429   0.294   1.568   6.883  0.5667 -0.3261 -0.3967
  149SAPE   H2X16430   0.216   1.522   6.819  1.3844 -1.5318 -0.5707
  149SAPE   H2Y16431   0.272   1.675   6.905 -0.2985 -0.6688  0.4468
  149SAPE   C2316432   0.800   1.600   7.097  0.4369 -0.2471  0.0261
  149SAPE   H3R16433   0.703   1.548   7.112  0.1182 -0.2289 -1.7397
  149SAPE   H3S16434   0.792   1.698   7.148  2.5229  0.0074 -0.0494
  149SAPE   C2416435   0.911   1.522   7.149  0.5140  0.3564 -0.3103
  149SAPE   H4R16436   0.903   1.501   7.258  3.6706 -0.5420 -0.1372
  149SAPE   H4S16437   1.001   1.587   7.141  0.2065  0.8014 -0.2075
  149SAPE   C2516438   0.934   1.390   7.077 -0.0972 -0.5657  0.7479
  149SAPE   H5R16439   0.870   1.382   6.988 -0.0076  0.0687  0.6253
  149SAPE   C2616440   1.008   1.286   7.118  0.3234  0.4753  0.6747
  149SAPE   H6R16441   1.016   1.193   7.060 -0.5447 -0.6814  2.3368
  149SAPE   C2716442   1.086   1.284   7.248 -0.0904  0.1092  0.0889
  149SAPE   H7R16443   1.107   1.384   7.292  1.8840 -0.2243  0.0083
  149SAPE   H7S16444   1.191   1.253   7.232 -0.7398 -1.6556 -1.0907
  149SAPE   C2816445   1.008   1.206   7.349 -0.1583  0.7885 -0.2856
  149SAPE   H8R16446   0.985   1.101   7.327 -1.3150  0.3696  2.5137
  149SAPE   C2916447   0.970   1.236   7.468 -0.7447 -1.1119 -0.5278
  149SAPE   H9R16448   0.905   1.164   7.519  0.3293 -0.0065  2.6620
  149SAPE  C21016449   0.986   1.373   7.528  0.5949 -0.2465  0.5620
  149SAPE  H10R16450   0.922   1.451   7.483  2.0340  0.6343 -0.0534
  149SAPE  H10S16451   1.091   1.407   7.510  0.8285 -0.3848  1.5908
  149SAPE  C21116452   0.947   1.382   7.673  0.6458  0.3451  0.3069
  149SAPE  H11R16453   0.837   1.386   7.683  0.5692 -0.7252 -0.0727
  149SAPE  C21216454   1.028   1.410   7.771  0.2200 -0.0594 -0.5582
  149SAPE  H12R16455   0.991   1.391   7.874  1.6703 -0.4496 -0.0901
  149SAPE  C21316456   1.177   1.416   7.761 -0.1449 -0.4465  0.4662
  149SAPE  H13R16457   1.201   1.460   7.662 -2.8491 -1.4602 -0.7356
  149SAPE  H13S16458   1.211   1.311   7.750  1.2898  0.2553 -2.9114
  149SAPE  C21416459   1.240   1.488   7.882 -0.6327 -0.0329 -0.0460
  149SAPE  H14R16460   1.263   1.595   7.878  1.0007 -0.1279  2.9907
  149SAPE  C21516461   1.253   1.433   8.004 -0.1830  0.5109 -0.1907
  149SAPE  H15R16462   1.294   1.494   8.087 -1.9654 -1.5480  2.3402
  149SAPE  C21616463   1.219   1.296   8.049 -0.8464 -0.1365  0.4648
  149SAPE  H16R16464   1.310   1.247   8.088 -0.7313 -1.8587 -1.7959
  149SAPE  H16S16465   1.204   1.238   7.955  0.6170  1.9517 -1.1507
  149SAPE  C21716466   1.114   1.275   8.155  0.3060  0.0127 -0.2231
  149SAPE  H17R16467   1.079   1.169   8.163  1.0469 -0.1133  3.3377
  149SAPE  H17S16468   1.017   1.325   8.134 -0.5920 -1.0123  1.2466
  149SAPE  C21816469   1.153   1.325   8.293 -0.3976 -0.0601 -1.1448
  149SAPE  H18R16470   1.200   1.425   8.305 -1.8678  0.2877  2.9740
  149SAPE  H18S16471   1.225   1.249   8.330 -1.3502 -1.3862 -1.9373
  149SAPE  C21916472   1.037   1.319   8.395  0.8150 -0.0187 -0.0736
  149SAPE  H19R16473   0.999   1.217   8.377 -0.7726  0.8154 -1.8808
  149SAPE  H19S16474   0.962   1.392   8.358  0.8259  0.8496  1.5150
  149SAPE  C22016475   1.071   1.338   8.539 -0.6162 -0.0183  0.0025
  149SAPE  H20R16476   1.159   1.273   8.559 -0.9637 -0.4822  0.0383
  149SAPE  H20S16477   0.985   1.318   8.607  1.0999  0.7511  2.5487
  149SAPE  H20T16478   1.119   1.433   8.569  1.4051 -1.6921  2.5222
  149SAPE   C3316479   0.304   1.484   7.018  0.1754  0.0291 -0.2613
  149SAPE   H3X16480   0.338   1.542   7.106  0.5259 -1.2686  0.4810
  149SAPE   H3Y16481   0.370   1.399   6.990  0.3793  0.5762 -1.4889
  149SAPE   C3416482   0.171   1.414   7.048  0.1437 -0.2439 -0.5027
  149SAPE   H4X16483   0.143   1.349   6.962 -3.3172 -2.2508  1.9341
  149SAPE   H4Y16484   0.097   1.495   7.066  0.2703 -0.7384  2.9027
  149SAPE   C3516485   0.182   1.328   7.176  0.2115  0.0728 -0.3706
  149SAPE   H5X16486   0.191   1.379   7.274 -2.4093 -0.0836  0.0320
  149SAPE   H5Y16487   0.277   1.272   7.169 -1.1305 -2.3148 -0.6405
  149SAPE   C3616488   0.067   1.224   7.185  0.1035  0.4751  0.2491
  149SAPE   H6X16489   0.088   1.160   7.097 -0.1222  1.4949 -0.5730
  149SAPE   H6Y16490  -0.024   1.286   7.175 -0.3217  0.4290  3.0432
  149SAPE   C3716491   0.060   1.156   7.313  0.5643  0.0181  0.3529
  149SAPE   H7X16492   0.163   1.121   7.338  1.4034  1.6458 -0.6508
  149SAPE   H7Y16493  -0.009   1.071   7.294  0.1061  0.3516  0.5142
  149SAPE   C3816494  -0.009   1.229   7.424 -0.9661  0.0451 -0.2267
  149SAPE   H8X16495  -0.115   1.253   7.399 -1.7849 -1.7312  1.2677
  149SAPE   H8Y16496   0.048   1.323   7.442 -0.9863  0.7820 -3.3782
  149SAPE   C3916497  -0.017   1.141   7.554  0.0882  0.6754  0.1674
  149SAPE   H9X16498   0.084   1.103   7.582  0.4510  1.5962  0.1420
  149SAPE   H9Y16499  -0.073   1.048   7.529  2.2261 -0.4624 -0.6591
  149SAPE  C31016500  -0.074   1.216   7.680 -0.1508 -0.1138  0.8362
  149SAPE  H10X16501  -0.170   1.261   7.647 -0.0780  1.2703  2.3811
  149SAPE  H10Y16502  -0.012   1.306   7.700 -1.5386  0.5745  2.2215
  149SAPE  C31116503  -0.078   1.126   7.803  0.1553 -0.1212 -0.1598
  149SAPE  H11X16504   0.017   1.069   7.809  1.2732  1.7875  1.0502
  149SAPE  H11Y16505  -0.146   1.040   7.785  0.3903 -0.0450 -1.5473
  149SAPE  C31216506  -0.113   1.199   7.930 -0.3965  0.0274 -0.2574
  149SAPE  H12X16507  -0.200   1.265   7.912 -0.3753  0.0492 -0.2793
  149SAPE  H12Y16508  -0.026   1.266   7.949  0.4047 -0.2396 -2.5902
  149SAPE  C31316509  -0.149   1.100   8.041 -0.3803 -0.1391 -0.2930
  149SAPE  H13X16510  -0.077   1.016   8.037 -1.4899 -1.1606  0.5315
  149SAPE  H13Y16511  -0.249   1.053   8.024  0.6505 -1.9073 -1.9172
  149SAPE  C31416512  -0.144   1.162   8.188  0.3162 -0.1862 -0.0900
  149SAPE  H14X16513  -0.219   1.114   8.254 -0.8197  1.0863 -0.3986
  149SAPE  H14Y16514  -0.180   1.268   8.183 -1.4182 -0.6555  1.4076
  149SAPE  C31516515   0.005   1.154   8.249  0.0472 -0.0109  0.9053
  149SAPE  H15X16516   0.070   1.217   8.185 -1.7162  0.8793 -0.0760
  149SAPE  H15Y16517   0.027   1.047   8.227 -0.9538 -0.3930  1.6726
  149SAPE  C31616518   0.016   1.201   8.392  0.8667  0.9237  0.8148
  149SAPE  H16X16519  -0.039   1.129   8.456  1.7160 -1.4338 -0.9516
  149SAPE  H16Y16520  -0.040   1.297   8.397  0.3163  0.9308 -2.6169
  149SAPE  C31716521   0.160   1.236   8.429  0.8281  0.2975  0.1504
  149SAPE  H17X16522   0.157   1.269   8.535 -2.4495  1.6625 -0.2399
  149SAPE  H17Y16523   0.196   1.318   8.363  0.6134  0.5479  0.3414
  149SAPE  C31816524   0.251   1.112   8.418 -0.6118 -0.0013 -0.0584
  149SAPE  H18X16525   0.266   1.082   8.312  3.4275  0.1019  0.3421
  149SAPE  H18Y16526   0.219   1.027   8.482 -0.2367 -0.6028 -0.6644
  149SAPE  H18Z16527   0.348   1.156   8.450 -0.4348 -0.2322 -0.2747
  150SAPE     N16528   1.135   3.719   6.385  0.1921 -0.7285 -0.2159
  150SAPE   HN116529   1.045   3.706   6.334  1.0935  0.6169 -2.2750
  150SAPE   HN216530   1.164   3.621   6.405  0.6824 -0.1914  1.8415
  150SAPE   HN316531   1.113   3.769   6.473 -2.4300 -2.1751  0.0622
  150SAPE   C1216532   1.233   3.805   6.315  0.1018 -1.2101  0.5877
  150SAPE  H12A16533   1.268   3.755   6.222 -1.3397 -1.0052 -0.0881
  150SAPE  H12B16534   1.322   3.813   6.381  0.1188 -1.4545  0.5941
  150SAPE   C1116535   1.168   3.945   6.289  0.2135  0.3665 -0.0182
  150SAPE  H11A16536   1.078   3.928   6.226 -0.1170 -0.7955  0.7333
  150SAPE  H11B16537   1.250   3.999   6.236  0.3329 -2.5997 -3.2193
  150SAPE     P16538   1.126   4.167   6.412 -0.0353  0.5290 -0.3150
  150SAPE   O1316539   1.256   4.218   6.367  0.0854  1.1235 -0.4866
  150SAPE   O1416540   1.016   4.218   6.338  0.1236  0.1933  0.3019
  150SAPE   O1216541   1.128   4.005   6.403 -0.1740  0.1169 -0.2998
  150SAPE   O1116542   1.106   4.193   6.566 -0.2066 -0.2001  0.1765
  150SAPE    C116543   1.069   4.088   6.650 -0.4438 -0.3671  0.0268
  150SAPE    HA16544   0.962   4.071   6.626 -1.4304  2.8863  1.5254
  150SAPE    HB16545   1.130   3.997   6.629  3.7263  2.1319  0.1112
  150SAPE    C216546   1.089   4.126   6.794  0.1302  0.4755 -0.1458
  150SAPE    HS16547   1.002   4.189   6.820  0.9754  1.6157 -0.0037
  150SAPE   O2116548   1.208   4.204   6.823 -0.3622 -0.0962 -0.0634
  150SAPE   C2116549   1.327   4.149   6.787  0.3345  0.0301  0.3357
  150SAPE   O2216550   1.350   4.047   6.726 -0.2671 -0.0154  0.2341
  150SAPE   C2216551   1.442   4.225   6.842  0.1418  0.4818 -0.3848
  150SAPE   H2R16552   1.522   4.237   6.766  1.7854  2.0680  1.4877
  150SAPE   H2S16553   1.407   4.330   6.852  0.8672  0.8050 -1.1555
  150SAPE    C316554   1.076   4.001   6.900 -0.2117 -0.1005  0.2523
  150SAPE    HX16555   1.072   4.050   7.000  0.7047  2.0327 -0.6768
  150SAPE    HY16556   1.173   3.948   6.897 -1.2084 -2.0302  0.6634
  150SAPE   O3116557   0.969   3.912   6.874  0.2458  0.3837  0.7406
  150SAPE   C3116558   0.849   3.952   6.918  0.1280 -0.2862  0.0314
  150SAPE   O3216559   0.822   4.056   6.968  0.5798  0.2393  0.6498
  150SAPE   C3216560   0.745   3.839   6.895  0.1307 -0.0324 -0.4836
  150SAPE   H2X16561   0.784   3.778   6.811  4.0468  0.0847  1.0275
  150SAPE   H2Y16562   0.647   3.880   6.862  0.5176  0.1094 -1.4769
  150SAPE   C2316563   1.503   4.166   6.970  0.4017  0.8591  0.3041
  150SAPE   H3R16564   1.541   4.065   6.945 -1.1124  0.5243 -0.8357
  150SAPE   H3S16565   1.424   4.141   7.044  1.0499  2.4194  1.5875
  150SAPE   C2416566   1.621   4.248   7.034 -0.4407 -0.0625 -0.6436
  150SAPE   H4R16567   1.592   4.351   7.067 -0.5125 -0.3665  0.2789
  150SAPE   H4S16568   1.696   4.257   6.953  1.9870  0.4709  1.5133
  150SAPE   C2516569   1.708   4.178   7.146 -0.0001 -0.0098 -0.2935
  150SAPE   H5R16570   1.797   4.124   7.112  0.2431 -0.1332  0.5117
  150SAPE   C2616571   1.678   4.189   7.277 -0.4481  0.5485 -0.5148
  150SAPE   H6R16572   1.745   4.141   7.350 -0.2406 -1.0623 -1.7007
  150SAPE   C2716573   1.562   4.254   7.336  0.1272  0.0571  0.4805
  150SAPE   H7R16574   1.476   4.191   7.367  0.5717 -0.7429  0.0998
  150SAPE   H7S16575   1.522   4.317   7.254 -0.3685 -0.5505  0.2483
  150SAPE   C2816576   1.617   4.334   7.444  0.3834 -0.0759 -0.8675
  150SAPE   H8R16577   1.659   4.427   7.405  1.4431  1.4717  3.4423
  150SAPE   C2916578   1.596   4.334   7.577 -0.2774 -0.7029 -0.3625
  150SAPE   H9R16579   1.647   4.397   7.651  0.7309 -2.5004  0.5105
  150SAPE  C21016580   1.515   4.226   7.645  0.3147  0.3876  0.4801
  150SAPE  H10R16581   1.510   4.136   7.581  2.1408 -0.0909  0.9446
  150SAPE  H10S16582   1.411   4.262   7.662  0.8552  2.0975  0.4235
  150SAPE  C21116583   1.573   4.185   7.775 -0.1414  0.0750  0.6048
  150SAPE  H11R16584   1.559   4.253   7.861  1.3992 -0.4852  1.3375
  150SAPE  C21216585   1.635   4.072   7.801 -0.1506 -0.6201 -0.4433
  150SAPE  H12R16586   1.688   4.072   7.898  1.5395 -0.1736 -1.3335
  150SAPE  C21316587   1.661   3.959   7.708 -0.1593  0.8555 -0.2146
  150SAPE  H13R16588   1.769   3.932   7.716 -0.3768 -0.5086 -1.5266
  150SAPE  H13S16589   1.644   3.985   7.602  1.5032 -2.3823 -1.3944
  150SAPE  C21416590   1.587   3.829   7.731 -0.3636 -0.5323 -0.0341
  150SAPE  H14R16591   1.580   3.800   7.837  0.8834  0.3208  0.3004
  150SAPE  C21516592   1.525   3.754   7.634 -0.5334 -0.4284  0.1867
  150SAPE  H15R16593   1.481   3.654   7.651  1.5551 -1.5986 -0.8893
  150SAPE  C21616594   1.506   3.789   7.492 -1.4151  0.2582  0.3906
  150SAPE  H16R16595   1.470   3.893   7.478  1.2419  1.2174  0.1741
  150SAPE  H16S16596   1.444   3.708   7.448  1.3402 -1.8607  0.1069
  150SAPE  C21716597   1.638   3.794   7.410 -0.5110 -0.2123 -1.0545
  150SAPE  H17R16598   1.679   3.691   7.401 -1.8549 -1.1703  2.1730
  150SAPE  H17S16599   1.716   3.857   7.459 -1.2817 -0.7510  0.9880
  150SAPE  C21816600   1.610   3.842   7.274  0.4939  0.4582  0.8508
  150SAPE  H18R16601   1.707   3.844   7.219  0.0663  0.3026  0.0733
  150SAPE  H18S16602   1.575   3.947   7.280 -1.4434 -0.1655  1.1581
  150SAPE  C21916603   1.519   3.753   7.178  0.6710  0.2898  0.0715
  150SAPE  H19R16604   1.521   3.807   7.080  1.7212  1.4967  0.7310
  150SAPE  H19S16605   1.418   3.747   7.224  0.9865 -0.6681  0.6632
  150SAPE  C22016606   1.565   3.617   7.142  0.4236  0.4328  0.6452
  150SAPE  H20R16607   1.483   3.547   7.116  0.2331  1.5709 -2.1332
  150SAPE  H20S16608   1.619   3.563   7.224 -0.5397 -1.6377 -0.0104
  150SAPE  H20T16609   1.625   3.619   7.048  2.7686 -1.8841  1.9360
  150SAPE   C3316610   0.710   3.766   7.026  0.2899  0.8286 -0.3979
  150SAPE   H3X16611   0.798   3.723   7.078 -0.6367 -2.8698 -1.5928
  150SAPE   H3Y16612   0.649   3.675   7.006  1.8153 -0.5184  0.7217
  150SAPE   C3416613   0.635   3.854   7.125  0.7364  0.4297  0.5099
  150SAPE   H4X16614   0.539   3.893   7.087  2.1247  3.3699 -0.2312
  150SAPE   H4Y16615   0.693   3.946   7.148  2.8137 -0.4917 -0.6624
  150SAPE   C3516616   0.611   3.780   7.258 -0.1919 -0.0968 -0.4736
  150SAPE   H5X16617   0.651   3.678   7.237  1.9600  1.0092 -2.2389
  150SAPE   H5Y16618   0.507   3.768   7.294  0.5028  0.0939  1.7547
  150SAPE   C3616619   0.684   3.848   7.376 -0.2417 -0.4158  0.3907
  150SAPE   H6X16620   0.671   3.958   7.379  1.2527  0.0463 -3.6924
  150SAPE   H6Y16621   0.793   3.834   7.360  0.0267  0.3004  1.4671
  150SAPE   C3716622   0.655   3.791   7.514 -0.4162  0.3863  0.4113
  150SAPE   H7X16623   0.691   3.687   7.503  1.7118  1.2068 -0.9761
  150SAPE   H7Y16624   0.547   3.799   7.540 -0.9050  1.8850 -1.8739
  150SAPE   C3816625   0.736   3.854   7.620 -0.6020 -0.1875  0.0937
  150SAPE   H8X16626   0.710   3.962   7.621  0.9037  0.1936  0.0841
  150SAPE   H8Y16627   0.845   3.866   7.602  0.4017 -4.1760  2.2812
  150SAPE   C3916628   0.725   3.798   7.765 -0.4657  0.1472  0.0523
  150SAPE   H9X16629   0.789   3.853   7.837 -0.7143  0.5541 -0.0295
  150SAPE   H9Y16630   0.749   3.690   7.766  2.4585  0.7061 -0.6838
  150SAPE  C31016631   0.581   3.805   7.814 -0.1226 -0.1235  0.4063
  150SAPE  H10X16632   0.521   3.747   7.740  2.3612 -0.9423 -1.1184
  150SAPE  H10Y16633   0.544   3.909   7.814 -1.3764 -0.5407  1.3132
  150SAPE  C31116634   0.562   3.745   7.956  0.2050  0.1359 -0.0451
  150SAPE  H11X16635   0.611   3.647   7.971  1.4335  0.4971 -1.4975
  150SAPE  H11Y16636   0.451   3.735   7.968 -0.0703  1.1188 -1.4989
  150SAPE  C31216637   0.613   3.845   8.055 -0.4942 -0.1548 -0.5799
  150SAPE  H12X16638   0.556   3.941   8.052  1.3732  1.0735  0.7543
  150SAPE  H12Y16639   0.716   3.868   8.021 -0.7189  1.7447 -0.1121
  150SAPE  C31316640   0.616   3.789   8.202 -0.0506  0.4942  0.1747
  150SAPE  H13X16641   0.655   3.686   8.187  3.1179  1.6530 -0.3707
  150SAPE  H13Y16642   0.512   3.796   8.241 -0.0656  1.2490  0.0123
  150SAPE  C31416643   0.716   3.856   8.299  0.7083 -0.3278 -0.1521
  150SAPE  H14X16644   0.817   3.870   8.255  0.1978  0.6099 -1.0775
  150SAPE  H14Y16645   0.730   3.783   8.381  1.0902 -0.6443 -0.4941
  150SAPE  C31516646   0.669   3.983   8.379  0.3127  0.4532 -0.1019
  150SAPE  H15X16647   0.565   3.971   8.416  1.1577 -1.0301  1.9440
  150SAPE  H15Y16648   0.670   4.068   8.307  0.2139  1.1117  0.6531
  150SAPE  C31616649   0.741   4.010   8.511  0.2524  0.3472 -0.1032
  150SAPE  H16X16650   0.806   4.100   8.502  1.9948 -0.9370 -0.6939
  150SAPE  H16Y16651   0.795   3.914   8.526 -1.4149 -0.5756  0.1817
  150SAPE  C31716652   0.643   4.038   8.626  0.3259  0.4169 -0.8684
  150SAPE  H17X16653   0.555   3.971   8.619  1.2925 -1.1139  0.6330
  150SAPE  H17Y16654   0.613   4.142   8.605 -0.4180  0.0225 -1.8233
  150SAPE  C31816655   0.708   4.016   8.764  0.6251 -0.2867  0.0172
  150SAPE  H18X16656   0.786   3.937   8.760  0.4974 -0.4038 -0.2196
  150SAPE  H18Y16657   0.634   3.993   8.844  2.3091  3.4092  2.8685
  150SAPE  H18Z16658   0.765   4.106   8.793  0.5310 -0.2519  0.0909
  151SAPE     N16659   0.988   2.148   6.223  0.4455 -1.2128 -0.3013
  151SAPE   HN116660   0.960   2.120   6.320 -3.1473  1.4219 -0.3686
  151SAPE   HN216661   0.997   2.251   6.215 -0.0806 -1.1050  0.3560
  151SAPE   HN316662   0.921   2.115   6.151  1.3069  0.1985 -1.7913
  151SAPE   C1216663   1.122   2.074   6.193  0.3014  0.3404  0.4200
  151SAPE  H12A16664   1.108   1.969   6.227 -1.4583 -0.2836 -1.9374
  151SAPE  H12B16665   1.211   2.118   6.243  0.6317  1.7541 -1.3191
  151SAPE   C1116666   1.150   2.053   6.042  0.3360 -0.0877  0.2922
  151SAPE  H11A16667   1.134   2.146   5.984 -2.6301 -0.1981  0.7836
  151SAPE  H11B16668   1.065   1.992   6.005  0.6405  0.3969 -1.3113
  151SAPE     P16669   1.334   1.859   6.027 -0.1372 -0.0736 -0.0565
  151SAPE   O1316670   1.220   1.774   5.980 -0.0930 -0.0582  0.1524
  151SAPE   O1416671   1.465   1.860   5.960  0.2761 -0.3046 -0.4908
  151SAPE   O1216672   1.281   2.006   6.017  0.3538  0.8547 -0.1923
  151SAPE   O1116673   1.353   1.835   6.180 -0.4557  0.1687 -0.3734
  151SAPE    C116674   1.455   1.911   6.254  0.3369  0.2860 -0.2854
  151SAPE    HA16675   1.553   1.887   6.207  0.4461  0.3809 -0.1100
  151SAPE    HB16676   1.437   2.020   6.256  0.4132  0.2920  0.5928
  151SAPE    C216677   1.464   1.856   6.403  0.1677  0.1417 -0.4976
  151SAPE    HS16678   1.476   1.747   6.383  2.7781  0.6101 -1.8305
  151SAPE   O2116679   1.346   1.896   6.476  0.2044  0.6648 -0.1761
  151SAPE   C2116680   1.327   1.833   6.589 -0.2118 -0.6777 -0.8357
  151SAPE   O2216681   1.380   1.728   6.630 -0.2786  0.1083  0.8369
  151SAPE   C2216682   1.220   1.921   6.652 -0.1442  0.5340  0.3575
  151SAPE   H2R16683   1.226   2.023   6.608  2.9593 -0.0494 -0.8537
  151SAPE   H2S16684   1.121   1.890   6.614 -0.0695  0.1528  0.4751
  151SAPE    C316685   1.591   1.921   6.468  0.2085  0.2493  0.3849
  151SAPE    HX16686   1.579   2.031   6.471  2.6633  0.5583  1.3733
  151SAPE    HY16687   1.667   1.903   6.389 -0.9205 -2.9286 -0.1300
  151SAPE   O3116688   1.637   1.874   6.602 -0.5861 -0.4865 -0.2444
  151SAPE   C3116689   1.710   1.767   6.611  0.0383 -0.2234  0.5372
  151SAPE   O3216690   1.771   1.722   6.512 -0.0959 -0.3971  0.4653
  151SAPE   C3216691   1.705   1.706   6.743 -0.2355 -0.0231 -0.4558
  151SAPE   H2X16692   1.603   1.668   6.766  0.0299 -0.0032  0.8263
  151SAPE   H2Y16693   1.740   1.769   6.828  0.4376  1.3360 -1.6942
  151SAPE   C2316694   1.222   1.943   6.810 -0.5741  0.2364  0.4697
  151SAPE   H3R16695   1.246   1.849   6.864 -0.2217  0.2755  0.3841
  151SAPE   H3S16696   1.116   1.965   6.835 -0.2825  0.0824  1.9920
  151SAPE   C2416697   1.307   2.050   6.869  0.3051  0.0296  0.0066
  151SAPE   H4R16698   1.283   2.043   6.978  2.5319 -1.1595  0.4828
  151SAPE   H4S16699   1.281   2.150   6.829  1.9918  0.6968  0.4756
  151SAPE   C2516700   1.454   2.024   6.840 -0.1096 -0.3436  0.0461
  151SAPE   H5R16701   1.487   2.031   6.735 -2.8108 -0.8831 -0.9128
  151SAPE   C2616702   1.543   1.994   6.935  0.4943  0.1452 -0.4367
  151SAPE   H6R16703   1.649   1.991   6.906  1.0027  1.4134  1.1144
  151SAPE   C2716704   1.503   1.976   7.082  0.4357 -0.2135  0.4920
  151SAPE   H7R16705   1.418   1.904   7.090 -0.2543  0.5178 -0.1376
  151SAPE   H7S16706   1.465   2.069   7.130  0.3194 -0.3466  0.6613
  151SAPE   C2816707   1.612   1.902   7.153 -0.6686  0.0593 -0.6836
  151SAPE   H8R16708   1.672   1.831   7.094 -1.2555 -0.3687 -0.7805
  151SAPE   C2916709   1.644   1.911   7.279  0.1335 -0.7032  0.0523
  151SAPE   H9R16710   1.730   1.854   7.315  2.0220  1.7593 -0.2779
  151SAPE  C21016711   1.587   1.996   7.391 -0.2098  0.0810  0.0545
  151SAPE  H10R16712   1.621   2.102   7.382 -1.2376  0.6487  2.1998
  151SAPE  H10S16713   1.613   1.951   7.489  0.1136 -0.3743 -0.2391
  151SAPE  C21116714   1.440   1.996   7.402  0.0317  0.0846  0.3115
  151SAPE  H11R16715   1.395   1.896   7.388 -1.5127  0.8873 -0.8103
  151SAPE  C21216716   1.351   2.092   7.449 -0.3803 -0.1342 -0.2002
  151SAPE  H12R16717   1.244   2.068   7.457 -0.5729  0.7307 -0.0452
  151SAPE  C21316718   1.395   2.223   7.505  0.7288 -0.3973  0.3096
  151SAPE  H13R16719   1.344   2.303   7.447 -0.3040 -1.6427 -0.5755
  151SAPE  H13S16720   1.503   2.236   7.484  0.1782  1.3744 -1.7903
  151SAPE  C21416721   1.379   2.248   7.658 -0.7099 -0.2433  0.6792
  151SAPE  H14R16722   1.401   2.157   7.716  2.6613  1.4033  2.2577
  151SAPE  C21516723   1.333   2.354   7.723 -0.2628 -1.0067  0.1436
  151SAPE  H15R16724   1.339   2.364   7.832 -0.7435  3.5881 -0.0556
  151SAPE  C21616725   1.276   2.476   7.659 -0.0409 -0.1846 -0.0789
  151SAPE  H16R16726   1.168   2.489   7.685  0.0185  1.4107 -0.5249
  151SAPE  H16S16727   1.279   2.460   7.549  1.8434 -2.2152  0.2002
  151SAPE  C21716728   1.332   2.604   7.719  0.1208 -0.1055  0.3179
  151SAPE  H17R16729   1.440   2.617   7.693 -0.1190 -1.7787 -1.7944
  151SAPE  H17S16730   1.314   2.610   7.828 -2.0901  0.7905 -0.0555
  151SAPE  C21816731   1.268   2.735   7.653 -0.1226  0.3304 -0.1680
  151SAPE  H18R16732   1.318   2.815   7.712 -0.1026  0.2566 -0.0851
  151SAPE  H18S16733   1.158   2.732   7.667 -0.5575  2.6161 -2.2583
  151SAPE  C21916734   1.295   2.747   7.503 -0.7554  0.0668 -0.1594
  151SAPE  H19R16735   1.247   2.840   7.466 -1.1108 -0.7986 -1.9888
  151SAPE  H19S16736   1.239   2.663   7.457 -1.5480 -0.0447  0.9832
  151SAPE  C22016737   1.447   2.740   7.463 -0.0118  0.2426 -0.2960
  151SAPE  H20R16738   1.506   2.820   7.512  0.5562 -0.1037 -0.4016
  151SAPE  H20S16739   1.498   2.644   7.487  0.9753  1.1814  1.5838
  151SAPE  H20T16740   1.465   2.765   7.356 -1.1977  4.4478  0.3089
  151SAPE   C3316741   1.789   1.576   6.742  0.5775 -0.4646  0.0897
  151SAPE   H3X16742   1.894   1.605   6.723  1.0213 -2.3003 -0.4221
  151SAPE   H3Y16743   1.778   1.520   6.647 -1.1967  1.5682 -0.9670
  151SAPE   C3416744   1.784   1.483   6.862 -0.0028  0.0015 -0.4692
  151SAPE   H4X16745   1.849   1.396   6.837 -1.1941 -0.4870 -2.0217
  151SAPE   H4Y16746   1.677   1.458   6.877 -0.2201 -0.7923 -2.8969
  151SAPE   C3516747   1.833   1.541   6.994  0.3650  0.1983  0.1601
  151SAPE   H5X16748   1.777   1.636   7.004  0.6626  0.6911 -2.1774
  151SAPE   H5Y16749   1.942   1.556   6.977  0.5737 -1.4449 -0.1658
  151SAPE   C3616750   1.802   1.457   7.122  0.1300 -1.0425  0.0924
  151SAPE   H6X16751   1.837   1.353   7.105 -0.7094 -1.2027 -0.7429
  151SAPE   H6Y16752   1.691   1.447   7.131 -0.0828 -0.8265 -1.8288
  151SAPE   C3716753   1.847   1.517   7.253  0.2244 -0.1047 -0.0898
  151SAPE   H7X16754   1.774   1.596   7.276 -1.8511 -1.5047 -1.5767
  151SAPE   H7Y16755   1.950   1.560   7.252  0.3438 -0.2289  1.8635
  151SAPE   C3816756   1.842   1.413   7.369 -0.2141 -0.4540 -0.3092
  151SAPE   H8X16757   1.915   1.329   7.362  0.4159 -0.1022  1.4620
  151SAPE   H8Y16758   1.741   1.367   7.375 -0.7476  0.6631 -0.5305
  151SAPE   C3916759   1.871   1.476   7.504 -0.3404 -0.1516  0.4200
  151SAPE   H9X16760   1.793   1.552   7.527 -0.0329  0.2664  0.0943
  151SAPE   H9Y16761   1.960   1.539   7.486 -2.2764  1.6375 -4.7530
  151SAPE  C31016762   1.887   1.375   7.612 -0.4123  0.3831 -0.2720
  151SAPE  H10X16763   1.949   1.291   7.573 -1.0174 -0.5644  0.7294
  151SAPE  H10Y16764   1.792   1.332   7.650  0.6195 -1.0600  0.7906
  151SAPE  C31116765   1.972   1.441   7.724  0.8863  0.6678 -0.2689
  151SAPE  H11X16766   1.934   1.527   7.784 -1.3173 -0.3597 -0.0802
  151SAPE  H11Y16767   2.061   1.487   7.677  1.9044 -1.3039 -0.3897
  151SAPE  C31216768   2.017   1.330   7.821  0.7772  0.1404 -0.1054
  151SAPE  H12X16769   2.088   1.262   7.770  2.9171  0.8050  1.8060
  151SAPE  H12Y16770   1.925   1.288   7.866 -0.2589  2.3778 -0.0303
  151SAPE  C31316771   2.102   1.390   7.937 -0.1066  0.7213  0.6415
  151SAPE  H13X16772   2.039   1.456   8.001 -0.0266 -1.2492  2.8520
  151SAPE  H13Y16773   2.175   1.451   7.880  1.7984 -3.5237 -1.9136
  151SAPE  C31416774   2.163   1.275   8.016  0.1635  0.8412  0.7862
  151SAPE  H14X16775   2.217   1.208   7.947  0.0068 -0.1513  1.5997
  151SAPE  H14Y16776   2.078   1.219   8.062 -0.2560  1.0263  0.2480
  151SAPE  C31516777   2.246   1.313   8.141 -0.4324 -0.2641 -0.2147
  151SAPE  H15X16778   2.172   1.365   8.205  0.6238  1.0122  0.0175
  151SAPE  H15Y16779   2.328   1.379   8.108  0.3468 -1.2456 -0.2992
  151SAPE  C31616780   2.287   1.186   8.213  0.0288 -0.3416 -0.1883
  151SAPE  H16X16781   2.374   1.142   8.160 -0.4668 -2.0173  0.3353
  151SAPE  H16Y16782   2.194   1.126   8.225 -0.3064  0.1738 -0.1492
  151SAPE  C31716783   2.330   1.201   8.358  0.6831  0.7794  0.5341
  151SAPE  H17X16784   2.247   1.245   8.417  0.6378 -0.8691  1.7519
  151SAPE  H17Y16785   2.413   1.275   8.364  0.3641  1.1793  0.0294
  151SAPE  C31816786   2.387   1.078   8.424 -0.1374 -0.1317 -0.3343
  151SAPE  H18X16787   2.472   1.040   8.363  0.8137 -1.1463  1.5246
  151SAPE  H18Y16788   2.317   0.992   8.435  1.2458 -1.1113  1.3579
  151SAPE  H18Z16789   2.430   1.102   8.524 -0.1643 -0.8232 -0.1464
  152SAPE     N16790   6.521   5.143   6.211 -0.3762 -0.3008  0.0793
  152SAPE   HN116791   6.540   5.208   6.290 -2.3449  2.6099 -1.6096
  152SAPE   HN216792   6.609   5.137   6.157  0.8110  1.5048  1.6989
  152SAPE   HN316793   6.448   5.197   6.160  0.6138  0.5787 -0.4379
  152SAPE   C1216794   6.459   5.010   6.240  0.0447 -0.1378 -0.4830
  152SAPE  H12A16795   6.500   4.943   6.160  1.9716  0.5456 -0.1237
  152SAPE  H12B16796   6.349   5.008   6.222 -0.1022  0.0886  0.3716
  152SAPE   C1116797   6.507   4.960   6.379  0.4592 -0.0246  0.7249
  152SAPE  H11A16798   6.457   4.863   6.403 -0.9578  1.0312  2.2997
  152SAPE  H11B16799   6.462   5.027   6.455 -0.2515  0.4723 -0.1157
  152SAPE     P16800   6.722   4.883   6.508  0.6116 -0.2506 -0.0888
  152SAPE   O1316801   6.784   4.763   6.443  0.4922  0.1290  0.1017
  152SAPE   O1416802   6.804   4.983   6.577  0.6327 -0.3616 -0.3749
  152SAPE   O1216803   6.647   4.955   6.391  0.0257 -0.6002 -0.1090
  152SAPE   O1116804   6.605   4.836   6.597  0.1873  0.2898 -0.6693
  152SAPE    C116805   6.599   4.856   6.737  0.0360 -0.1712 -0.8741
  152SAPE    HA16806   6.698   4.872   6.786  0.7421 -1.4510 -1.8367
  152SAPE    HB16807   6.533   4.941   6.762  2.1640  0.9570  1.4264
  152SAPE    C216808   6.539   4.727   6.803 -0.3001 -0.0301 -0.6250
  152SAPE    HS16809   6.462   4.688   6.733 -1.8044  2.0321 -0.2137
  152SAPE   O2116810   6.474   4.777   6.926  0.1849 -0.3526  0.5943
  152SAPE   C2116811   6.383   4.697   6.985  0.0689  0.3584 -0.0757
  152SAPE   O2216812   6.343   4.588   6.940  0.3631 -0.3595  0.4037
  152SAPE   C2216813   6.356   4.730   7.129  0.2368 -0.0693  0.2838
  152SAPE   H2R16814   6.424   4.669   7.192  0.4071 -0.9729 -0.7478
  152SAPE   H2S16815   6.386   4.837   7.132  0.5292 -0.0997 -1.0844
  152SAPE    C316816   6.643   4.613   6.825  0.4363 -0.7068 -0.1191
  152SAPE    HX16817   6.705   4.607   6.733 -0.2009 -1.3286 -0.5242
  152SAPE    HY16818   6.596   4.514   6.843 -0.3801 -0.1253  1.0774
  152SAPE   O3116819   6.745   4.639   6.925  0.0577  0.1741  0.4320
  152SAPE   C3116820   6.721   4.592   7.046 -0.0274 -0.6736 -0.0310
  152SAPE   O3216821   6.624   4.521   7.074  0.1423 -0.1850 -0.1262
  152SAPE   C3216822   6.822   4.633   7.160  0.7333  0.5378 -0.2098
  152SAPE   H2X16823   6.850   4.738   7.135 -1.1931  0.6175 -2.4810
  152SAPE   H2Y16824   6.905   4.559   7.158 -0.6820 -1.1147 -0.3139
  152SAPE   C2316825   6.204   4.714   7.162 -0.5010  0.7649 -0.1034
  152SAPE   H3R16826   6.193   4.604   7.180  2.3968  0.3449 -0.4487
  152SAPE   H3S16827   6.148   4.741   7.069  1.4993  0.7369 -1.3849
  152SAPE   C2416828   6.130   4.789   7.268 -0.2875 -0.2974  0.1366
  152SAPE   H4R16829   6.024   4.757   7.278 -0.0241 -1.5981 -0.8495
  152SAPE   H4S16830   6.129   4.895   7.235  1.5182 -0.0053  0.9059
  152SAPE   C2516831   6.203   4.781   7.401  0.3900 -0.0789  0.2664
  152SAPE   H5R16832   6.309   4.810   7.401  0.4034 -0.0173  2.3606
  152SAPE   C2616833   6.150   4.744   7.524  0.4066  0.0997  0.0074
  152SAPE   H6R16834   6.217   4.741   7.611  0.6571  0.4424 -0.1691
  152SAPE   C2716835   6.015   4.700   7.558  0.0827  0.0636 -0.0923
  152SAPE   H7R16836   6.028   4.666   7.663 -0.7895  0.5780  0.1859
  152SAPE   H7S16837   5.999   4.611   7.493  1.4166 -3.1536  3.6305
  152SAPE   C2816838   5.905   4.802   7.547 -0.4137  0.8228 -0.6592
  152SAPE   H8R16839   5.852   4.796   7.451 -0.1705  1.9423 -0.8693
  152SAPE   C2916840   5.873   4.891   7.631 -0.1447 -0.7645  0.0171
  152SAPE   H9R16841   5.795   4.963   7.599  0.7219 -0.3856 -1.3450
  152SAPE  C21016842   5.949   4.915   7.760  0.0519 -0.1443 -0.3806
  152SAPE  H10R16843   6.006   5.009   7.744 -0.7047  0.1289 -1.5371
  152SAPE  H10S16844   6.031   4.843   7.783 -0.5791 -1.0282 -0.8332
  152SAPE  C21116845   5.864   4.956   7.880 -0.6913 -0.6721  0.1429
  152SAPE  H11R16846   5.789   5.035   7.864  1.0361  1.5403  2.1682
  152SAPE  C21216847   5.873   4.909   8.009 -0.6216  0.1151 -0.0609
  152SAPE  H12R16848   5.817   4.941   8.099 -0.5923 -1.7211  0.6629
  152SAPE  C21316849   5.964   4.796   8.048  0.3052  0.4113  0.3828
  152SAPE  H13R16850   5.951   4.720   7.968 -0.2174 -0.5838  1.3877
  152SAPE  H13S16851   5.935   4.749   8.144 -1.7761  1.0016  0.0908
  152SAPE  C21416852   6.110   4.825   8.058  0.2008 -0.0783 -0.0003
  152SAPE  H14R16853   6.145   4.911   8.000 -0.4021 -0.8498 -1.5756
  152SAPE  C21516854   6.204   4.747   8.121  0.4206 -0.2437 -0.3849
  152SAPE  H15R16855   6.307   4.784   8.120  0.8615 -1.4006 -0.3112
  152SAPE  C21616856   6.172   4.616   8.199 -0.5998  0.5992  0.0313
  152SAPE  H16R16857   6.106   4.544   8.146 -1.6888  0.7111  1.1937
  152SAPE  H16S16858   6.118   4.640   8.293 -0.6481 -0.6093  0.3381
  152SAPE  C21716859   6.303   4.547   8.245 -0.1199  0.1970  0.5393
  152SAPE  H17R16860   6.347   4.613   8.323  1.5678 -2.5819  2.1007
  152SAPE  H17S16861   6.373   4.539   8.159 -1.4368  2.7529 -0.8893
  152SAPE  C21816862   6.279   4.416   8.318  0.0092  0.3837  0.2654
  152SAPE  H18R16863   6.230   4.335   8.259 -1.1839  1.2090  0.0946
  152SAPE  H18S16864   6.208   4.431   8.402  1.1877 -0.2225  1.4136
  152SAPE  C21916865   6.412   4.363   8.379 -0.5107  0.0195  0.1765
  152SAPE  H19R16866   6.379   4.275   8.437 -0.8644 -0.3968 -0.6503
  152SAPE  H19S16867   6.450   4.434   8.456  1.2835 -0.7093  0.0130
  152SAPE  C22016868   6.529   4.305   8.293 -0.1577 -0.3873  0.2834
  152SAPE  H20R16869   6.604   4.253   8.357  1.0288 -1.0549 -1.5782
  152SAPE  H20S16870   6.570   4.390   8.235 -2.3417  0.9251  0.5461
  152SAPE  H20T16871   6.480   4.230   8.227 -0.6483  0.2106 -0.0381
  152SAPE   C3316872   6.768   4.635   7.305 -0.3535 -0.3763 -0.4904
  152SAPE   H3X16873   6.763   4.531   7.343 -0.6795  0.9247  3.4933
  152SAPE   H3Y16874   6.672   4.691   7.319 -0.4354 -0.7936  0.7144
  152SAPE   C3416875   6.880   4.694   7.396  0.5402 -0.7334  0.0086
  152SAPE   H4X16876   6.901   4.795   7.355 -0.4766 -0.2889  0.5415
  152SAPE   H4Y16877   6.973   4.636   7.376  1.0429 -0.6955  2.0011
  152SAPE   C3516878   6.843   4.708   7.543  0.2433 -0.0657 -0.5694
  152SAPE   H5X16879   6.838   4.604   7.583  0.8547  0.2451  0.3448
  152SAPE   H5Y16880   6.743   4.754   7.561  0.1196 -0.9058  1.1507
  152SAPE   C3616881   6.953   4.778   7.619  0.6447 -0.8420  0.3097
  152SAPE   H6X16882   6.949   4.886   7.592  3.1787 -0.8890 -0.4524
  152SAPE   H6Y16883   7.049   4.748   7.574  0.8956  1.9368 -1.2645
  152SAPE   C3716884   6.959   4.754   7.772  0.2092 -0.1521  0.1409
  152SAPE   H7X16885   6.953   4.644   7.781 -0.6603 -0.1745 -0.6016
  152SAPE   H7Y16886   6.871   4.793   7.827 -0.2112  0.4037 -0.8986
  152SAPE   C3816887   7.086   4.810   7.836  0.5370  0.2258  0.2851
  152SAPE   H8X16888   7.080   4.919   7.855 -2.9994  0.0825  0.6401
  152SAPE   H8Y16889   7.169   4.791   7.765 -1.0663 -2.2247 -1.1006
  152SAPE   C3916890   7.118   4.745   7.977  0.1447  0.2400 -0.2629
  152SAPE   H9X16891   7.227   4.762   7.991  0.1871 -0.8378  0.8773
  152SAPE   H9Y16892   7.103   4.636   7.961 -0.7418  0.2862  0.2046
  152SAPE  C31016893   7.026   4.798   8.084  0.5387 -0.1001  0.5204
  152SAPE  H10X16894   6.922   4.764   8.065  0.7944 -0.7574  0.2739
  152SAPE  H10Y16895   7.028   4.909   8.084 -1.4541  0.0023 -1.1486
  152SAPE  C31116896   7.078   4.738   8.220  0.4770 -0.6943  0.4751
  152SAPE  H11X16897   7.104   4.631   8.207 -1.2178 -1.1466  0.4704
  152SAPE  H11Y16898   6.990   4.731   8.288 -1.1143  0.6969 -1.3249
  152SAPE  C31216899   7.189   4.814   8.286 -0.2694 -0.3814 -0.3041
  152SAPE  H12X16900   7.264   4.834   8.206 -0.3081  0.0810 -0.2249
  152SAPE  H12Y16901   7.236   4.754   8.367 -1.5453 -0.6395  0.2703
  152SAPE  C31316902   7.149   4.945   8.344  0.0128  0.0178  0.2507
  152SAPE  H13X16903   7.073   4.935   8.425 -1.6252 -2.7149 -1.4574
  152SAPE  H13Y16904   7.107   5.012   8.266  0.6672  0.6013  0.3828
  152SAPE  C31416905   7.271   5.025   8.389 -0.4112 -0.3797  0.0338
  152SAPE  H14X16906   7.246   5.133   8.399 -2.5246 -0.7018 -1.1696
  152SAPE  H14Y16907   7.356   5.013   8.318 -0.5830  1.9255 -0.6453
  152SAPE  C31516908   7.321   4.980   8.527 -0.6480 -0.0932  0.0272
  152SAPE  H15X16909   7.425   5.018   8.543 -0.3279 -0.5963 -0.8269
  152SAPE  H15Y16910   7.315   4.870   8.535 -0.9252 -0.1111 -0.4267
  152SAPE  C31616911   7.253   5.041   8.647 -0.9015  0.0166 -0.4334
  152SAPE  H16X16912   7.145   5.056   8.625 -1.0835 -1.5941 -0.7975
  152SAPE  H16Y16913   7.283   5.144   8.677 -3.3054  0.9463 -1.0036
  152SAPE  C31716914   7.278   4.945   8.766  0.3366 -0.6132 -0.5870
  152SAPE  H17X16915   7.223   4.850   8.756  0.0821 -0.6311  0.6983
  152SAPE  H17Y16916   7.224   4.992   8.851  0.1276 -2.0493  0.1067
  152SAPE  C31816917   7.427   4.937   8.802 -0.6752 -0.1568 -0.6922
  152SAPE  H18X16918   7.446   4.893   8.902  0.0048  1.4628 -0.0886
  152SAPE  H18Y16919   7.477   5.036   8.804  3.1400 -1.9139  0.9874
  152SAPE  H18Z16920   7.462   4.869   8.721 -2.5088 -0.1930 -1.4931
  153SAPE     N16921   2.348   3.187   6.180 -0.0577  0.5648  0.3608
  153SAPE   HN116922   2.327   3.218   6.083  0.5955  1.1311  0.3904
  153SAPE   HN216923   2.392   3.093   6.185  0.0132  0.4651 -1.6043
  153SAPE   HN316924   2.253   3.175   6.220  0.5165 -2.8365  1.0849
  153SAPE   C1216925   2.425   3.278   6.264 -0.7506 -0.3428 -0.5058
  153SAPE  H12A16926   2.358   3.363   6.288 -0.5245 -0.2423 -0.2216
  153SAPE  H12B16927   2.523   3.302   6.217  0.2039 -1.7733  0.6839
  153SAPE   C1116928   2.455   3.223   6.409 -0.0516  0.2550 -0.7639
  153SAPE  H11A16929   2.360   3.200   6.462 -0.1637  2.0266 -0.1471
  153SAPE  H11B16930   2.503   3.303   6.468 -1.2385  0.1675  0.3539
  153SAPE     P16931   2.618   3.048   6.519  0.1866  0.2137  0.2587
  153SAPE   O1316932   2.641   2.905   6.512 -0.1051  0.1138  0.1199
  153SAPE   O1416933   2.729   3.142   6.511 -0.1109  0.1563  0.3468
  153SAPE   O1216934   2.522   3.096   6.399 -0.3526 -0.0664 -0.5144
  153SAPE   O1116935   2.526   3.082   6.637 -0.5015  0.1928 -0.1285
  153SAPE    C116936   2.577   3.160   6.746 -0.3648 -0.1601 -0.4203
  153SAPE    HA16937   2.626   3.252   6.709  1.3871 -1.7622 -2.3490
  153SAPE    HB16938   2.498   3.181   6.820 -0.7025 -0.1963 -0.7652
  153SAPE    C216939   2.688   3.094   6.839  0.0951 -0.0475  0.2476
  153SAPE    HS16940   2.784   3.132   6.798 -0.3865  2.0573  0.9717
  153SAPE   O2116941   2.672   2.953   6.838 -0.6011  0.1799 -0.4904
  153SAPE   C2116942   2.781   2.881   6.851 -0.0363 -0.0158  0.3114
  153SAPE   O2216943   2.897   2.926   6.861  0.4107  0.5235  0.1505
  153SAPE   C2216944   2.744   2.732   6.840  0.7556 -0.2048 -0.3388
  153SAPE   H2R16945   2.638   2.715   6.870  1.0719  1.2911  1.8054
  153SAPE   H2S16946   2.751   2.712   6.731  1.8192 -4.0174  0.2988
  153SAPE    C316947   2.679   3.139   6.992  0.4304  0.8118 -0.5402
  153SAPE    HX16948   2.582   3.102   7.034  1.4039 -0.5192  0.6220
  153SAPE    HY16949   2.679   3.250   6.995  2.1730  0.8308  2.0995
  153SAPE   O3116950   2.782   3.092   7.077 -0.0488 -0.1733  0.0196
  153SAPE   C3116951   2.906   3.149   7.060 -0.3308 -0.2290  0.3773
  153SAPE   O3216952   2.927   3.248   6.994 -0.5835  0.0854  0.2054
  153SAPE   C3216953   2.998   3.095   7.174  0.1013 -0.3995  0.7641
  153SAPE   H2X16954   3.098   3.086   7.127 -0.4391  1.8869 -1.0142
  153SAPE   H2Y16955   2.950   3.007   7.220  0.6957 -1.3847 -0.4316
  153SAPE   C2316956   2.849   2.641   6.912 -0.7500 -0.6107  0.5384
  153SAPE   H3R16957   2.949   2.656   6.865 -1.5188  0.9181 -0.6957
  153SAPE   H3S16958   2.819   2.538   6.882 -2.4889  0.2719 -0.9851
  153SAPE   C2416959   2.853   2.669   7.061 -0.5252 -0.7319 -0.5023
  153SAPE   H4R16960   2.872   2.777   7.077  1.0823 -1.1527  0.6170
  153SAPE   H4S16961   2.936   2.605   7.097 -1.4144 -1.9997 -0.6037
  153SAPE   C2516962   2.727   2.617   7.129  0.2408  0.6300 -0.0058
  153SAPE   H5R16963   2.688   2.520   7.095 -2.6353  1.9605 -0.8055
  153SAPE   C2616964   2.666   2.667   7.234 -0.0219  0.0277 -0.7029
  153SAPE   H6R16965   2.580   2.607   7.267 -2.0029  2.0951 -1.7887
  153SAPE   C2716966   2.699   2.787   7.315 -0.0268  0.3500 -0.3085
  153SAPE   H7R16967   2.607   2.813   7.371  0.3067  0.8857 -0.0018
  153SAPE   H7S16968   2.712   2.872   7.244  1.0661  0.1192 -0.3958
  153SAPE   C2816969   2.812   2.773   7.415 -0.2153  0.0228 -0.2908
  153SAPE   H8R16970   2.902   2.831   7.388  0.3044  0.0776  1.4341
  153SAPE   C2916971   2.825   2.701   7.524  0.0598 -0.6249 -0.2983
  153SAPE   H9R16972   2.915   2.712   7.587  0.6640  0.2776 -1.2928
  153SAPE  C21016973   2.709   2.632   7.585 -0.5076 -0.3796  0.0385
  153SAPE  H10R16974   2.635   2.597   7.510  1.1787 -2.2907 -0.8385
  153SAPE  H10S16975   2.655   2.704   7.650 -2.2073 -1.5753  0.0409
  153SAPE  C21116976   2.764   2.520   7.679 -0.4939  0.0835 -0.4664
  153SAPE  H11R16977   2.804   2.429   7.631 -1.2090 -0.7395  0.4474
  153SAPE  C21216978   2.759   2.517   7.812  0.5445 -0.3455  0.0793
  153SAPE  H12R16979   2.770   2.419   7.859 -0.1311 -2.0133 -2.9796
  153SAPE  C21316980   2.719   2.630   7.901 -0.6167 -0.0984 -0.9194
  153SAPE  H13R16981   2.620   2.612   7.948  0.2666  4.4759  3.5551
  153SAPE  H13S16982   2.701   2.726   7.848 -0.8802  0.8378  0.7822
  153SAPE  C21416983   2.819   2.651   8.005 -0.5902 -0.0535  0.2269
  153SAPE  H14R16984   2.888   2.726   7.963 -2.5971  0.8629 -1.6456
  153SAPE  C21516985   2.825   2.600   8.128 -0.1077  0.0978 -0.0360
  153SAPE  H15R16986   2.922   2.620   8.176  0.2569 -1.3260 -0.1389
  153SAPE  C21616987   2.730   2.506   8.198  0.2794  0.0219 -0.5737
  153SAPE  H16R16988   2.765   2.401   8.203  0.0081 -0.3110 -3.7361
  153SAPE  H16S16989   2.644   2.493   8.128 -0.5784  0.8462  0.2991
  153SAPE  C21716990   2.683   2.563   8.337 -0.6645  0.3631 -0.1945
  153SAPE  H17R16991   2.575   2.537   8.348 -0.5161 -1.2532 -1.9127
  153SAPE  H17S16992   2.677   2.673   8.326 -3.2419  0.6041  2.4615
  153SAPE  C21816993   2.764   2.519   8.455 -0.0162  0.5210 -0.4316
  153SAPE  H18R16994   2.764   2.588   8.542  1.9230  0.1025 -0.0687
  153SAPE  H18S16995   2.872   2.515   8.430 -0.2766  0.6865 -1.6565
  153SAPE  C21916996   2.714   2.382   8.508 -0.6330 -0.1983 -0.5556
  153SAPE  H19R16997   2.745   2.302   8.437 -0.3809  0.2338 -0.9402
  153SAPE  H19S16998   2.603   2.388   8.501 -0.7992 -2.7438 -0.9581
  153SAPE  C22016999   2.756   2.348   8.651  0.6043  0.1424  0.3421
  153SAPE  H20R17000   2.726   2.424   8.726 -1.6831 -0.7053  0.3713
  153SAPE  H20S17001   2.866   2.354   8.662  0.5085  0.7341  1.0030
  153SAPE  H20T17002   2.717   2.250   8.687 -1.3228 -0.0612 -2.0317
  153SAPE   C3317003   2.996   3.202   7.283  0.3687 -0.7325  0.4737
  153SAPE   H3X17004   3.038   3.298   7.245  0.0110 -0.7847 -0.0677
  153SAPE   H3Y17005   3.062   3.171   7.367 -2.0829 -4.0552  1.3887
  153SAPE   C3417006   2.858   3.212   7.348  0.7358 -0.2910  0.0705
  153SAPE   H4X17007   2.851   3.121   7.410 -1.6658 -0.3130 -0.1509
  153SAPE   H4Y17008   2.788   3.224   7.263  0.1431  0.9347  0.6911
  153SAPE   C3517009   2.842   3.344   7.431  0.3614 -0.9058 -0.5646
  153SAPE   H5X17010   2.739   3.371   7.460  0.9732  1.2828 -0.1786
  153SAPE   H5Y17011   2.885   3.425   7.368  1.9546 -0.8320  0.5463
  153SAPE   C3617012   2.932   3.347   7.561  0.0087  0.5075  0.1493
  153SAPE   H6X17013   2.955   3.455   7.576 -2.5735  1.0916  0.3152
  153SAPE   H6Y17014   3.032   3.299   7.548 -0.5495 -0.3434 -1.1812
  153SAPE   C3717015   2.867   3.276   7.674 -0.1045 -0.0711 -0.9336
  153SAPE   H7X17016   2.823   3.180   7.639 -1.2612 -0.6136  1.7612
  153SAPE   H7Y17017   2.783   3.342   7.705  2.0293  1.3707  2.3772
  153SAPE   C3817018   2.956   3.239   7.794 -0.0002  0.3381  0.2770
  153SAPE   H8X17019   3.010   3.334   7.815 -0.2662  0.4897  0.2726
  153SAPE   H8Y17020   3.031   3.164   7.761  0.8499  2.5467 -3.4363
  153SAPE   C3917021   2.865   3.197   7.916  0.2537  0.1802  0.2932
  153SAPE   H9X17022   2.845   3.088   7.911  0.4581 -0.0309  2.8035
  153SAPE   H9Y17023   2.764   3.243   7.915  0.7065  1.2192 -0.6421
  153SAPE  C31017024   2.939   3.223   8.050  0.3916  0.1121 -0.2913
  153SAPE  H10X17025   2.969   3.330   8.040 -3.0008  1.0847 -1.7289
  153SAPE  H10Y17026   3.033   3.164   8.053  1.5662  1.9063 -0.3324
  153SAPE  C31117027   2.845   3.190   8.165 -0.1717 -0.0261  0.0130
  153SAPE  H11X17028   2.811   3.088   8.138  0.4815 -0.4225  0.6396
  153SAPE  H11Y17029   2.761   3.263   8.159  0.8089  1.0355 -1.2632
  153SAPE  C31217030   2.922   3.185   8.297  0.3058  0.1439  0.3043
  153SAPE  H12X17031   3.022   3.139   8.286  0.9813  1.7126 -0.5391
  153SAPE  H12Y17032   2.856   3.128   8.365 -1.8992  2.4493  0.2745
  153SAPE  C31317033   2.933   3.330   8.357 -0.2538 -0.3099 -0.2523
  153SAPE  H13X17034   2.829   3.363   8.373 -0.2055 -1.0045  1.7834
  153SAPE  H13Y17035   2.965   3.399   8.276  0.0652 -1.0666 -0.7903
  153SAPE  C31417036   3.003   3.321   8.493  0.6227  0.5326 -0.3980
  153SAPE  H14X17037   3.102   3.271   8.485  0.5098  0.3548 -0.7253
  153SAPE  H14Y17038   2.935   3.268   8.564  0.2096 -0.3483 -1.4171
  153SAPE  C31517039   3.003   3.466   8.551 -0.1202  0.7168  0.0690
  153SAPE  H15X17040   2.904   3.515   8.552 -0.7166 -0.4600  0.2587
  153SAPE  H15Y17041   3.071   3.531   8.492 -0.4742  0.9912 -0.0403
  153SAPE  C31617042   3.047   3.470   8.697  0.0843 -0.1664  0.3156
  153SAPE  H16X17043   3.150   3.428   8.702 -0.5278 -1.8124 -0.0402
  153SAPE  H16Y17044   2.985   3.405   8.763  2.5420 -2.4817  0.5510
  153SAPE  C31717045   3.038   3.613   8.764  0.4064  0.1526 -0.3622
  153SAPE  H17X17046   3.096   3.680   8.697  0.5861  1.8964  1.4390
  153SAPE  H17Y17047   3.099   3.609   8.857  1.5612  3.9840 -0.7758
  153SAPE  C31817048   2.901   3.657   8.791 -0.0023  0.1302  0.4054
  153SAPE  H18X17049   2.897   3.760   8.833  2.8795  0.9452 -1.0903
  153SAPE  H18Y17050   2.847   3.593   8.864 -1.0712  0.5314 -0.0082
  153SAPE  H18Z17051   2.840   3.659   8.699  1.5840  2.0719 -0.6955
  154SAPE     N17052   3.577   4.994   6.292  0.6488  0.2722 -0.1943
  154SAPE   HN117053   3.558   4.942   6.380 -0.4477 -0.8028 -1.0390
  154SAPE   HN217054   3.600   5.091   6.321  2.0685  0.0046 -0.3625
  154SAPE   HN317055   3.495   4.982   6.229  1.7126 -3.0492 -1.1345
  154SAPE   C1217056   3.711   4.962   6.230  0.0069  0.5976 -0.0859
  154SAPE  H12A17057   3.788   5.036   6.257  0.8302 -0.3258  0.1708
  154SAPE  H12B17058   3.698   4.974   6.120  3.4071 -0.9719 -0.7984
  154SAPE   C1117059   3.772   4.829   6.284 -0.0174 -0.3515  0.0616
  154SAPE  H11A17060   3.804   4.838   6.390  0.3965  0.4607 -0.1217
  154SAPE  H11B17061   3.863   4.824   6.221  0.6450  1.1710  0.8408
  154SAPE     P17062   3.715   4.595   6.178 -0.1331 -0.1687 -0.1226
  154SAPE   O1317063   3.611   4.490   6.178  0.1908 -0.4193  0.0230
  154SAPE   O1417064   3.741   4.637   6.035  0.3206 -0.0930  0.2242
  154SAPE   O1217065   3.680   4.719   6.266  0.1710 -0.4341  0.0197
  154SAPE   O1117066   3.848   4.548   6.243  0.2048  0.1714 -0.5564
  154SAPE    C117067   3.852   4.434   6.328  0.0100  0.1661 -0.0356
  154SAPE    HA17068   3.775   4.358   6.300 -0.4992  1.4973 -2.5225
  154SAPE    HB17069   3.952   4.386   6.330  0.6996  1.4128  4.0749
  154SAPE    C217070   3.833   4.468   6.483 -0.1931  0.1679 -0.1560
  154SAPE    HS17071   3.724   4.488   6.487 -0.2705 -0.2752 -0.0308
  154SAPE   O2117072   3.911   4.575   6.518  0.2228  0.0819 -0.6316
  154SAPE   C2117073   3.875   4.648   6.624 -0.2132 -0.1237 -0.4648
  154SAPE   O2217074   3.767   4.635   6.683 -0.2052  0.2692  0.3800
  154SAPE   C2217075   3.983   4.760   6.651  0.5000 -0.5647  0.0327
  154SAPE   H2R17076   4.071   4.716   6.701 -0.4049 -0.9243  1.3614
  154SAPE   H2S17077   4.012   4.798   6.551  0.1666  1.2691  0.5928
  154SAPE    C317078   3.865   4.338   6.568 -0.4031 -0.5460 -0.7296
  154SAPE    HX17079   3.967   4.317   6.529 -1.1978 -2.4279 -1.9443
  154SAPE    HY17080   3.801   4.252   6.539 -1.9212  0.2616  0.1037
  154SAPE   O3117081   3.863   4.366   6.710  0.2090  0.4348  0.2709
  154SAPE   C3117082   3.743   4.366   6.763  1.2287 -0.0413 -0.6053
  154SAPE   O3217083   3.637   4.336   6.709  0.1298  0.1754 -0.2015
  154SAPE   C3217084   3.760   4.405   6.909 -0.4962  0.5267 -0.9667
  154SAPE   H2X17085   3.853   4.464   6.924 -0.5256  0.2520  0.4513
  154SAPE   H2Y17086   3.777   4.313   6.969 -0.1525  0.7906 -0.6466
  154SAPE   C2317087   3.937   4.885   6.733 -0.3141  0.4359  0.7244
  154SAPE   H3R17088   3.845   4.933   6.693 -0.4376 -0.6170 -0.3228
  154SAPE   H3S17089   4.010   4.966   6.714  0.5289 -0.0955  1.6279
  154SAPE   C2417090   3.908   4.855   6.887 -0.4426 -0.0897 -0.1892
  154SAPE   H4R17091   4.002   4.813   6.928  1.0156  0.9090 -2.2998
  154SAPE   H4S17092   3.827   4.780   6.888  0.7233 -1.4010  0.3387
  154SAPE   C2517093   3.871   4.975   6.973 -0.1534  0.1119 -0.4539
  154SAPE   H5R17094   3.880   5.077   6.933  1.8126  0.6908  1.2894
  154SAPE   C2617095   3.838   4.967   7.104 -0.2357 -1.2937  0.3728
  154SAPE   H6R17096   3.823   5.066   7.149 -2.0688 -2.0681  1.5987
  154SAPE   C2717097   3.828   4.837   7.184 -0.1033  0.0860  0.4531
  154SAPE   H7R17098   3.814   4.744   7.126 -0.5000  1.4883 -1.7989
  154SAPE   H7S17099   3.741   4.843   7.253 -0.6430  0.5235 -0.2539
  154SAPE   C2817100   3.951   4.806   7.264  0.4922  0.1687 -0.1282
  154SAPE   H8R17101   4.019   4.740   7.207 -0.1293  1.0452 -1.9523
  154SAPE   C2917102   3.976   4.858   7.384 -0.6667 -0.3319  0.2346
  154SAPE   H9R17103   4.058   4.814   7.444 -2.6701 -2.0940  1.8089
  154SAPE  C21017104   3.896   4.943   7.476 -0.3311  0.1684  0.0404
  154SAPE  H10R17105   3.792   4.958   7.440 -0.1597 -1.2421 -1.1552
  154SAPE  H10S17106   3.931   5.046   7.455  0.4557  0.6412  3.1443
  154SAPE  C21117107   3.919   4.920   7.624  0.2531 -0.2205  0.2318
  154SAPE  H11R17108   3.975   4.997   7.679  0.9908 -1.0066  0.5955
  154SAPE  C21217109   3.901   4.807   7.689  0.5126  0.5420  1.3900
  154SAPE  H12R17110   3.906   4.817   7.798 -1.5830  2.1358  1.4052
  154SAPE  C21317111   3.848   4.673   7.633  0.0021  0.2940 -0.0485
  154SAPE  H13R17112   3.857   4.594   7.711 -0.3986 -0.8272 -1.1051
  154SAPE  H13S17113   3.918   4.649   7.550  0.7623 -0.0371  0.6679
  154SAPE  C21417114   3.702   4.667   7.589  0.1142  0.1914  0.4381
  154SAPE  H14R17115   3.682   4.718   7.493 -0.3927  0.3608  0.6350
  154SAPE  C21517116   3.600   4.590   7.646 -0.5278  0.2298  0.5144
  154SAPE  H15R17117   3.504   4.597   7.591  0.0165 -0.6548 -0.5958
  154SAPE  C21617118   3.603   4.498   7.773 -0.0059 -0.7651 -0.0371
  154SAPE  H16R17119   3.700   4.511   7.827 -1.0015  0.9527  1.4586
  154SAPE  H16S17120   3.587   4.393   7.740 -1.6835 -0.5772  0.0930
  154SAPE  C21717121   3.498   4.558   7.875 -0.0215 -0.0972 -0.2338
  154SAPE  H17R17122   3.401   4.528   7.830  0.2530 -2.2439  0.5285
  154SAPE  H17S17123   3.510   4.669   7.882 -2.2929  0.2535 -1.0704
  154SAPE  C21817124   3.512   4.493   8.011  0.6334 -0.2997 -0.8133
  154SAPE  H18R17125   3.605   4.519   8.067  0.0444 -1.9563  1.0666
  154SAPE  H18S17126   3.524   4.384   7.993  0.3971 -0.5917  0.6435
  154SAPE  C21917127   3.393   4.511   8.103  0.5606 -0.2365  0.2547
  154SAPE  H19R17128   3.405   4.445   8.192  1.4720 -1.5002 -0.7605
  154SAPE  H19S17129   3.300   4.482   8.049  0.7886 -1.1959  0.3525
  154SAPE  C22017130   3.370   4.652   8.157  0.1144 -0.5195  0.1142
  154SAPE  H20R17131   3.340   4.722   8.076  0.7449  1.5712  1.5916
  154SAPE  H20S17132   3.464   4.690   8.202 -0.6608  2.4158 -0.5329
  154SAPE  H20T17133   3.287   4.657   8.230 -0.6915 -1.8281 -0.6717
  154SAPE   C3317134   3.637   4.474   6.958 -0.2577 -0.2085  0.5456
  154SAPE   H3X17135   3.543   4.428   6.921 -0.5079  2.1544 -2.0621
  154SAPE   H3Y17136   3.631   4.577   6.917 -0.8016 -1.3166 -2.4372
  154SAPE   C3417137   3.622   4.482   7.113 -0.1209 -0.0316 -0.2788
  154SAPE   H4X17138   3.714   4.532   7.150 -1.4015  1.8894  0.4691
  154SAPE   H4Y17139   3.620   4.382   7.162 -0.6039 -0.2996 -0.8440
  154SAPE   C3517140   3.494   4.562   7.149  0.9936  0.1497  0.0136
  154SAPE   H5X17141   3.414   4.487   7.133 -0.3557  1.5244  0.0627
  154SAPE   H5Y17142   3.471   4.650   7.085 -1.6267  0.8613  1.7776
  154SAPE   C3617143   3.475   4.611   7.299  0.4257  0.5681  0.0891
  154SAPE   H6X17144   3.561   4.665   7.342  0.7945 -0.3981  0.6062
  154SAPE   H6Y17145   3.467   4.521   7.364 -0.3163  1.1278  0.7996
  154SAPE   C3717146   3.346   4.697   7.298 -0.0366  0.6841  0.4149
  154SAPE   H7X17147   3.276   4.642   7.230 -2.5040  2.2263  1.5550
  154SAPE   H7Y17148   3.364   4.798   7.257  0.0353  0.5286  0.0571
  154SAPE   C3817149   3.287   4.723   7.438  0.1184 -0.1587  0.1258
  154SAPE   H8X17150   3.352   4.794   7.493  0.7301  0.6809 -1.6045
  154SAPE   H8Y17151   3.272   4.632   7.501  0.4316 -0.5940 -0.4217
  154SAPE   C3917152   3.145   4.789   7.427 -0.1436  1.0195 -0.4775
  154SAPE   H9X17153   3.113   4.767   7.323 -0.3288 -4.6960  0.4402
  154SAPE   H9Y17154   3.160   4.898   7.437  1.0454  0.9486 -1.2247
  154SAPE  C31017155   3.049   4.736   7.534 -0.3702 -0.4127  0.7287
  154SAPE  H10X17156   2.963   4.804   7.518  1.1742  1.4159 -0.2375
  154SAPE  H10Y17157   3.086   4.768   7.634  0.5853  2.1346 -0.3567
  154SAPE  C31117158   3.001   4.595   7.526  0.0030  0.1805  0.7179
  154SAPE  H11X17159   3.081   4.524   7.554  0.1600  0.3199  0.6263
  154SAPE  H11Y17160   2.979   4.578   7.418 -0.2003  2.8185  0.2812
  154SAPE  C31217161   2.872   4.579   7.608 -0.5918 -0.6582  0.1469
  154SAPE  H12X17162   2.842   4.472   7.614  1.1411 -1.2578 -1.0579
  154SAPE  H12Y17163   2.789   4.630   7.556  0.0690  1.0434  0.6968
  154SAPE  C31317164   2.877   4.630   7.752  0.4485  1.3214 -0.4565
  154SAPE  H13X17165   2.777   4.601   7.791  0.5057  1.7623  0.0377
  154SAPE  H13Y17166   2.875   4.741   7.751  1.1600  1.3392 -1.7499
  154SAPE  C31417167   2.998   4.572   7.835  0.3081 -0.1806  0.2280
  154SAPE  H14X17168   3.087   4.588   7.771  0.0478 -1.3464 -0.4480
  154SAPE  H14Y17169   2.993   4.461   7.838 -2.1948 -0.2785 -2.8033
  154SAPE  C31517170   3.014   4.645   7.971 -0.5057 -0.2576 -0.0157
  154SAPE  H15X17171   3.007   4.751   7.942 -0.6877 -0.0478  0.7588
  154SAPE  H15Y17172   3.118   4.621   8.005 -0.8984  0.2832  1.7041
  154SAPE  C31617173   2.921   4.587   8.078 -0.4489 -0.0699 -0.5610
  154SAPE  H16X17174   2.819   4.568   8.039 -1.5769  0.2303  2.0550
  154SAPE  H16Y17175   2.900   4.661   8.158 -0.5725 -0.0984 -0.5676
  154SAPE  C31717176   2.960   4.456   8.155  0.0567  0.2563 -0.2960
  154SAPE  H17X17177   3.062   4.463   8.198 -1.3798  0.4640  3.4217
  154SAPE  H17Y17178   2.946   4.365   8.091  0.8934 -0.4686  0.5369
  154SAPE  C31817179   2.882   4.433   8.284  0.4827  0.6643 -0.4781
  154SAPE  H18X17180   2.888   4.523   8.349 -1.6226  0.6538 -0.2004
  154SAPE  H18Y17181   2.920   4.349   8.345  0.4023  0.1529 -1.1144
  154SAPE  H18Z17182   2.776   4.407   8.261  1.0450 -2.3450 -0.0473
  155SAPE     N17183   0.645   4.957   6.155 -0.0258 -0.1303  0.2473
  155SAPE   HN117184   0.588   5.031   6.200 -0.8746 -1.1471  0.9014
  155SAPE   HN217185   0.736   4.950   6.205 -0.7529  1.8900  2.0010
  155SAPE   HN317186   0.664   4.982   6.056 -2.6418 -1.6434 -0.7452
  155SAPE   C1217187   0.558   4.826   6.169  0.1034 -0.0156  0.7335
  155SAPE  H12A17188   0.580   4.759   6.083  0.4204  0.2362  0.6157
  155SAPE  H12B17189   0.453   4.862   6.167  0.3314  0.6776 -0.7996
  155SAPE   C1117190   0.592   4.752   6.304  0.2005 -0.3356  0.3565
  155SAPE  H11A17191   0.700   4.734   6.321 -0.0486 -1.1604  1.1897
  155SAPE  H11B17192   0.549   4.650   6.313 -1.5265  0.3904  0.6449
  155SAPE     P17193   0.450   4.781   6.529  0.3714 -0.3063  0.0737
  155SAPE   O1317194   0.305   4.798   6.498 -0.2556  0.1852 -0.2613
  155SAPE   O1417195   0.487   4.647   6.572  0.0753 -0.2648 -0.0376
  155SAPE   O1217196   0.540   4.834   6.411  0.3544  0.6485  0.4387
  155SAPE   O1117197   0.486   4.875   6.642  0.2771  0.1148  0.0070
  155SAPE    C117198   0.520   5.015   6.638 -0.3812  0.8906 -0.3971
  155SAPE    HA17199   0.583   5.029   6.548  0.7912  0.0939  0.2737
  155SAPE    HB17200   0.431   5.078   6.616 -2.0393 -1.7428 -1.7619
  155SAPE    C217201   0.603   5.053   6.766  0.0543  0.2872 -0.1419
  155SAPE    HS17202   0.636   5.159   6.762 -0.4679  0.4828  0.4999
  155SAPE   O2117203   0.726   4.961   6.767  0.1195 -0.1249 -0.1259
  155SAPE   C2117204   0.835   4.998   6.826  0.2869  0.5107  0.1492
  155SAPE   O2217205   0.856   5.107   6.875 -0.7067 -0.3117  0.0160
  155SAPE   C2217206   0.930   4.875   6.823  0.6365 -0.4983  0.1048
  155SAPE   H2R17207   0.889   4.786   6.771  0.3854 -0.9437  1.0535
  155SAPE   H2S17208   1.003   4.914   6.749  1.0801 -1.5304 -0.0118
  155SAPE    C317209   0.515   5.028   6.896  0.2757  0.7914  0.1384
  155SAPE    HX17210   0.481   4.923   6.903 -1.4772  1.3843  1.0341
  155SAPE    HY17211   0.419   5.084   6.895  0.2386  0.7650  0.9461
  155SAPE   O3117212   0.579   5.060   7.024  0.3583 -0.0803 -0.3142
  155SAPE   C3117213   0.586   5.195   7.054  0.1779  0.1848  0.0314
  155SAPE   O3217214   0.551   5.288   6.981 -0.3900 -0.0542  0.1852
  155SAPE   C3217215   0.637   5.207   7.204  0.2714 -0.7129  0.6147
  155SAPE   H2X17216   0.732   5.265   7.204 -0.3036  0.2529  0.3036
  155SAPE   H2Y17217   0.648   5.106   7.249  2.4030 -0.9570 -0.3093
  155SAPE   C2317218   1.011   4.852   6.951  0.1178 -0.1741  0.6632
  155SAPE   H3R17219   1.056   4.950   6.978  0.5006  0.2797 -1.4509
  155SAPE   H3S17220   1.096   4.796   6.906 -0.2077  0.1142 -0.3371
  155SAPE   C2417221   0.947   4.777   7.068 -0.9657  0.5974  0.0848
  155SAPE   H4R17222   1.028   4.726   7.124 -1.0126  0.7239  0.2660
  155SAPE   H4S17223   0.883   4.695   7.030 -0.2819  0.4495 -0.8021
  155SAPE   C2517224   0.873   4.874   7.157  0.0597  0.3334 -0.5702
  155SAPE   H5R17225   0.868   4.980   7.128  0.1069  0.8670  1.2424
  155SAPE   C2617226   0.818   4.835   7.273  0.3154  0.1754  0.1071
  155SAPE   H6R17227   0.776   4.909   7.343  1.0466 -1.0814  1.9731
  155SAPE   C2717228   0.825   4.704   7.347  0.1192  0.3103 -0.0196
  155SAPE   H7R17229   0.867   4.719   7.449  0.4730 -2.0081  0.2241
  155SAPE   H7S17230   0.896   4.645   7.285  1.4344 -0.1384  1.8243
  155SAPE   C2817231   0.688   4.645   7.350 -0.3062  0.3050 -0.2823
  155SAPE   H8R17232   0.637   4.655   7.253 -0.3921 -1.8153 -0.5143
  155SAPE   C2917233   0.620   4.587   7.452 -0.9857 -0.0065 -0.0407
  155SAPE   H9R17234   0.514   4.561   7.439 -1.8380  1.5566  2.7294
  155SAPE  C21017235   0.675   4.574   7.584 -0.0107 -0.4143 -0.0496
  155SAPE  H10R17236   0.784   4.554   7.594  0.4664  2.2270  0.9517
  155SAPE  H10S17237   0.644   4.471   7.611 -0.4470 -0.1877  0.3240
  155SAPE  C21117238   0.643   4.681   7.688 -0.1935 -0.8335  0.7946
  155SAPE  H11R17239   0.623   4.779   7.640 -1.0773 -1.5217 -0.2827
  155SAPE  C21217240   0.632   4.653   7.821 -0.1532 -0.6504  0.2460
  155SAPE  H12R17241   0.607   4.740   7.883  2.0091  1.1712 -1.2501
  155SAPE  C21317242   0.645   4.514   7.881 -0.1296  0.3008  0.2255
  155SAPE  H13R17243   0.734   4.542   7.942  0.7685  0.0870 -0.9297
  155SAPE  H13S17244   0.671   4.439   7.803 -1.4070  0.5187 -0.4326
  155SAPE  C21417245   0.528   4.477   7.972 -0.2590  0.2562  0.1552
  155SAPE  H14R17246   0.431   4.480   7.919 -0.3800 -1.5336  0.2245
  155SAPE  C21517247   0.542   4.426   8.094 -0.0139 -0.0873 -0.3089
  155SAPE  H15R17248   0.459   4.404   8.163 -0.1276 -0.3699 -0.5354
  155SAPE  C21617249   0.668   4.397   8.164 -0.7322 -0.2342 -0.4096
  155SAPE  H16R17250   0.760   4.414   8.104  1.1007  1.2782  2.6034
  155SAPE  H16S17251   0.669   4.291   8.198 -0.7196 -0.4381 -1.0284
  155SAPE  C21717252   0.706   4.495   8.275  0.3669  0.6917 -0.4686
  155SAPE  H17R17253   0.811   4.469   8.300  0.0901 -1.2932 -1.1596
  155SAPE  H17S17254   0.656   4.470   8.371 -1.4525  0.3715 -1.4359
  155SAPE  C21817255   0.699   4.646   8.242 -0.1611  0.1931 -0.3165
  155SAPE  H18R17256   0.592   4.663   8.217 -0.7811  0.1222  2.0618
  155SAPE  H18S17257   0.763   4.663   8.153  1.2853  0.9175  0.8283
  155SAPE  C21917258   0.726   4.739   8.361  0.0578 -0.8681  0.4870
  155SAPE  H19R17259   0.652   4.723   8.442 -0.1394  0.1282  0.5082
  155SAPE  H19S17260   0.714   4.842   8.322  4.4761 -0.8358 -1.4513
  155SAPE  C22017261   0.870   4.749   8.423  0.2710 -0.0241  0.0932
  155SAPE  H20R17262   0.886   4.857   8.447  0.0678  0.6901 -2.6266
  155SAPE  H20S17263   0.946   4.727   8.345  0.7783 -0.3212  0.6665
  155SAPE  H20T17264   0.877   4.679   8.509 -1.1200  1.0571  1.1419
  155SAPE   C3317265   0.535   5.276   7.291 -0.7085  0.1831  0.1069
  155SAPE   H3X17266   0.437   5.224   7.292  0.5116 -2.3962  3.7117
  155SAPE   H3Y17267   0.519   5.385   7.271  1.9052  0.5904 -0.0388
  155SAPE   C3417268   0.580   5.263   7.440 -0.0275 -0.9587  0.0766
  155SAPE   H4X17269   0.544   5.343   7.508  0.9854 -0.4073 -0.0283
  155SAPE   H4Y17270   0.690   5.259   7.442 -0.0153 -0.4265  0.6238
  155SAPE   C3517271   0.513   5.142   7.502  0.1653 -0.0051  0.0971
  155SAPE   H5X17272   0.549   5.051   7.450 -1.6765 -0.6096 -0.2197
  155SAPE   H5Y17273   0.404   5.148   7.480 -0.2405  0.2133  1.9612
  155SAPE   C3617274   0.542   5.135   7.655  0.5449  0.3028  0.0083
  155SAPE   H6X17275   0.465   5.063   7.691  1.1123  0.4090  1.5112
  155SAPE   H6Y17276   0.518   5.224   7.717 -0.2063  1.8244 -2.3095
  155SAPE   C3717277   0.682   5.077   7.684  0.1112 -0.0007 -0.1010
  155SAPE   H7X17278   0.727   5.023   7.598 -0.8526  0.0159 -0.6383
  155SAPE   H7Y17279   0.687   5.013   7.774 -1.3791 -2.1545 -1.4390
  155SAPE   C3817280   0.790   5.182   7.726 -0.2284 -0.4792 -0.5148
  155SAPE   H8X17281   0.748   5.279   7.693  0.4017 -0.6334 -1.8369
  155SAPE   H8Y17282   0.880   5.168   7.662  0.3077 -1.3495  0.3843
  155SAPE   C3917283   0.825   5.182   7.879 -0.0008  0.2294  0.3966
  155SAPE   H9X17284   0.909   5.254   7.890 -0.9424  1.3271  0.6172
  155SAPE   H9Y17285   0.846   5.080   7.919  1.6020 -0.1501 -1.2559
  155SAPE  C31017286   0.706   5.243   7.956  0.7007  0.8644  0.4940
  155SAPE  H10X17287   0.608   5.205   7.919  0.3094  0.6486  1.7077
  155SAPE  H10Y17288   0.698   5.352   7.936  0.6287  0.9124  0.7856
  155SAPE  C31117289   0.704   5.213   8.111 -0.4898 -0.4567  0.1418
  155SAPE  H11X17290   0.701   5.103   8.120  1.7093 -0.5147  0.7012
  155SAPE  H11Y17291   0.614   5.264   8.154 -0.2288 -2.1760  2.9376
  155SAPE  C31217292   0.828   5.276   8.185 -0.1686 -0.0459  0.0917
  155SAPE  H12X17293   0.795   5.382   8.197  0.7338  0.6249 -2.6360
  155SAPE  H12Y17294   0.919   5.280   8.121 -0.3692 -0.9240 -0.2618
  155SAPE  C31317295   0.861   5.204   8.319  0.3263  0.3868  0.5575
  155SAPE  H13X17296   0.921   5.112   8.300  0.4110  0.0286  2.3326
  155SAPE  H13Y17297   0.768   5.172   8.372  0.8795 -1.1995  0.6380
  155SAPE  C31417298   0.954   5.285   8.412  0.6795 -0.5795  0.1259
  155SAPE  H14X17299   0.925   5.392   8.402  0.8413 -0.6178 -0.8581
  155SAPE  H14Y17300   1.060   5.265   8.388  0.6785 -2.5037  1.4814
  155SAPE  C31517301   0.956   5.240   8.556  0.0513 -0.0185 -0.6740
  155SAPE  H15X17302   1.009   5.143   8.540  0.3315  0.1715 -0.9106
  155SAPE  H15Y17303   0.854   5.215   8.592  0.5106 -0.5587  0.2978
  155SAPE  C31617304   1.036   5.332   8.648  0.3975 -0.5391  0.0684
  155SAPE  H16X17305   0.970   5.421   8.655 -0.2856 -0.6091 -3.6355
  155SAPE  H16Y17306   1.134   5.363   8.605  0.7652 -0.5859  0.8611
  155SAPE  C31717307   1.063   5.281   8.784  0.9777  0.0599 -0.0045
  155SAPE  H17X17308   1.150   5.211   8.777 -0.8350 -2.1214 -2.7830
  155SAPE  H17Y17309   0.982   5.227   8.836 -0.3497  0.1485 -1.8891
  155SAPE  C31817310   1.089   5.396   8.885 -0.8773  0.0682  0.2331
  155SAPE  H18X17311   0.991   5.411   8.937 -1.2809 -1.1922 -0.1101
  155SAPE  H18Y17312   1.131   5.485   8.834  0.4563 -1.5243 -1.5866
  155SAPE  H18Z17313   1.156   5.353   8.963 -0.5342 -0.2100 -0.2152
  156SAPE     N17314   5.599   5.324   6.157  0.3916  0.2320 -0.9071
  156SAPE   HN117315   5.654   5.406   6.124  0.0756  0.2124 -1.4953
  156SAPE   HN217316   5.648   5.237   6.129  1.2199  0.8932 -1.5882
  156SAPE   HN317317   5.506   5.332   6.112 -0.4033  0.5686  0.7229
  156SAPE   C1217318   5.581   5.333   6.311  0.5968  0.0464  0.2960
  156SAPE  H12A17319   5.674   5.289   6.354  0.7860  0.9369  0.8328
  156SAPE  H12B17320   5.498   5.268   6.344  2.4870 -1.8889  1.5264
  156SAPE   C1117321   5.579   5.481   6.353  0.3146  0.2987 -0.0535
  156SAPE  H11A17322   5.581   5.482   6.464  1.2222  0.0359 -0.0621
  156SAPE  H11B17323   5.480   5.524   6.323  0.2589  1.7213  1.9717
  156SAPE     P17324   5.715   5.701   6.340  0.3293 -0.0623 -0.4148
  156SAPE   O1317325   5.806   5.749   6.240  0.0229  0.4860 -0.0937
  156SAPE   O1417326   5.590   5.779   6.356  0.3694 -0.5712  0.0171
  156SAPE   O1217327   5.683   5.553   6.298  0.6811  0.0635 -0.2702
  156SAPE   O1117328   5.801   5.679   6.471  0.0316 -0.0872 -0.0311
  156SAPE    C117329   5.875   5.792   6.527 -0.3097  0.2617  0.1468
  156SAPE    HA17330   5.976   5.760   6.559  0.7934  2.7265 -0.6722
  156SAPE    HB17331   5.898   5.872   6.454  0.9850 -0.7667 -0.6172
  156SAPE    C217332   5.794   5.855   6.642 -0.3484 -1.1050  0.4060
  156SAPE    HS17333   5.703   5.900   6.596 -0.0522 -0.2886  0.5975
  156SAPE   O2117334   5.877   5.953   6.712 -0.2542 -0.0326  0.0137
  156SAPE   C2117335   5.803   6.049   6.771 -0.5583 -0.2492  0.7689
  156SAPE   O2217336   5.680   6.049   6.762 -0.1010  0.0002  0.0642
  156SAPE   C2217337   5.894   6.144   6.853 -0.9984  0.3008  0.1620
  156SAPE   H2R17338   5.978   6.168   6.785 -0.7588  2.8956  1.2457
  156SAPE   H2S17339   5.842   6.236   6.889 -0.1846  1.1050 -0.6637
  156SAPE    C317340   5.750   5.734   6.728 -0.1782  0.0124 -0.9114
  156SAPE    HX17341   5.842   5.677   6.754 -1.2845 -1.0586  0.8882
  156SAPE    HY17342   5.687   5.660   6.675  1.5441 -1.0002 -1.6508
  156SAPE   O3117343   5.679   5.772   6.846 -0.1434 -0.3288 -0.1892
  156SAPE   C3117344   5.557   5.804   6.837  0.3230  0.9270  0.2024
  156SAPE   O3217345   5.483   5.786   6.739  0.1622 -0.4243  0.0255
  156SAPE   C3217346   5.509   5.860   6.975  0.2486  0.6906 -0.4970
  156SAPE   H2X17347   5.596   5.892   7.035 -1.1415  1.3109  1.2777
  156SAPE   H2Y17348   5.447   5.786   7.030 -0.7548  1.3205 -0.7574
  156SAPE   C2317349   5.975   6.061   6.959 -0.9131  0.4022  0.1535
  156SAPE   H3R17350   6.061   6.114   7.006  0.0230  0.1180 -1.1542
  156SAPE   H3S17351   6.030   5.978   6.909  0.2174  0.9081  0.5320
  156SAPE   C2417352   5.887   5.992   7.055  0.2406  0.8030 -0.7176
  156SAPE   H4R17353   5.944   5.919   7.116 -2.7320 -0.1502  1.1622
  156SAPE   H4S17354   5.813   5.928   7.003  2.1042 -0.4294 -1.9797
  156SAPE   C2517355   5.802   6.080   7.142 -0.1574 -0.2384  0.5023
  156SAPE   H5R17356   5.716   6.118   7.084  0.9868  1.0234 -0.4328
  156SAPE   C2617357   5.808   6.105   7.276 -0.7242  0.1663 -0.5481
  156SAPE   H6R17358   5.739   6.182   7.315 -1.0577  0.9957 -2.6618
  156SAPE   C2717359   5.915   6.045   7.364 -0.6967  0.3403 -0.0368
  156SAPE   H7R17360   5.951   5.951   7.319  0.1247  1.4314 -1.7442
  156SAPE   H7S17361   5.886   6.007   7.465  1.4267 -1.9305 -0.1888
  156SAPE   C2817362   6.040   6.136   7.364 -0.3829 -0.2318  0.0237
  156SAPE   H8R17363   6.061   6.181   7.266  0.4545 -0.5696  0.0411
  156SAPE   C2917364   6.118   6.154   7.469  0.1977 -0.6603  0.2108
  156SAPE   H9R17365   6.207   6.215   7.448  1.3975 -2.0748  1.0408
  156SAPE  C21017366   6.095   6.098   7.610 -0.3107  0.6680  0.6948
  156SAPE  H10R17367   6.190   6.078   7.664  1.7699  1.0796 -2.5781
  156SAPE  H10S17368   6.051   5.996   7.601 -2.2395  1.4401  0.9286
  156SAPE  C21117369   6.001   6.183   7.691 -1.1086  0.5390 -0.2480
  156SAPE  H11R17370   5.958   6.276   7.651 -0.4412  1.5887  1.3525
  156SAPE  C21217371   5.972   6.159   7.821 -0.1064  0.0902 -0.0122
  156SAPE  H12R17372   5.902   6.226   7.872  0.2885  0.2629  0.3044
  156SAPE  C21317373   6.018   6.047   7.904  0.5891  0.1913 -0.1083
  156SAPE  H13R17374   6.127   6.028   7.888  0.5532  0.2679 -0.4598
  156SAPE  H13S17375   5.970   5.951   7.875  0.1247  0.3974 -0.0229
  156SAPE  C21417376   5.992   6.076   8.049 -0.1599  0.5837  0.0267
  156SAPE  H14R17377   5.920   6.158   8.062  1.3224  1.8462  0.6189
  156SAPE  C21517378   6.056   6.030   8.155  0.0755 -0.3088 -0.0121
  156SAPE  H15R17379   6.049   6.080   8.252  0.8322 -1.1376  0.4818
  156SAPE  C21617380   6.166   5.926   8.143 -0.0045  0.1797 -0.7760
  156SAPE  H16R17381   6.258   5.985   8.125  1.3735 -0.7014  2.6634
  156SAPE  H16S17382   6.160   5.852   8.060  0.8264  0.0171 -0.6970
  156SAPE  C21717383   6.210   5.839   8.266 -0.0215 -0.1961 -0.2449
  156SAPE  H17R17384   6.253   5.748   8.219  1.3053  0.5690 -0.5587
  156SAPE  H17S17385   6.120   5.814   8.326 -0.5870  1.4927 -0.3404
  156SAPE  C21817386   6.307   5.909   8.354 -0.5860  0.1308  0.4019
  156SAPE  H18R17387   6.385   5.951   8.287 -2.1254 -1.0821 -2.3213
  156SAPE  H18S17388   6.354   5.844   8.430  0.9765  0.1134 -0.5415
  156SAPE  C21917389   6.254   6.024   8.436 -0.0950  0.1951 -0.1385
  156SAPE  H19R17390   6.157   5.989   8.477  0.9375 -1.7885  0.7666
  156SAPE  H19S17391   6.226   6.113   8.375 -1.1736  0.6500  0.9865
  156SAPE  C22017392   6.366   6.057   8.538 -0.0478  0.0110 -0.1853
  156SAPE  H20R17393   6.413   5.971   8.590 -3.1705 -0.7206  1.7311
  156SAPE  H20S17394   6.326   6.127   8.615  1.6587  2.5527 -1.4817
  156SAPE  H20T17395   6.439   6.113   8.476  0.3339 -0.3474 -0.0625
  156SAPE   C3317396   5.404   5.979   6.956 -0.1392  0.0382 -0.1662
  156SAPE   H3X17397   5.310   5.938   6.914  1.7504 -0.7891 -4.0800
  156SAPE   H3Y17398   5.448   6.061   6.895 -2.4248  2.3519  1.0725
  156SAPE   C3417399   5.383   6.054   7.088  0.2079 -0.6946  0.3006
  156SAPE   H4X17400   5.472   6.118   7.105  1.4982 -2.3381 -0.0042
  156SAPE   H4Y17401   5.371   5.976   7.166  2.0005 -1.3150 -0.0043
  156SAPE   C3517402   5.263   6.143   7.096 -0.4889  1.0017 -0.4432
  156SAPE   H5X17403   5.179   6.069   7.097  1.0487 -0.8198  0.1777
  156SAPE   H5Y17404   5.267   6.206   7.005  3.9129 -1.3461 -2.1956
  156SAPE   C3617405   5.276   6.236   7.216 -0.0318  0.4752 -0.3155
  156SAPE   H6X17406   5.185   6.299   7.225 -0.0108  0.3783  0.8131
  156SAPE   H6Y17407   5.368   6.297   7.209  0.7116  0.2352  4.1738
  156SAPE   C3717408   5.287   6.152   7.349  0.0316  0.6406  0.8250
  156SAPE   H7X17409   5.395   6.128   7.360  0.5266  1.5371 -1.6079
  156SAPE   H7Y17410   5.225   6.060   7.359  0.8190  0.1084  0.8722
  156SAPE   C3817411   5.251   6.237   7.470  0.1357  0.3607  0.1633
  156SAPE   H8X17412   5.141   6.252   7.474  0.0086  0.1713 -1.6541
  156SAPE   H8Y17413   5.303   6.334   7.457  0.2340  0.7816  3.0553
  156SAPE   C3917414   5.317   6.189   7.597  0.0197  0.2402 -0.6903
  156SAPE   H9X17415   5.427   6.209   7.598  0.2674 -1.0444 -1.3017
  156SAPE   H9Y17416   5.299   6.084   7.628  0.3276  0.6915  1.1964
  156SAPE  C31017417   5.252   6.258   7.726 -0.1814  0.3314 -0.1672
  156SAPE  H10X17418   5.158   6.203   7.751  1.2150 -0.8164  3.1652
  156SAPE  H10Y17419   5.240   6.368   7.731 -0.7537  0.2585  0.3106
  156SAPE  C31117420   5.340   6.240   7.847 -0.7282  0.1401  0.3814
  156SAPE  H11X17421   5.427   6.309   7.844 -0.1440 -0.6266 -1.1570
  156SAPE  H11Y17422   5.389   6.142   7.861 -0.2364  0.3371  0.0610
  156SAPE  C31217423   5.254   6.276   7.970 -0.2771 -0.2215  0.4849
  156SAPE  H12X17424   5.154   6.228   7.959 -1.6035  2.3594  0.4551
  156SAPE  H12Y17425   5.234   6.386   7.967 -2.7748 -0.6142 -2.5055
  156SAPE  C31317426   5.309   6.231   8.099  0.3156  0.2872  0.1338
  156SAPE  H13X17427   5.415   6.254   8.121  0.5243 -0.1584 -0.3604
  156SAPE  H13Y17428   5.317   6.120   8.093  0.9407  0.4042 -2.0980
  156SAPE  C31417429   5.214   6.267   8.219 -0.3514  0.1486 -0.1830
  156SAPE  H14X17430   5.263   6.209   8.301  1.4483  0.5273 -0.9355
  156SAPE  H14Y17431   5.120   6.216   8.188 -0.2405 -0.3012  0.2082
  156SAPE  C31517432   5.190   6.404   8.258  0.2724  0.0869  0.0438
  156SAPE  H15X17433   5.149   6.413   8.361 -0.4817 -0.4938 -0.1971
  156SAPE  H15Y17434   5.113   6.452   8.193  1.8295 -1.3892 -3.1010
  156SAPE  C31617435   5.318   6.488   8.256 -0.9959 -0.2838  0.0603
  156SAPE  H16X17436   5.339   6.513   8.149  0.7282 -1.5174  0.0565
  156SAPE  H16Y17437   5.394   6.418   8.297 -1.0943  1.0845  2.7645
  156SAPE  C31717438   5.315   6.615   8.338  0.0919  0.1510  0.7618
  156SAPE  H17X17439   5.321   6.578   8.442 -0.9195  0.4126  0.9316
  156SAPE  H17Y17440   5.225   6.677   8.317  0.6504  0.6437 -0.2104
  156SAPE  C31817441   5.439   6.702   8.313  0.0016  0.6886  0.1252
  156SAPE  H18X17442   5.441   6.753   8.214 -0.6266 -0.9960 -0.7993
  156SAPE  H18Y17443   5.525   6.636   8.336 -0.8583 -0.3789  0.3758
  156SAPE  H18Z17444   5.437   6.785   8.386  0.3775 -0.0326  0.9848
  157SAPE     N17445   2.896   1.891   6.195 -0.1277 -0.2818  0.2957
  157SAPE   HN117446   2.805   1.847   6.174 -0.3939  0.1022  0.6351
  157SAPE   HN217447   2.879   1.973   6.256 -3.0650  1.7620 -2.8802
  157SAPE   HN317448   2.938   1.932   6.109  0.5141 -2.5483 -0.5431
  157SAPE   C1217449   2.989   1.781   6.261  0.3723  0.4400  0.1697
  157SAPE  H12A17450   2.957   1.769   6.367 -0.0611  1.4626  0.1703
  157SAPE  H12B17451   3.095   1.814   6.257  0.3943  0.3494 -3.9632
  157SAPE   C1117452   2.981   1.656   6.171  0.4978 -0.5244  0.0473
  157SAPE  H11A17453   3.053   1.577   6.201  0.6099  0.8277  3.9089
  157SAPE  H11B17454   3.012   1.696   6.072  0.3499  0.4456  0.3908
  157SAPE     P17455   2.783   1.505   6.255 -0.0770 -0.2381 -0.3473
  157SAPE   O1317456   2.743   1.587   6.368  0.3417 -0.0652 -0.1638
  157SAPE   O1417457   2.681   1.419   6.193  0.7389  0.2542 -0.1803
  157SAPE   O1217458   2.848   1.595   6.144 -0.6175  0.6982  0.4097
  157SAPE   O1117459   2.911   1.422   6.305 -0.6797  0.3441 -0.4843
  157SAPE    C117460   2.915   1.280   6.302  0.7037 -0.3331  0.3463
  157SAPE    HA17461   2.853   1.241   6.218  1.1905 -1.9974  0.7295
  157SAPE    HB17462   3.017   1.245   6.276 -0.1316 -2.1130 -0.7498
  157SAPE    C217463   2.857   1.213   6.434  0.3005 -0.1189  0.5885
  157SAPE    HS17464   2.748   1.209   6.412  0.1295 -1.2447  1.5033
  157SAPE   O2117465   2.889   1.305   6.542  0.6433  0.0261 -0.7448
  157SAPE   C2117466   2.793   1.312   6.644 -0.1730  0.1338  0.2915
  157SAPE   O2217467   2.681   1.268   6.631  0.1733 -0.0774 -0.1299
  157SAPE   C2217468   2.844   1.391   6.764 -0.0645  0.3603  0.3910
  157SAPE   H2R17469   2.954   1.403   6.756 -0.0783  0.6905  0.6745
  157SAPE   H2S17470   2.788   1.487   6.760 -1.0846 -0.2359 -0.0328
  157SAPE    C317471   2.908   1.068   6.457  0.3030  0.0224  0.0410
  157SAPE    HX17472   3.019   1.068   6.465  0.4938 -2.5537 -1.5633
  157SAPE    HY17473   2.879   0.998   6.376 -0.7333  0.3223  0.1450
  157SAPE   O3117474   2.859   1.011   6.574 -0.2586  0.1333 -0.3285
  157SAPE   C3117475   2.734   0.957   6.567 -0.5360 -0.1940  1.0141
  157SAPE   O3217476   2.662   0.967   6.469 -0.0578  0.1899  0.0836
  157SAPE   C3217477   2.692   0.897   6.702 -0.1723 -0.2832  0.2277
  157SAPE   H2X17478   2.775   0.912   6.774  0.0884 -0.0175 -0.1280
  157SAPE   H2Y17479   2.687   0.787   6.683 -0.8789 -0.3981  1.0221
  157SAPE   C2317480   2.817   1.306   6.894  0.2432 -0.2528  0.0375
  157SAPE   H3R17481   2.713   1.267   6.890 -0.2234  1.0274 -1.7672
  157SAPE   H3S17482   2.829   1.367   6.986 -0.7607 -1.4412  0.9916
  157SAPE   C2417483   2.917   1.185   6.917  0.0754  0.1824  0.3134
  157SAPE   H4R17484   2.910   1.136   6.817 -0.7659  2.2343 -0.6802
  157SAPE   H4S17485   2.875   1.113   6.990  1.4723 -0.3022  0.6628
  157SAPE   C2517486   3.065   1.203   6.930  0.4756 -0.0016  0.3454
  157SAPE   H5R17487   3.097   1.258   6.840  0.4261  1.0652  0.9541
  157SAPE   C2617488   3.148   1.150   7.019  0.7985  0.4658  0.3837
  157SAPE   H6R17489   3.255   1.177   7.011  0.4072  2.6880  1.7410
  157SAPE   C2717490   3.113   1.060   7.140  0.8687  0.5651 -0.5965
  157SAPE   H7R17491   3.205   1.002   7.159  0.5435  0.2086 -0.0913
  157SAPE   H7S17492   3.030   0.990   7.115 -0.2234  0.8089  2.0127
  157SAPE   C2817493   3.067   1.133   7.266 -0.6938  0.0744  0.7404
  157SAPE   H8R17494   3.007   1.224   7.247  2.3658  2.1724  0.3923
  157SAPE   C2917495   3.093   1.097   7.393  0.0009  0.0947 -0.3471
  157SAPE   H9R17496   3.050   1.151   7.478  0.3191 -1.8150  1.0866
  157SAPE  C21017497   3.169   0.978   7.439  0.5117  0.1365 -0.0908
  157SAPE  H10R17498   3.193   0.910   7.354 -1.8353  0.7442 -1.3432
  157SAPE  H10S17499   3.105   0.923   7.512 -0.5766  0.8214 -0.5014
  157SAPE  C21117500   3.295   1.017   7.513 -0.1904  0.1139 -0.3057
  157SAPE  H11R17501   3.382   1.012   7.446 -0.4812 -1.1622 -0.6060
  157SAPE  C21217502   3.313   1.051   7.643 -0.2568 -0.7693  0.3936
  157SAPE  H12R17503   3.414   1.077   7.677 -1.3640  0.3301  3.1182
  157SAPE  C21317504   3.210   1.055   7.755  0.2829 -0.2070 -0.4156
  157SAPE  H13R17505   3.112   1.026   7.712 -0.9273  0.2370  1.8806
  157SAPE  H13S17506   3.194   1.154   7.802 -2.0943 -0.6766 -0.1069
  157SAPE  C21417507   3.243   0.956   7.862 -0.0895  0.3136  0.5048
  157SAPE  H14R17508   3.256   0.854   7.822 -1.9208 -0.1644  1.0544
  157SAPE  C21517509   3.252   0.965   7.997  1.0458 -0.2272 -0.1964
  157SAPE  H15R17510   3.279   0.872   8.049  2.0751  1.3668  2.3090
  157SAPE  C21617511   3.242   1.096   8.073 -0.2460 -0.0839 -0.6549
  157SAPE  H16R17512   3.144   1.092   8.125 -1.1850  0.7932 -2.2690
  157SAPE  H16S17513   3.230   1.184   8.006  0.1315 -0.8240 -1.7263
  157SAPE  C21717514   3.360   1.126   8.157 -0.4993  0.2754  0.3267
  157SAPE  H17R17515   3.380   1.034   8.216  0.4516 -1.3252 -2.3235
  157SAPE  H17S17516   3.343   1.204   8.233  1.2780  0.0349  1.0105
  157SAPE  C21817517   3.489   1.159   8.086 -0.0167 -0.2725 -0.3512
  157SAPE  H18R17518   3.485   1.256   8.032  0.1384  1.6302  2.7778
  157SAPE  H18S17519   3.519   1.072   8.024  1.2164 -0.6011  0.6474
  157SAPE  C21917520   3.603   1.187   8.178  0.1562  0.5264  0.3124
  157SAPE  H19R17521   3.620   1.104   8.250 -0.7265  1.1302  1.2667
  157SAPE  H19S17522   3.591   1.278   8.240  2.5452  1.2733 -0.2073
  157SAPE  C22017523   3.735   1.209   8.102  0.3589  1.0636  0.5928
  157SAPE  H20R17524   3.773   1.313   8.107  1.4231  1.0641 -3.7981
  157SAPE  H20S17525   3.722   1.193   7.993  0.4048  0.1325  0.7143
  157SAPE  H20T17526   3.819   1.152   8.146  0.2181  1.2728  1.1442
  157SAPE   C3317527   2.566   0.966   6.744 -0.0209 -0.0798 -0.4991
  157SAPE   H3X17528   2.486   0.912   6.690 -0.7839 -0.2520  0.7609
  157SAPE   H3Y17529   2.559   1.075   6.724 -0.2038 -0.1244 -0.6723
  157SAPE   C3417530   2.524   0.930   6.894  0.0099  0.0031  0.5445
  157SAPE   H4X17531   2.507   0.821   6.891  1.8117 -0.3156  0.9183
  157SAPE   H4Y17532   2.419   0.961   6.912 -1.1128 -3.6428  1.0539
  157SAPE   C3517533   2.616   0.975   7.005 -0.4110 -0.1734  0.0308
  157SAPE   H5X17534   2.650   1.080   6.994  1.4101 -0.5409  1.6301
  157SAPE   H5Y17535   2.701   0.904   7.015  0.9183  1.0529 -1.9632
  157SAPE   C3617536   2.559   0.959   7.148 -0.5453 -0.4601 -0.7330
  157SAPE   H6X17537   2.532   0.855   7.178  1.2297 -0.8606 -0.3992
  157SAPE   H6Y17538   2.457   1.001   7.153 -0.2115  0.4087 -1.1193
  157SAPE   C3717539   2.666   1.021   7.247  0.5346  1.1237 -0.3629
  157SAPE   H7X17540   2.672   1.132   7.241  1.1319  1.1199  0.0111
  157SAPE   H7Y17541   2.764   0.974   7.225 -0.3761 -0.9827 -0.1340
  157SAPE   C3817542   2.623   0.990   7.400 -0.3043 -0.0162  0.0429
  157SAPE   H8X17543   2.612   0.882   7.424  0.0810  0.3029  1.7734
  157SAPE   H8Y17544   2.524   1.033   7.427 -0.5050 -1.4331  1.6896
  157SAPE   C3917545   2.727   1.039   7.498 -0.6272 -0.9599 -0.2561
  157SAPE   H9X17546   2.748   1.146   7.478  1.2193 -0.8742  1.7303
  157SAPE   H9Y17547   2.827   0.992   7.485  0.4489  0.4656  2.0925
  157SAPE  C31017548   2.695   1.007   7.651 -0.3834  0.7607  0.6502
  157SAPE  H10X17549   2.701   0.897   7.662  1.1747  0.5416 -1.6395
  157SAPE  H10Y17550   2.596   1.045   7.683  0.1179 -0.7372  4.4787
  157SAPE  C31117551   2.808   1.064   7.739  0.2162  0.1331 -0.6270
  157SAPE  H11X17552   2.841   1.163   7.699 -0.7812 -0.0724 -2.0274
  157SAPE  H11Y17553   2.889   0.990   7.722  0.6862  0.4892 -0.0191
  157SAPE  C31217554   2.775   1.065   7.890 -0.2538 -0.5081  0.8417
  157SAPE  H12X17555   2.699   0.987   7.910 -0.7351 -0.2135  0.1861
  157SAPE  H12Y17556   2.722   1.160   7.910 -1.3423 -0.5984 -1.3597
  157SAPE  C31317557   2.890   1.050   7.990 -0.2143 -0.0101  0.3558
  157SAPE  H13X17558   2.961   1.135   7.984 -2.3988  2.1773  2.7609
  157SAPE  H13Y17559   2.943   0.957   7.960 -1.4997 -0.5610 -0.3118
  157SAPE  C31417560   2.839   1.050   8.132 -0.3286 -0.0482 -0.6565
  157SAPE  H14X17561   2.742   1.104   8.134 -0.5522 -0.4404 -0.9348
  157SAPE  H14Y17562   2.893   1.121   8.198 -0.2392  0.7918 -1.6100
  157SAPE  C31517563   2.832   0.903   8.182  0.0523  1.0882  0.2850
  157SAPE  H15X17564   2.933   0.856   8.176 -1.1278 -1.5290 -0.9538
  157SAPE  H15Y17565   2.760   0.849   8.116  0.8937  3.1222 -2.4656
  157SAPE  C31617566   2.781   0.884   8.327 -0.4439  0.0689  0.4670
  157SAPE  H16X17567   2.687   0.940   8.345 -0.6823 -0.1521 -0.0643
  157SAPE  H16Y17568   2.867   0.916   8.390 -1.1467  0.4743  1.2361
  157SAPE  C31717569   2.759   0.739   8.358 -0.7075 -0.1692  0.3504
  157SAPE  H17X17570   2.821   0.671   8.295 -2.0197  0.8688 -2.1958
  157SAPE  H17Y17571   2.655   0.707   8.338 -0.8800 -0.0077  0.9738
  157SAPE  C31817572   2.808   0.717   8.500 -0.0853 -0.1782  0.0649
  157SAPE  H18X17573   2.800   0.617   8.548 -0.2037  0.2268  0.9046
  157SAPE  H18Y17574   2.750   0.788   8.562 -2.4239 -0.2970 -1.8604
  157SAPE  H18Z17575   2.919   0.729   8.500 -0.1257  0.5722 -1.9482
  158SAPE     N17576   3.580   6.577   5.949 -0.7218 -0.1246 -0.6211
  158SAPE   HN117577   3.546   6.506   5.881 -0.8362 -0.4633 -0.2156
  158SAPE   HN217578   3.609   6.667   5.904 -2.6149  0.2224 -1.2429
  158SAPE   HN317579   3.660   6.531   5.996 -0.8893  0.0719 -0.1325
  158SAPE   C1217580   3.465   6.613   6.045 -0.3777 -0.4948 -0.4600
  158SAPE  H12A17581   3.416   6.514   6.055  0.7740 -1.3290 -2.5591
  158SAPE  H12B17582   3.398   6.684   5.992  1.3257  1.6632  0.1244
  158SAPE   C1117583   3.531   6.661   6.177  0.1366 -0.5272 -0.1552
  158SAPE  H11A17584   3.611   6.590   6.208 -0.1340 -0.6803  0.1959
  158SAPE  H11B17585   3.462   6.653   6.264 -0.9871  0.3893 -0.9261
  158SAPE     P17586   3.479   6.920   6.183 -0.3224  0.5489  0.0343
  158SAPE   O1317587   3.546   7.033   6.122  0.1412  0.3720  0.8034
  158SAPE   O1417588   3.343   6.879   6.140  0.1828  0.1610  0.2368
  158SAPE   O1217589   3.578   6.799   6.168  0.5552 -0.0036 -0.1580
  158SAPE   O1117590   3.486   6.946   6.338  0.2310  0.5615  0.5125
  158SAPE    C117591   3.624   6.950   6.396 -0.1164  0.0608  0.9388
  158SAPE    HA17592   3.700   6.874   6.369 -0.5017 -0.4910  1.3863
  158SAPE    HB17593   3.667   7.053   6.390  1.3010 -0.4687  1.4834
  158SAPE    C217594   3.624   6.914   6.549 -0.3909  0.8233  0.6399
  158SAPE    HS17595   3.726   6.881   6.581  0.2927 -1.4125 -3.1956
  158SAPE   O2117596   3.528   6.811   6.574 -0.0201 -0.0133 -0.7899
  158SAPE   C2117597   3.550   6.689   6.526  0.9567 -0.2377  0.0824
  158SAPE   O2217598   3.652   6.651   6.471  0.0410  0.7901 -0.1241
  158SAPE   C2217599   3.431   6.608   6.567 -0.1952 -0.6703 -0.1709
  158SAPE   H2R17600   3.401   6.645   6.667  1.6049 -0.6295  0.4006
  158SAPE   H2S17601   3.348   6.643   6.502  0.4911 -0.4737 -0.9609
  158SAPE    C317602   3.580   7.045   6.637 -0.3214 -0.3817 -0.1217
  158SAPE    HX17603   3.475   7.073   6.615 -0.1097  0.9071  0.4257
  158SAPE    HY17604   3.648   7.128   6.610  1.6166 -2.0604 -0.6223
  158SAPE   O3117605   3.583   7.020   6.782  0.1876 -0.1457  0.0147
  158SAPE   C3117606   3.700   7.014   6.837 -0.5853 -0.0553  0.1054
  158SAPE   O3217607   3.811   7.019   6.782 -0.6830  0.0303 -0.2388
  158SAPE   C3217608   3.673   7.001   6.990 -0.1915 -0.6425 -0.7678
  158SAPE   H2X17609   3.673   6.897   7.028  0.4014 -0.3466  0.0953
  158SAPE   H2Y17610   3.577   7.048   7.019  0.9417  2.3383 -1.4653
  158SAPE   C2317611   3.437   6.457   6.557  0.4516 -0.8401  0.2198
  158SAPE   H3R17612   3.473   6.420   6.459 -1.2626 -0.8405 -0.4403
  158SAPE   H3S17613   3.332   6.424   6.571  0.7746 -1.3359  1.7005
  158SAPE   C2417614   3.526   6.384   6.669 -0.0886  0.8637  0.1390
  158SAPE   H4R17615   3.617   6.447   6.681  0.2858  0.1842  0.9028
  158SAPE   H4S17616   3.565   6.283   6.644 -3.1362 -0.1372 -1.0249
  158SAPE   C2517617   3.450   6.381   6.793  0.8472 -0.4965 -0.0702
  158SAPE   H5R17618   3.369   6.306   6.795  1.4639 -1.2223 -1.0708
  158SAPE   C2617619   3.457   6.468   6.894 -0.0695 -0.6567 -1.1402
  158SAPE   H6R17620   3.383   6.470   6.975  0.2245  0.8455 -0.8763
  158SAPE   C2717621   3.545   6.585   6.912  0.2561  0.8442  0.3618
  158SAPE   H7R17622   3.479   6.669   6.945 -2.1623  0.2320 -2.5170
  158SAPE   H7S17623   3.581   6.614   6.811  2.5452 -0.7071  0.6440
  158SAPE   C2817624   3.661   6.573   7.000  0.0860 -0.2866 -0.2321
  158SAPE   H8R17625   3.744   6.520   6.950  2.0645  1.6063  0.8699
  158SAPE   C2917626   3.683   6.624   7.125 -0.4334 -0.3805 -0.3275
  158SAPE   H9R17627   3.783   6.598   7.164 -0.0889  1.0238 -0.2137
  158SAPE  C21017628   3.586   6.694   7.213 -0.2905 -0.2874  0.4004
  158SAPE  H10R17629   3.484   6.711   7.172 -0.4868  0.9893  1.3338
  158SAPE  H10S17630   3.629   6.792   7.244  0.6337 -0.5438 -0.0481
  158SAPE  C21117631   3.555   6.605   7.334  0.8252 -0.3207  0.8426
  158SAPE  H11R17632   3.479   6.532   7.302  0.0502  0.6672  0.3697
  158SAPE  C21217633   3.586   6.625   7.467 -0.7244  0.5678  0.6837
  158SAPE  H12R17634   3.568   6.538   7.531 -1.1451 -0.4771 -0.7943
  158SAPE  C21317635   3.673   6.739   7.524 -0.4486 -0.0482  0.2368
  158SAPE  H13R17636   3.675   6.817   7.446 -0.6732 -0.8680 -0.6153
  158SAPE  H13S17637   3.776   6.696   7.526 -0.5358 -0.7380 -3.4756
  158SAPE  C21417638   3.635   6.793   7.667  0.1819 -0.2495 -0.0786
  158SAPE  H14R17639   3.591   6.894   7.673  1.8945  0.4405  2.4222
  158SAPE  C21517640   3.625   6.731   7.780  0.3282 -0.2617 -0.4521
  158SAPE  H15R17641   3.597   6.797   7.863  2.5165 -1.5927  1.4859
  158SAPE  C21617642   3.663   6.588   7.814 -0.7095 -1.0734  0.2120
  158SAPE  H16R17643   3.741   6.546   7.747 -2.3205  0.6493 -3.0058
  158SAPE  H16S17644   3.578   6.522   7.786  0.1650 -1.4162 -1.7982
  158SAPE  C21717645   3.677   6.545   7.960 -0.2926  0.3844 -0.2985
  158SAPE  H17R17646   3.580   6.551   8.016 -0.0748  0.5633  0.0629
  158SAPE  H17S17647   3.753   6.608   8.010 -0.1541  0.2377 -0.3242
  158SAPE  C21817648   3.728   6.399   7.979 -0.4111  0.6542  0.0858
  158SAPE  H18R17649   3.837   6.411   7.959 -0.3684  1.0494  0.5251
  158SAPE  H18S17650   3.685   6.338   7.898  2.2574 -2.0901  0.5417
  158SAPE  C21917651   3.699   6.341   8.120 -0.0678  0.5022 -0.1167
  158SAPE  H19R17652   3.720   6.232   8.118 -0.8323  0.3378  0.4594
  158SAPE  H19S17653   3.592   6.358   8.142  0.1952  1.7845  0.2791
  158SAPE  C22017654   3.799   6.390   8.223  0.6009 -0.4381  0.2634
  158SAPE  H20R17655   3.793   6.499   8.243 -0.2638 -0.5142  0.4684
  158SAPE  H20S17656   3.901   6.367   8.185  1.2845  0.7342  1.3028
  158SAPE  H20T17657   3.778   6.328   8.312  0.5018 -1.9665 -0.7889
  158SAPE   C3317658   3.788   7.078   7.062 -0.0469 -0.4786 -0.5887
  158SAPE   H3X17659   3.772   7.187   7.051  2.0977  0.0942  1.1812
  158SAPE   H3Y17660   3.889   7.063   7.017  0.9309  0.7050  1.0779
  158SAPE   C3417661   3.792   7.056   7.215 -0.2427  0.1484  0.3658
  158SAPE   H4X17662   3.894   7.079   7.253 -0.8943 -0.2520  2.4834
  158SAPE   H4Y17663   3.772   6.949   7.238  1.1885  0.2288  2.1824
  158SAPE   C3517664   3.698   7.136   7.296  0.9393  0.3384 -0.4373
  158SAPE   H5X17665   3.594   7.114   7.262  0.1754  2.1865  0.6188
  158SAPE   H5Y17666   3.712   7.242   7.266  1.4027  0.6543  0.8583
  158SAPE   C3617667   3.709   7.117   7.438 -0.0657 -0.2725 -0.6645
  158SAPE   H6X17668   3.683   7.013   7.467  0.3510 -0.0790  0.4751
  158SAPE   H6Y17669   3.625   7.175   7.484  0.0800 -0.8064  0.3067
  158SAPE   C3717670   3.841   7.163   7.506  0.3139 -0.3081  0.4250
  158SAPE   H7X17671   3.924   7.092   7.484 -0.3382 -1.4383  1.4777
  158SAPE   H7Y17672   3.873   7.255   7.453 -1.4640 -1.0078 -2.0162
  158SAPE   C3817673   3.835   7.178   7.664 -0.1575  0.1210 -0.2788
  158SAPE   H8X17674   3.782   7.088   7.703  0.0669 -1.5016 -3.3827
  158SAPE   H8Y17675   3.770   7.265   7.687 -0.1043  0.5800 -1.7820
  158SAPE   C3917676   3.972   7.192   7.734  0.4298 -0.1612  0.4861
  158SAPE   H9X17677   3.992   7.301   7.727  0.3403 -0.0327  2.0433
  158SAPE   H9Y17678   4.055   7.138   7.683  0.5228 -1.3280  1.8069
  158SAPE  C31017679   3.983   7.166   7.887 -0.1391 -0.2010  0.2889
  158SAPE  H10X17680   3.930   7.073   7.915 -1.8038  0.9236  1.0957
  158SAPE  H10Y17681   3.931   7.241   7.951 -0.1745 -0.5210  0.6375
  158SAPE  C31117682   4.127   7.159   7.941  0.1019  0.2774 -0.2264
  158SAPE  H11X17683   4.182   7.252   7.917  0.6938  0.0829  0.3397
  158SAPE  H11Y17684   4.170   7.078   7.878 -0.0911 -0.2630  0.3211
  158SAPE  C31217685   4.139   7.122   8.089 -0.0693  0.1581  0.2501
  158SAPE  H12X17686   4.249   7.114   8.107 -0.1889  1.1694  1.5104
  158SAPE  H12Y17687   4.097   7.020   8.103 -1.3423  0.5284 -0.7321
  158SAPE  C31317688   4.091   7.226   8.198  0.1455  0.4604 -0.4189
  158SAPE  H13X17689   3.983   7.209   8.216  0.0579  2.0246  0.6912
  158SAPE  H13Y17690   4.106   7.331   8.165 -1.9769  1.4653  1.5772
  158SAPE  C31417691   4.149   7.202   8.338  0.1886  0.0258  1.0732
  158SAPE  H14X17692   4.257   7.230   8.337  0.0414  0.6098 -0.1173
  158SAPE  H14Y17693   4.126   7.097   8.368  1.2981  0.1247  2.4036
  158SAPE  C31517694   4.103   7.304   8.445  0.2253 -0.0495 -0.0699
  158SAPE  H15X17695   3.993   7.291   8.457  0.3929 -1.1874  0.3292
  158SAPE  H15Y17696   4.132   7.408   8.419  2.8742 -0.3809  1.2332
  158SAPE  C31617697   4.173   7.282   8.580 -0.3498  0.0896  0.2327
  158SAPE  H16X17698   4.281   7.303   8.561 -0.3416 -1.4677 -1.7293
  158SAPE  H16Y17699   4.163   7.176   8.610  1.1375 -0.7223 -1.8766
  158SAPE  C31717700   4.129   7.384   8.689  0.1022  0.1967 -0.9083
  158SAPE  H17X17701   4.185   7.368   8.783  1.6048  4.0727 -0.9490
  158SAPE  H17Y17702   4.026   7.351   8.714 -0.4783  2.2260 -0.5017
  158SAPE  C31817703   4.145   7.530   8.654  0.4196 -0.3132 -0.2934
  158SAPE  H18X17704   4.250   7.559   8.635  1.0939 -2.0669  0.5691
  158SAPE  H18Y17705   4.100   7.603   8.725  0.2312  0.5371 -1.2516
  158SAPE  H18Z17706   4.087   7.558   8.563  0.6095  1.6260  0.1373
  159SAPE     N17707   2.670   0.050   6.181 -0.0621  0.4685  0.4990
  159SAPE   HN117708   2.679  -0.050   6.206 -0.1424  0.3027 -0.1079
  159SAPE   HN217709   2.724   0.116   6.241  2.1248  1.9497 -2.7971
  159SAPE   HN317710   2.568   0.071   6.187 -0.3244 -1.0974  2.6128
  159SAPE   C1217711   2.728   0.078   6.048 -0.7055 -0.1803 -0.0739
  159SAPE  H12A17712   2.672   0.016   5.974  2.9002 -0.8893 -2.4659
  159SAPE  H12B17713   2.830   0.034   6.043 -0.4776  0.4728 -1.8495
  159SAPE   C1117714   2.732   0.233   6.009  0.4506  0.2539 -0.3048
  159SAPE  H11A17715   2.629   0.264   5.979  0.2741  1.0836  1.0498
  159SAPE  H11B17716   2.800   0.244   5.922  1.9486 -0.5294  0.7314
  159SAPE     P17717   2.914   0.359   6.128  0.1533  0.0026 -0.1315
  159SAPE   O1317718   2.987   0.243   6.089 -1.1768 -0.2183  0.2920
  159SAPE   O1417719   2.942   0.484   6.052  0.7673 -0.3730  0.1955
  159SAPE   O1217720   2.764   0.319   6.117  0.5116  0.4030  0.5763
  159SAPE   O1117721   2.928   0.379   6.276 -0.4345 -0.0728 -1.0006
  159SAPE    C117722   3.032   0.450   6.343 -0.2755 -0.3920  0.6382
  159SAPE    HA17723   3.123   0.386   6.349  0.1585 -0.1341 -2.0358
  159SAPE    HB17724   3.043   0.553   6.303 -0.0946  0.1590  2.0627
  159SAPE    C217725   2.985   0.479   6.490 -0.6568  0.4730  0.2101
  159SAPE    HS17726   3.058   0.554   6.529  1.6934 -0.3789 -2.2207
  159SAPE   O2117727   2.986   0.357   6.576  0.1767  0.3737 -0.7062
  159SAPE   C2117728   3.112   0.323   6.616  0.7722  0.1993 -0.0799
  159SAPE   O2217729   3.209   0.386   6.586 -0.1429 -0.7695 -0.6528
  159SAPE   C2217730   3.089   0.207   6.715 -0.0050 -0.5426  0.0716
  159SAPE   H2R17731   3.019   0.247   6.792 -0.4605  0.7426 -0.9842
  159SAPE   H2S17732   3.038   0.118   6.672 -0.3937 -0.6056  0.6389
  159SAPE    C317733   2.844   0.544   6.482  0.1072  0.0457  0.2262
  159SAPE    HX17734   2.783   0.481   6.414  1.0882  1.3472 -1.9727
  159SAPE    HY17735   2.860   0.645   6.439  1.9185  0.7466  2.3270
  159SAPE   O3117736   2.787   0.580   6.612  0.3253  0.3211 -0.3695
  159SAPE   C3117737   2.727   0.479   6.672  0.3699 -0.2825  0.6114
  159SAPE   O3217738   2.692   0.374   6.627  0.2719  0.4828  0.1939
  159SAPE   C3217739   2.715   0.512   6.817  0.0888 -0.2133 -0.0930
  159SAPE   H2X17740   2.614   0.475   6.846 -0.3163  0.3052 -0.7894
  159SAPE   H2Y17741   2.713   0.623   6.827 -1.1858 -0.2498  0.2841
  159SAPE   C2317742   3.227   0.160   6.762 -0.3134 -0.5686 -0.0414
  159SAPE   H3R17743   3.299   0.239   6.793  0.9482 -0.8802 -2.0193
  159SAPE   H3S17744   3.272   0.109   6.674  1.7657 -0.3008  0.8118
  159SAPE   C2417745   3.228   0.057   6.874 -0.0244 -0.2685 -0.1045
  159SAPE   H4R17746   3.335   0.045   6.903  0.4777  2.0904 -0.7425
  159SAPE   H4S17747   3.202  -0.039   6.826  1.2987 -1.3572  1.2574
  159SAPE   C2517748   3.138   0.081   6.987 -0.6323 -0.0902  0.4447
  159SAPE   H5R17749   3.041   0.032   6.971  0.6053 -3.1173  1.4148
  159SAPE   C2617750   3.151   0.144   7.102 -0.0431 -0.5273  0.1955
  159SAPE   H6R17751   3.069   0.150   7.175  0.0578  1.0260  0.2117
  159SAPE   C2717752   3.277   0.216   7.144  0.6641 -0.7265 -0.0249
  159SAPE   H7R17753   3.252   0.301   7.211  1.6089 -1.6169  1.5199
  159SAPE   H7S17754   3.336   0.257   7.059 -0.7165 -0.0952 -0.7215
  159SAPE   C2817755   3.358   0.134   7.248 -0.6074  0.2358  0.2226
  159SAPE   H8R17756   3.441   0.078   7.203 -1.3568 -0.7374  0.0025
  159SAPE   C2917757   3.345   0.117   7.386  0.3889 -0.0134  0.0990
  159SAPE   H9R17758   3.412   0.053   7.445 -0.9875 -1.3227  0.3005
  159SAPE  C21017759   3.239   0.179   7.480 -0.1081 -0.4527 -0.0512
  159SAPE  H10R17760   3.160   0.233   7.424 -0.1748 -0.3798  0.1100
  159SAPE  H10S17761   3.284   0.260   7.543  1.5462 -1.1437 -0.2914
  159SAPE  C21117762   3.178   0.070   7.559 -0.2350  0.9055  0.4508
  159SAPE  H11R17763   3.101   0.021   7.497  1.4401 -1.2450 -0.0159
  159SAPE  C21217764   3.198   0.024   7.687 -0.3338 -0.5313  0.0610
  159SAPE  H12R17765   3.136  -0.058   7.725  2.2272 -1.7589  1.8457
  159SAPE  C21317766   3.312   0.077   7.778 -0.6904 -0.3998  0.8750
  159SAPE  H13R17767   3.364   0.158   7.724 -2.8947  0.3938 -0.1581
  159SAPE  H13S17768   3.385  -0.002   7.804  2.1756  0.9912 -2.2251
  159SAPE  C21417769   3.273   0.119   7.919  0.4151  0.1148  0.6649
  159SAPE  H14R17770   3.181   0.071   7.955  0.1726 -1.3003 -1.6156
  159SAPE  C21517771   3.343   0.198   8.011  0.7033 -0.6935  0.6859
  159SAPE  H15R17772   3.290   0.224   8.104 -1.3869 -1.8611 -0.1239
  159SAPE  C21617773   3.483   0.257   7.983 -1.4179 -0.1741 -0.1776
  159SAPE  H16R17774   3.477   0.368   7.982 -2.1937 -0.2009  0.4569
  159SAPE  H16S17775   3.534   0.228   7.889  1.6910  2.2183  0.5832
  159SAPE  C21717776   3.580   0.241   8.106  0.4909  0.1869  0.1763
  159SAPE  H17R17777   3.532   0.286   8.196  0.1492 -0.0858  0.1322
  159SAPE  H17S17778   3.666   0.307   8.081  0.7798 -0.7177 -1.3361
  159SAPE  C21817779   3.645   0.103   8.126  0.4243 -0.7867  0.0045
  159SAPE  H18R17780   3.679   0.066   8.026 -1.3894  0.7438 -1.2518
  159SAPE  H18S17781   3.566   0.040   8.172  0.0256  1.0285  1.9273
  159SAPE  C21917782   3.777   0.099   8.210 -0.3181 -0.7608  0.3946
  159SAPE  H19R17783   3.854   0.145   8.145  0.2928 -0.3337  1.4002
  159SAPE  H19S17784   3.805  -0.007   8.229  1.8485 -0.4792 -0.9363
  159SAPE  C22017785   3.772   0.176   8.345  0.2168  0.2380 -0.2599
  159SAPE  H20R17786   3.690   0.124   8.398  2.1550 -2.0914  0.6229
  159SAPE  H20S17787   3.733   0.279   8.331 -2.1146 -0.3004  1.5170
  159SAPE  H20T17788   3.864   0.175   8.407 -1.8245 -1.3267  3.0356
  159SAPE   C3317789   2.810   0.446   6.915 -0.6666 -0.0486  0.3690
  159SAPE   H3X17790   2.914   0.481   6.897 -0.1899 -1.1136  0.9448
  159SAPE   H3Y17791   2.785   0.338   6.903 -2.2144  0.3007  0.2172
  159SAPE   C3417792   2.775   0.492   7.053  0.3682 -0.1228  0.0325
  159SAPE   H4X17793   2.682   0.447   7.095  0.5914  0.6156  1.3744
  159SAPE   H4Y17794   2.749   0.600   7.049 -2.6497 -0.6822  1.6895
  159SAPE   C3517795   2.890   0.449   7.152  0.0735  0.4305  0.3929
  159SAPE   H5X17796   2.987   0.496   7.126 -0.7915  1.2088 -1.6588
  159SAPE   H5Y17797   2.911   0.340   7.144 -1.0419  0.1405  1.0376
  159SAPE   C3617798   2.854   0.479   7.299 -0.4430  1.2209  0.2368
  159SAPE   H6X17799   2.753   0.435   7.319  0.5949 -2.0896 -1.0561
  159SAPE   H6Y17800   2.855   0.590   7.300  1.6962  1.2379  1.5153
  159SAPE   C3717801   2.967   0.433   7.392  0.0683  0.2761 -0.8076
  159SAPE   H7X17802   3.059   0.462   7.338  0.7162  1.3431  0.8021
  159SAPE   H7Y17803   2.968   0.322   7.394 -2.5397  0.1965 -0.4707
  159SAPE   C3817804   2.953   0.495   7.530  0.1853  0.5473 -0.1553
  159SAPE   H8X17805   2.856   0.458   7.571  0.8953 -1.1807  0.0535
  159SAPE   H8Y17806   2.943   0.605   7.530  1.8358  0.7139 -0.3604
  159SAPE   C3917807   3.060   0.432   7.620  0.1978 -0.1870 -0.3001
  159SAPE   H9X17808   3.158   0.474   7.589 -0.2165  1.0108 -0.0628
  159SAPE   H9Y17809   3.066   0.325   7.593 -2.2124  0.6598 -5.3473
  159SAPE  C31017810   3.038   0.442   7.778  0.3149  0.3740  0.4140
  159SAPE  H10X17811   3.125   0.389   7.823 -0.4098  0.0592  1.5019
  159SAPE  H10Y17812   2.943   0.395   7.810  0.5202  0.7090  1.5832
  159SAPE  C31117813   3.029   0.583   7.833  0.5394 -1.0403 -0.5625
  159SAPE  H11X17814   2.919   0.599   7.831  0.3062 -2.3088  0.7423
  159SAPE  H11Y17815   3.089   0.650   7.768 -0.1049 -1.2319 -1.3606
  159SAPE  C31217816   3.085   0.595   7.978  0.3375 -0.0269  0.4553
  159SAPE  H12X17817   3.076   0.694   8.026  0.8122 -0.7879  2.1971
  159SAPE  H12Y17818   3.192   0.591   7.948 -0.7143 -0.9779 -3.8569
  159SAPE  C31317819   3.037   0.498   8.087 -0.7594  0.0563  0.4502
  159SAPE  H13X17820   3.087   0.399   8.072 -1.7609 -0.4078  0.0264
  159SAPE  H13Y17821   2.930   0.481   8.064 -0.2648 -0.8335 -1.4028
  159SAPE  C31417822   3.066   0.536   8.236 -0.5994 -0.1494 -1.0553
  159SAPE  H14X17823   3.003   0.478   8.306  0.4583  1.1368  1.0385
  159SAPE  H14Y17824   3.027   0.639   8.244 -0.1026 -0.0044 -0.4524
  159SAPE  C31517825   3.216   0.523   8.275  0.1502  0.2907 -0.1304
  159SAPE  H15X17826   3.296   0.590   8.234  1.5659 -1.2178  0.0479
  159SAPE  H15Y17827   3.258   0.428   8.235 -0.3545 -0.6021  1.3715
  159SAPE  C31617828   3.240   0.516   8.426  1.4527  0.0841  0.3168
  159SAPE  H16X17829   3.171   0.440   8.468  0.6835  1.0938  0.9279
  159SAPE  H16Y17830   3.206   0.608   8.477 -2.1383 -1.2779  0.6395
  159SAPE  C31717831   3.383   0.484   8.470  0.4618 -0.3749  0.2705
  159SAPE  H17X17832   3.385   0.532   8.570 -1.7207 -0.5144  0.4451
  159SAPE  H17Y17833   3.448   0.550   8.410 -1.3642  1.5512  0.2643
  159SAPE  C31817834   3.410   0.336   8.466 -0.0023  0.8827  0.2617
  159SAPE  H18X17835   3.422   0.300   8.361 -2.6083  0.0027  0.1903
  159SAPE  H18Y17836   3.326   0.282   8.516  0.5089  0.6546  0.8959
  159SAPE  H18Z17837   3.503   0.320   8.524 -0.5419  0.0370  0.9264
  160SAPE     N17838   2.051   6.652   6.669 -0.3846  0.5393 -0.2343
  160SAPE   HN117839   1.984   6.572   6.664  0.1810 -0.2163  2.3359
  160SAPE   HN217840   2.132   6.598   6.708 -1.5384  0.0782  1.6634
  160SAPE   HN317841   2.018   6.721   6.740 -0.1628  1.0631 -0.6381
  160SAPE   C1217842   2.089   6.702   6.534 -0.0073 -0.3499 -0.6312
  160SAPE  H12A17843   2.127   6.620   6.470  1.7221 -1.4794  1.6701
  160SAPE  H12B17844   2.181   6.763   6.544 -1.6395  1.8917  2.2109
  160SAPE   C1117845   1.977   6.778   6.482  0.2477 -0.1839 -0.4242
  160SAPE  H11A17846   2.008   6.794   6.377  0.0447  0.0926 -0.4440
  160SAPE  H11B17847   1.960   6.878   6.528 -1.4278  0.4766 -2.3151
  160SAPE     P17848   1.721   6.741   6.417  0.1555 -0.2673  0.6096
  160SAPE   O1317849   1.738   6.779   6.275 -0.1718  0.2779  0.4975
  160SAPE   O1417850   1.622   6.640   6.450 -0.2878  0.0916 -0.7692
  160SAPE   O1217851   1.859   6.696   6.475 -0.2656 -0.0265  0.6903
  160SAPE   O1117852   1.690   6.872   6.495  0.1720 -0.5020  0.8207
  160SAPE    C117853   1.641   6.876   6.627 -0.9018  0.0110 -0.2552
  160SAPE    HA17854   1.544   6.931   6.636 -0.9338  0.3111 -2.0800
  160SAPE    HB17855   1.616   6.777   6.670  0.7954 -0.2176  0.2666
  160SAPE    C217856   1.750   6.931   6.717  0.4657 -1.0883 -0.7655
  160SAPE    HS17857   1.847   6.881   6.697  0.1600 -2.0808  0.1715
  160SAPE   O2117858   1.714   6.911   6.858 -0.0553 -0.1859 -0.4880
  160SAPE   C2117859   1.760   6.796   6.911 -0.1428 -0.5000  0.1142
  160SAPE   O2217860   1.844   6.727   6.853 -0.0507  0.8168 -0.7495
  160SAPE   C2217861   1.708   6.777   7.054 -0.0727 -0.1766 -0.2021
  160SAPE   H2R17862   1.602   6.747   7.043 -1.2192  2.0683  3.1311
  160SAPE   H2S17863   1.750   6.681   7.091  1.3661  0.3746 -0.3561
  160SAPE    C317864   1.754   7.088   6.690  0.1492 -0.5025 -0.5368
  160SAPE    HX17865   1.652   7.131   6.700  1.3414  2.5447 -0.5048
  160SAPE    HY17866   1.775   7.114   6.584 -0.3043  0.8784 -0.3091
  160SAPE   O3117867   1.855   7.162   6.767  0.3037 -0.0963 -0.2670
  160SAPE   C3117868   1.796   7.268   6.825  0.0960 -0.5220  0.3073
  160SAPE   O3217869   1.701   7.332   6.776 -0.1410 -0.1655 -0.1472
  160SAPE   C3217870   1.865   7.312   6.949 -0.4291 -0.1944  0.3580
  160SAPE   H2X17871   1.934   7.390   6.911 -1.6363  0.2067 -1.0969
  160SAPE   H2Y17872   1.932   7.229   6.980  0.8591  0.4982 -0.5158
  160SAPE   C2317873   1.699   6.900   7.154  0.2490  0.2006 -0.3449
  160SAPE   H3R17874   1.645   6.984   7.105  0.2752 -0.9718 -2.5420
  160SAPE   H3S17875   1.804   6.931   7.173  0.0352 -0.7506  2.8652
  160SAPE   C2417876   1.626   6.866   7.287  0.6223 -0.0849  0.1791
  160SAPE   H4R17877   1.522   6.849   7.252  1.1983  0.5969 -2.0239
  160SAPE   H4S17878   1.629   6.955   7.352  0.0852 -1.2694  1.9050
  160SAPE   C2517879   1.675   6.738   7.347 -0.6553  1.3825  0.2277
  160SAPE   H5R17880   1.691   6.656   7.274  2.8151 -0.0816  2.4046
  160SAPE   C2617881   1.703   6.712   7.473  0.3630  0.0224 -0.1622
  160SAPE   H6R17882   1.740   6.611   7.496 -0.2490 -0.0281  0.6540
  160SAPE   C2717883   1.694   6.796   7.598  0.8389 -0.2148  0.0624
  160SAPE   H7R17884   1.646   6.739   7.680 -0.0748 -1.1724 -1.1073
  160SAPE   H7S17885   1.629   6.886   7.588 -0.4593 -1.2665 -1.4541
  160SAPE   C2817886   1.832   6.837   7.645 -0.3952 -0.3303  0.3074
  160SAPE   H8R17887   1.894   6.901   7.581  3.1975 -1.8945  1.9354
  160SAPE   C2917888   1.892   6.822   7.765 -0.9956 -0.0716  0.1402
  160SAPE   H9R17889   1.994   6.861   7.776 -1.4726  0.5920  3.2718
  160SAPE  C21017890   1.847   6.763   7.892  0.6098  0.1568 -0.1577
  160SAPE  H10R17891   1.924   6.689   7.921  0.8405 -0.3990 -2.0550
  160SAPE  H10S17892   1.746   6.716   7.885  0.3627  0.7187 -0.4810
  160SAPE  C21117893   1.842   6.870   7.996 -0.3650 -0.1452  0.1366
  160SAPE  H11R17894   1.824   6.974   7.966 -1.3145 -0.6701 -1.2150
  160SAPE  C21217895   1.859   6.854   8.129  0.4930  0.3410 -0.3636
  160SAPE  H12R17896   1.835   6.941   8.192  0.5788 -0.1166  0.3114
  160SAPE  C21317897   1.883   6.720   8.197 -0.4794  0.1452  0.1935
  160SAPE  H13R17898   1.989   6.722   8.229  0.3094  1.8048 -2.2425
  160SAPE  H13S17899   1.886   6.636   8.124  0.5118 -1.2831  1.8094
  160SAPE  C21417900   1.786   6.691   8.312  0.1296 -0.0028 -0.5334
  160SAPE  H14R17901   1.682   6.680   8.279 -0.1949 -1.3357  0.8365
  160SAPE  C21517902   1.822   6.682   8.446  0.1270 -0.3460 -0.1389
  160SAPE  H15R17903   1.739   6.662   8.515  1.5735 -0.3269  1.6949
  160SAPE  C21617904   1.956   6.678   8.504 -0.6967  0.0205 -0.5528
  160SAPE  H16R17905   1.977   6.761   8.575 -0.0718 -1.3238  0.8776
  160SAPE  H16S17906   2.033   6.683   8.424 -1.1671  0.8832 -0.9732
  160SAPE  C21717907   1.972   6.544   8.578  0.2325  0.3176  0.6647
  160SAPE  H17R17908   1.924   6.466   8.515 -1.5414  2.9109 -1.3952
  160SAPE  H17S17909   1.918   6.546   8.675 -1.9764  0.8339 -0.5191
  160SAPE  C21817910   2.123   6.505   8.598 -0.0477  0.2540 -0.3426
  160SAPE  H18R17911   2.185   6.595   8.619 -0.1294  0.3174 -0.3757
  160SAPE  H18S17912   2.159   6.468   8.499  0.5822  2.4111 -0.9671
  160SAPE  C21917913   2.159   6.402   8.704  0.2034 -0.8114  0.0309
  160SAPE  H19R17914   2.264   6.373   8.681 -0.7151 -3.5557 -1.0555
  160SAPE  H19S17915   2.099   6.310   8.688 -0.6962 -0.2167 -0.0868
  160SAPE  C22017916   2.141   6.442   8.853 -0.4515  0.1987  0.6051
  160SAPE  H20R17917   2.199   6.531   8.885  0.8168  0.5358 -2.2511
  160SAPE  H20S17918   2.168   6.353   8.914  2.7577 -0.0610 -0.9281
  160SAPE  H20T17919   2.033   6.457   8.871 -0.6267 -2.2198  2.0781
  160SAPE   C3317920   1.768   7.355   7.067 -0.7204  0.6038  0.9649
  160SAPE   H3X17921   1.713   7.261   7.091  0.8385 -0.3641  0.8382
  160SAPE   H3Y17922   1.700   7.435   7.028  0.0474  1.7738  1.9487
  160SAPE   C3417923   1.839   7.395   7.197  0.6178  0.1639 -0.5336
  160SAPE   H4X17924   1.774   7.454   7.265 -0.9380 -0.6584 -1.2718
  160SAPE   H4Y17925   1.929   7.454   7.170  0.7234  0.2990  0.0983
  160SAPE   C3517926   1.894   7.277   7.274  0.0542  0.8240 -0.1514
  160SAPE   H5X17927   1.969   7.210   7.227 -1.1886 -1.8247  1.3776
  160SAPE   H5Y17928   1.807   7.209   7.289  0.0369  1.0833  1.0142
  160SAPE   C3617929   1.946   7.311   7.419 -0.2333  0.7018  0.4819
  160SAPE   H6X17930   1.955   7.422   7.421 -0.8921  0.7862 -0.4924
  160SAPE   H6Y17931   2.050   7.274   7.433  0.3656  0.4150 -3.3707
  160SAPE   C3717932   1.859   7.266   7.539  0.0517  0.4334 -0.1414
  160SAPE   H7X17933   1.842   7.156   7.533 -1.7435  0.6394  0.4278
  160SAPE   H7Y17934   1.760   7.317   7.532  0.8046  2.3856  2.0771
  160SAPE   C3817935   1.916   7.305   7.676 -0.1261 -0.9179  0.0334
  160SAPE   H8X17936   1.836   7.278   7.749 -0.9364  1.8061  0.2731
  160SAPE   H8Y17937   1.916   7.415   7.683 -0.0241 -0.9003 -0.2284
  160SAPE   C3917938   2.045   7.237   7.712 -0.1349  0.3072 -0.6685
  160SAPE   H9X17939   2.121   7.267   7.637  0.0994 -0.7374 -0.8595
  160SAPE   H9Y17940   2.035   7.128   7.699 -2.2948  0.2546  0.7713
  160SAPE  C31017941   2.104   7.271   7.849  1.6139  0.0787  0.5168
  160SAPE  H10X17942   2.090   7.381   7.857  0.1158 -0.1499  1.4210
  160SAPE  H10Y17943   2.213   7.251   7.836  1.5571  1.0340 -2.0151
  160SAPE  C31117944   2.037   7.204   7.973 -0.2322 -0.4021  0.3717
  160SAPE  H11X17945   2.049   7.095   7.953  1.1620 -0.1308 -0.3723
  160SAPE  H11Y17946   1.926   7.208   7.974 -0.3382  0.7046 -3.0861
  160SAPE  C31217947   2.102   7.239   8.108  0.4312 -0.1022  0.9941
  160SAPE  H12X17948   2.086   7.344   8.139  0.3408 -0.1646  1.1588
  160SAPE  H12Y17949   2.208   7.205   8.108  0.2365 -0.9904 -1.6821
  160SAPE  C31317950   2.016   7.165   8.214 -0.0541  0.3656  0.2136
  160SAPE  H13X17951   2.028   7.061   8.177 -0.0084 -0.0382  1.3405
  160SAPE  H13Y17952   1.909   7.191   8.222 -0.5468 -1.8303  1.4752
  160SAPE  C31417953   2.063   7.176   8.353 -0.7846 -0.2046  0.0634
  160SAPE  H14X17954   2.040   7.277   8.394 -1.1950  0.0896 -0.8703
  160SAPE  H14Y17955   2.174   7.180   8.343 -0.6540  1.1860  1.4559
  160SAPE  C31517956   2.007   7.065   8.442 -0.1975  0.0346 -0.5396
  160SAPE  H15X17957   2.036   6.966   8.401  0.5856 -0.8967  2.0774
  160SAPE  H15Y17958   1.897   7.083   8.447 -0.1353  0.3921  3.7518
  160SAPE  C31617959   2.063   7.060   8.585  0.5002 -0.0557  0.1453
  160SAPE  H16X17960   2.172   7.057   8.567  0.6150  1.3144  0.4717
  160SAPE  H16Y17961   2.030   6.966   8.635 -1.8320 -1.0825 -3.0065
  160SAPE  C31717962   2.009   7.181   8.673  0.2786  0.3833 -0.0027
  160SAPE  H17X17963   1.900   7.171   8.695  0.4032  1.0411  0.9760
  160SAPE  H17Y17964   2.026   7.275   8.617  1.0899  1.1062  1.4184
  160SAPE  C31817965   2.077   7.187   8.803 -0.0994  0.1279  0.2335
  160SAPE  H18X17966   2.045   7.108   8.873 -0.0767  0.7877  1.0018
  160SAPE  H18Y17967   2.046   7.279   8.857  2.2588  0.3812  1.3034
  160SAPE  H18Z17968   2.188   7.188   8.790  0.0605 -0.1918  1.4969
  161SOPE     N17969   3.812   4.010  10.656 -0.5219  0.6192 -0.5087
  161SOPE   HN117970   3.797   3.918  10.702  0.3128 -0.1299 -1.6805
  161SOPE   HN217971   3.808   4.080  10.732 -3.0641  0.7226 -0.6454
  161SOPE   HN317972   3.724   4.009  10.601 -1.3162 -0.0972  0.7237
  161SOPE   C1217973   3.927   4.006  10.556  0.8445  0.1718  0.1664
  161SOPE  H12A17974   3.967   4.109  10.541 -0.3982  0.2757 -3.5687
  161SOPE  H12B17975   3.879   3.965  10.464 -3.7156  0.7869  2.0281
  161SOPE   C1117976   4.035   3.904  10.602  0.0223  0.3927 -0.3324
  161SOPE  H11A17977   4.098   3.880  10.515  1.3872 -1.9537  1.1847
  161SOPE  H11B17978   3.976   3.814  10.632 -2.2232  1.1500 -2.1988
  161SOPE     P17979   4.248   3.895  10.743  0.4249 -0.1642  0.1759
  161SOPE   O1317980   4.244   3.748  10.737  0.2737  0.3188  0.0469
  161SOPE   O1417981   4.311   3.950  10.865  0.4299 -0.3831  0.1874
  161SOPE   O1217982   4.113   3.957  10.708 -0.4988 -0.0896 -0.1292
  161SOPE   O1117983   4.345   3.940  10.620  0.1256 -0.2607 -1.0530
  161SOPE    C117984   4.383   4.081  10.612  0.4289 -0.0345  0.1051
  161SOPE    HA17985   4.490   4.084  10.644  0.1353 -0.8460  1.2167
  161SOPE    HB17986   4.331   4.148  10.684  0.7979  0.2519  0.1084
  161SOPE    C217987   4.377   4.133  10.460  0.5170  1.1649 -0.2926
  161SOPE    HS17988   4.275   4.174  10.446  0.1823  0.4879  0.1133
  161SOPE   O2117989   4.422   4.032  10.367 -0.0819  0.9290  0.1467
  161SOPE   C2117990   4.370   4.042  10.250  0.7432 -0.1626  0.1197
  161SOPE   O2217991   4.272   4.120  10.224  0.2508  0.5370 -0.5954
  161SOPE   C2217992   4.425   3.947  10.144 -0.6122  0.6136  0.3665
  161SOPE   H2R17993   4.362   3.857  10.127 -2.6927  2.1372 -0.4928
  161SOPE   H2S17994   4.524   3.913  10.181 -1.5790 -3.1188 -0.0483
  161SOPE    C317995   4.485   4.245  10.452  0.2014  0.3710 -0.4714
  161SOPE    HX17996   4.584   4.196  10.469  0.7600  1.4335 -0.5729
  161SOPE    HY17997   4.471   4.314  10.538  0.4521 -0.8445  0.5940
  161SOPE   O3117998   4.508   4.313  10.332  0.1297 -0.2392  0.1856
  161SOPE   C3117999   4.412   4.403  10.297 -0.2519 -0.1508 -0.6753
  161SOPE   O3218000   4.328   4.449  10.374  0.1956  0.4888  0.4314
  161SOPE   C3218001   4.424   4.431  10.149 -0.3284  0.2519  0.1442
  161SOPE   H2X18002   4.429   4.327  10.109  0.4057 -0.5327  2.1586
  161SOPE   H2Y18003   4.514   4.493  10.132 -1.8959  1.9997 -2.5158
  161SOPE   C2318004   4.436   4.014  10.007  0.1210 -0.4056 -0.3892
  161SOPE   H3R18005   4.468   4.119  10.017 -0.2688 -0.2542 -0.7296
  161SOPE   H3S18006   4.335   4.015   9.962 -1.4495  1.0606  2.8430
  161SOPE   C2418007   4.525   3.944   9.902  0.2687 -0.1458  0.5730
  161SOPE   H4R18008   4.627   3.928   9.943  0.4876  2.1697  1.0998
  161SOPE   H4S18009   4.490   3.841   9.878 -2.8829  1.3552 -2.0118
  161SOPE   C2518010   4.518   4.022   9.773 -0.8539  0.7851  0.3525
  161SOPE   H5R18011   4.411   4.014   9.744 -0.3189 -2.6441 -1.0907
  161SOPE   H5S18012   4.554   4.127   9.782 -0.9765  0.6916  2.3123
  161SOPE   C2618013   4.601   3.958   9.667 -0.1091 -0.1170  0.5119
  161SOPE   H6R18014   4.706   3.981   9.696 -0.9149  1.9595  1.9850
  161SOPE   H6S18015   4.599   3.848   9.679 -1.6678 -0.2081 -0.3438
  161SOPE   C2718016   4.562   3.992   9.521 -0.1640  0.0088 -0.0838
  161SOPE   H7R18017   4.459   3.953   9.507  0.8631 -3.6157  1.1917
  161SOPE   H7S18018   4.564   4.102   9.513 -1.1154  0.1371  1.1648
  161SOPE   C2818019   4.665   3.935   9.421  0.8938  0.1488  0.6187
  161SOPE   H8R18020   4.652   3.825   9.420 -0.4919  0.2630 -2.1133
  161SOPE   H8S18021   4.641   3.951   9.314  1.2326 -1.6282  0.2484
  161SOPE   C2918022   4.816   3.966   9.439 -0.5667  0.3002  0.0254
  161SOPE   H9118023   4.865   3.899   9.511 -1.6856  0.4586  0.9553
  161SOPE  C21018024   4.889   4.065   9.386 -0.2951 -0.1335 -0.0453
  161SOPE  H10118025   4.995   4.077   9.411 -0.3319 -0.4978  0.3078
  161SOPE  C21118026   4.828   4.171   9.293 -0.4147  0.1325 -0.0544
  161SOPE  H11R18027   4.849   4.273   9.332  0.5534 -0.0839  0.0093
  161SOPE  H11S18028   4.717   4.172   9.301 -0.4815  4.2949  1.1777
  161SOPE  C21218029   4.890   4.172   9.149  0.0649 -0.3625 -0.3158
  161SOPE  H12R18030   4.999   4.153   9.137  0.0722 -0.7754  0.3194
  161SOPE  H12S18031   4.874   4.274   9.107 -0.3533 -0.3477 -0.1276
  161SOPE  C21318032   4.820   4.077   9.051  0.1790 -0.4178  0.0812
  161SOPE  H13R18033   4.710   4.085   9.058  0.0737 -0.3106 -1.3905
  161SOPE  H13S18034   4.848   3.975   9.085 -0.1990 -0.1109  1.3249
  161SOPE  C21418035   4.870   4.099   8.910  0.6038  0.3239 -0.1306
  161SOPE  H14R18036   4.814   4.022   8.853 -0.8148  0.4513  1.0234
  161SOPE  H14S18037   4.978   4.075   8.915  0.5924  0.4486  0.9121
  161SOPE  C21518038   4.838   4.232   8.841  0.4542 -0.4053 -0.2720
  161SOPE  H15R18039   4.888   4.310   8.902  0.7474 -0.3246 -0.6129
  161SOPE  H15S18040   4.727   4.230   8.834  0.3062 -0.0384  1.5748
  161SOPE  C21618041   4.894   4.231   8.700  0.5031 -0.2067 -0.2632
  161SOPE  H16R18042   4.842   4.146   8.651 -1.5314  1.7342 -1.6572
  161SOPE  H16S18043   5.001   4.201   8.690  0.4644 -0.5457  0.3131
  161SOPE  C21718044   4.857   4.350   8.609  0.0842 -0.2794 -0.0824
  161SOPE  H17R18045   4.908   4.438   8.654  0.5753 -1.6535  2.2100
  161SOPE  H17S18046   4.749   4.375   8.609  0.2840  0.6122  0.3438
  161SOPE  C21818047   4.918   4.347   8.470 -0.1435  1.1360 -0.6032
  161SOPE  H18R18048   5.027   4.366   8.483 -0.1748 -0.2142  2.9556
  161SOPE  H18S18049   4.879   4.431   8.410 -0.8945  1.3302  0.1401
  161SOPE  H18T18050   4.882   4.256   8.417  0.0497  1.2363 -0.9028
  161SOPE   C3318051   4.303   4.505  10.088 -0.2296 -0.3232  0.1749
  161SOPE   H3X18052   4.282   4.597  10.147 -3.1372 -1.2419  0.7508
  161SOPE   H3Y18053   4.222   4.429  10.089  1.3419 -2.0779  0.2786
  161SOPE   C3418054   4.319   4.538   9.937  0.4382 -0.0863  0.0586
  161SOPE   H4X18055   4.416   4.588   9.915  0.9749 -1.2947 -0.4701
  161SOPE   H4Y18056   4.236   4.607   9.914  0.2344 -0.6587 -0.9889
  161SOPE   C3518057   4.319   4.412   9.847 -0.8479 -0.0544 -0.0523
  161SOPE   H5X18058   4.220   4.362   9.863 -2.1831  2.4539  0.0415
  161SOPE   H5Y18059   4.403   4.348   9.881 -0.4729  0.7773  0.6105
  161SOPE   C3618060   4.320   4.451   9.699 -0.9569 -0.6142  0.1394
  161SOPE   H6X18061   4.261   4.544   9.690  1.1087  0.9056  1.2974
  161SOPE   H6Y18062   4.273   4.369   9.640 -0.5992 -1.0421  0.4443
  161SOPE   C3718063   4.461   4.476   9.631 -0.1683 -0.1027 -0.0908
  161SOPE   H7X18064   4.511   4.377   9.631 -0.3131 -0.1781 -0.6843
  161SOPE   H7Y18065   4.528   4.533   9.699  0.3439 -0.1122 -0.5751
  161SOPE   C3818066   4.464   4.527   9.488  0.0563  0.5375  0.0038
  161SOPE   H8X18067   4.565   4.550   9.448  1.5215  1.3131  3.7529
  161SOPE   H8Y18068   4.405   4.621   9.492  0.5384  0.8781 -0.6696
  161SOPE   C3918069   4.404   4.437   9.382  0.0917  0.1253 -0.3808
  161SOPE   H9X18070   4.302   4.407   9.414  0.5641 -1.2449 -0.1008
  161SOPE   H9Y18071   4.472   4.349   9.380  0.8145  0.6819 -0.6745
  161SOPE  C31018072   4.407   4.495   9.241  0.1672  0.0821 -0.3369
  161SOPE  H10X18073   4.346   4.588   9.243  1.4646  0.9615  0.8301
  161SOPE  H10Y18074   4.360   4.418   9.176 -1.9268 -0.5213  1.7517
  161SOPE  C31118075   4.548   4.520   9.184  0.8772 -0.1424  0.1269
  161SOPE  H11X18076   4.606   4.427   9.167  0.4504 -0.6870  1.5282
  161SOPE  H11Y18077   4.612   4.574   9.258  0.8896  0.7824 -0.5338
  161SOPE  C31218078   4.540   4.585   9.042 -0.0540  0.9073 -0.0845
  161SOPE  H12X18079   4.638   4.637   9.035  0.4055  0.1029  0.1393
  161SOPE  H12Y18080   4.451   4.650   9.042  1.0875  2.5895  1.9212
  161SOPE  C31318081   4.529   4.474   8.934 -0.6377  0.0258 -0.9034
  161SOPE  H13X18082   4.431   4.423   8.947 -0.8493  0.9129  1.5258
  161SOPE  H13Y18083   4.606   4.394   8.937  0.4034  0.9687 -1.4710
  161SOPE  C31418084   4.525   4.534   8.794 -0.0699 -0.4260 -0.1758
  161SOPE  H14X18085   4.426   4.584   8.791 -0.5100 -1.2489  0.0622
  161SOPE  H14Y18086   4.510   4.451   8.720  0.3834 -0.9108  0.2638
  161SOPE  C31518087   4.642   4.621   8.747 -0.6094  0.1972 -0.5177
  161SOPE  H15X18088   4.738   4.582   8.786 -0.8603  0.1809  0.0961
  161SOPE  H15Y18089   4.643   4.724   8.788  4.5090 -0.4649  1.8147
  161SOPE  C31618090   4.649   4.634   8.595 -0.0790 -0.2293 -0.0197
  161SOPE  H16X18091   4.550   4.625   8.546  0.5098 -0.2715 -1.2391
  161SOPE  H16Y18092   4.724   4.556   8.570  1.4533  0.9140  0.8230
  161SOPE  C31718093   4.708   4.768   8.540 -0.4080  0.0476  0.4609
  161SOPE  H17X18094   4.816   4.768   8.565  0.1299  1.4534 -1.5892
  161SOPE  H17Y18095   4.664   4.857   8.590  1.8539  0.3503  2.0473
  161SOPE  C31818096   4.700   4.776   8.383  0.4930  0.2554  1.0261
  161SOPE  H18X18097   4.743   4.685   8.337 -0.9650 -0.2141  0.5340
  161SOPE  H18Y18098   4.760   4.865   8.352  2.1441 -1.9992 -2.9440
  161SOPE  H18Z18099   4.592   4.784   8.358  0.7084 -0.3953 -0.1627
  162SOPE     N18100   3.928   3.656  11.149 -0.4260  0.6149 -0.3784
  162SOPE   HN118101   3.829   3.632  11.172 -1.3089  3.3674 -0.9843
  162SOPE   HN218102   3.978   3.565  11.149  1.2100  1.4660 -1.2042
  162SOPE   HN318103   3.960   3.704  11.235  0.9079  0.3661 -0.7157
  162SOPE   C1218104   3.960   3.726  11.019 -0.2971  0.9700 -0.0847
  162SOPE  H12A18105   4.063   3.761  11.039  1.3361 -3.0610 -0.4829
  162SOPE  H12B18106   3.888   3.810  11.011 -2.0024 -0.3068  1.0248
  162SOPE   C1118107   3.950   3.634  10.894  0.0529 -0.3025  0.0880
  162SOPE  H11A18108   4.026   3.557  10.918  0.4656  0.2726  0.6581
  162SOPE  H11B18109   3.978   3.692  10.803 -1.2731  0.1217 -0.0798
  162SOPE     P18110   3.692   3.646  10.827  0.0750  0.0611 -0.6565
  162SOPE   O1318111   3.726   3.787  10.779  0.6849  0.5150 -0.0077
  162SOPE   O1418112   3.581   3.638  10.929 -0.2333  0.0640 -0.2981
  162SOPE   O1218113   3.817   3.572  10.883 -0.1213  0.6393 -0.0422
  162SOPE   O1118114   3.654   3.560  10.710  0.2589  0.2491 -0.2007
  162SOPE    C118115   3.741   3.462  10.644  0.2968  0.2728  0.2698
  162SOPE    HA18116   3.680   3.374  10.615 -1.7341  1.0671  1.8850
  162SOPE    HB18117   3.822   3.423  10.709 -0.5027  0.8755  1.6848
  162SOPE    C218118   3.809   3.525  10.515  0.8487  0.2432  0.4360
  162SOPE    HS18119   3.880   3.603  10.550  0.5192 -0.1661  2.1021
  162SOPE   O2118120   3.702   3.589  10.433  0.1246  0.4531 -0.1068
  162SOPE   C2118121   3.729   3.697  10.362  1.1937  0.1189 -0.0811
  162SOPE   O2218122   3.840   3.747  10.354 -0.4435 -0.0056 -0.1722
  162SOPE   C2218123   3.606   3.743  10.281 -0.5879  0.0536 -0.1554
  162SOPE   H2R18124   3.629   3.835  10.222 -0.9228 -0.6543 -1.4420
  162SOPE   H2S18125   3.518   3.764  10.346  0.2161 -1.1951  1.3845
  162SOPE    C318126   3.883   3.414  10.427  0.5111  0.7131  0.0021
  162SOPE    HX18127   3.814   3.326  10.424  0.3216  0.8863 -0.9043
  162SOPE    HY18128   3.965   3.392  10.499 -1.6691 -0.5262  2.2857
  162SOPE   O3118129   3.916   3.465  10.298  0.3461 -0.3559 -0.3678
  162SOPE   C3118130   4.002   3.383  10.227 -0.0929  0.0289 -0.4781
  162SOPE   O3218131   4.053   3.291  10.280  0.0001  0.3214 -0.4044
  162SOPE   C3218132   4.019   3.438  10.086 -0.2547 -0.5145 -0.1934
  162SOPE   H2X18133   4.051   3.543  10.102  0.9122 -1.1483  2.0166
  162SOPE   H2Y18134   3.920   3.442  10.036 -0.1260 -1.3509 -0.5262
  162SOPE   C2318135   3.558   3.634  10.183 -0.2132  0.1277  0.3481
  162SOPE   H3R18136   3.454   3.660  10.150 -0.3552 -1.9246 -1.0270
  162SOPE   H3S18137   3.561   3.534  10.232  0.9950  0.4276  0.9116
  162SOPE   C2418138   3.660   3.642  10.064  0.9655 -0.1970 -0.3108
  162SOPE   H4R18139   3.658   3.748  10.029 -1.0927 -0.4319 -1.0625
  162SOPE   H4S18140   3.761   3.621  10.106  0.6640 -0.3920  0.3304
  162SOPE   C2518141   3.624   3.551   9.945  0.1861 -0.3497  0.0136
  162SOPE   H5R18142   3.659   3.447   9.961  0.7130 -0.1349  0.2614
  162SOPE   H5S18143   3.514   3.558   9.931  0.4029  1.6860 -0.9833
  162SOPE   C2618144   3.686   3.582   9.807 -0.6173 -0.5352  0.3668
  162SOPE   H6R18145   3.668   3.690   9.789 -1.3338 -0.9942 -2.0792
  162SOPE   H6S18146   3.797   3.576   9.814 -0.6088 -0.8932 -0.0288
  162SOPE   C2718147   3.639   3.483   9.696  0.1872  0.1855 -0.0347
  162SOPE   H7R18148   3.666   3.377   9.718  0.6243  0.1558 -0.7037
  162SOPE   H7S18149   3.528   3.475   9.701  0.1554 -0.4112 -1.3329
  162SOPE   C2818150   3.702   3.518   9.557  0.0356 -0.3413 -0.3228
  162SOPE   H8R18151   3.687   3.627   9.546 -1.9650 -0.5614 -0.0155
  162SOPE   H8S18152   3.813   3.505   9.558 -0.0459 -1.0963 -0.3919
  162SOPE   C2918153   3.624   3.443   9.448  0.3216 -0.3546 -0.5469
  162SOPE   H9118154   3.548   3.371   9.482 -0.2080  1.3974  2.3404
  162SOPE  C21018155   3.626   3.467   9.317 -0.3369 -0.7340  0.9962
  162SOPE  H10118156   3.569   3.396   9.256 -2.7724  0.5249  1.6919
  162SOPE  C21118157   3.715   3.575   9.249 -0.2916  0.3910 -0.3402
  162SOPE  H11R18158   3.793   3.611   9.320  0.0885 -0.2269 -0.4289
  162SOPE  H11S18159   3.661   3.664   9.212 -0.1111  1.9998  2.8487
  162SOPE  C21218160   3.778   3.501   9.132  0.0761  0.3562  0.6848
  162SOPE  H12R18161   3.691   3.486   9.065  0.4060 -0.2054  0.3691
  162SOPE  H12S18162   3.828   3.402   9.146  1.9548  1.1985  0.1919
  162SOPE  C21318163   3.869   3.609   9.062 -0.6609 -0.5473  0.0885
  162SOPE  H13R18164   3.937   3.638   9.145  2.3973 -3.0788 -1.3035
  162SOPE  H13S18165   3.815   3.696   9.021 -0.5935  0.2846  1.6750
  162SOPE  C21418166   3.954   3.547   8.952 -0.3939  0.6095 -1.0929
  162SOPE  H14R18167   3.905   3.472   8.886 -1.4038  0.4745 -0.2100
  162SOPE  H14S18168   4.040   3.492   8.996  1.2948  1.7266 -2.8604
  162SOPE  C21518169   4.015   3.661   8.868  0.5172 -0.1277  0.2554
  162SOPE  H15R18170   4.063   3.740   8.929  0.6522  0.3390 -0.4412
  162SOPE  H15S18171   3.932   3.712   8.815  0.7185 -1.2757 -1.2271
  162SOPE  C21618172   4.123   3.617   8.765 -0.2690 -0.6269 -0.2028
  162SOPE  H16R18173   4.202   3.551   8.807  1.0285  1.8814  1.5737
  162SOPE  H16S18174   4.185   3.703   8.733  0.2474 -1.6126 -1.9931
  162SOPE  C21718175   4.071   3.566   8.628  0.0222  0.0012  0.2694
  162SOPE  H17R18176   4.006   3.642   8.581 -1.1522 -1.7117 -1.0114
  162SOPE  H17S18177   4.014   3.470   8.632 -0.9133  0.4796 -0.9570
  162SOPE  C21818178   4.183   3.536   8.532  0.1938  0.1861  0.4672
  162SOPE  H18R18179   4.144   3.484   8.442  2.4914  0.4602 -0.7659
  162SOPE  H18S18180   4.256   3.468   8.581 -0.2933 -1.7897 -1.3868
  162SOPE  H18T18181   4.226   3.631   8.495 -1.1753  0.3198 -0.8972
  162SOPE   C3318182   4.112   3.355   9.993  0.0911  0.6997  0.9454
  162SOPE   H3X18183   4.086   3.247   9.999  0.9499  0.3118 -1.2105
  162SOPE   H3Y18184   4.215   3.370  10.033  0.9651  0.6278 -1.1160
  162SOPE   C3418185   4.097   3.399   9.842  0.2054 -0.0504 -0.8727
  162SOPE   H4X18186   3.989   3.391   9.818 -0.4262  1.4179  1.1974
  162SOPE   H4Y18187   4.148   3.320   9.784  2.0136 -0.3114  0.9310
  162SOPE   C3518188   4.149   3.535   9.805 -0.2941 -0.5587  0.4170
  162SOPE   H5X18189   4.087   3.611   9.857  0.5398  2.7514 -2.9783
  162SOPE   H5Y18190   4.128   3.541   9.696  0.8044  0.3993  0.2332
  162SOPE   C3618191   4.298   3.561   9.842  0.7531 -0.2377 -0.1345
  162SOPE   H6X18192   4.316   3.577   9.950 -0.9989  0.4933  0.0880
  162SOPE   H6Y18193   4.324   3.661   9.802  0.2976  0.3799  1.0636
  162SOPE   C3718194   4.397   3.472   9.764  0.3706  0.0974  0.4815
  162SOPE   H7X18195   4.345   3.437   9.672  1.1893  1.6531 -0.6143
  162SOPE   H7Y18196   4.410   3.371   9.810 -0.1693  0.1271  0.7047
  162SOPE   C3818197   4.526   3.535   9.738 -0.1830 -0.3534  0.2556
  162SOPE   H8X18198   4.569   3.562   9.837 -0.5068 -0.1076  0.3300
  162SOPE   H8Y18199   4.512   3.632   9.685  1.9940 -0.7744 -1.2449
  162SOPE   C3918200   4.628   3.454   9.653 -0.5258  0.1103  0.5269
  162SOPE   H9X18201   4.566   3.381   9.599 -1.2173  1.9333 -1.2698
  162SOPE   H9Y18202   4.693   3.392   9.719 -2.1663  0.2647  2.3694
  162SOPE  C31018203   4.714   3.543   9.557 -0.0495 -0.2408  0.4227
  162SOPE  H10X18204   4.796   3.586   9.617  0.6197 -1.7432  0.6272
  162SOPE  H10Y18205   4.650   3.621   9.510 -1.4520 -1.5152  0.1291
  162SOPE  C31118206   4.790   3.459   9.447  0.3057 -0.4041  0.1171
  162SOPE  H11X18207   4.712   3.397   9.397 -0.9481  1.1644  0.0518
  162SOPE  H11Y18208   4.858   3.395   9.507  0.1454 -0.2784  0.4323
  162SOPE  C31218209   4.865   3.544   9.341  0.6874  0.3174  0.3606
  162SOPE  H12X18210   4.932   3.612   9.398 -0.1551  1.2277  0.2935
  162SOPE  H12Y18211   4.792   3.601   9.280 -1.5474 -0.7763  1.8706
  162SOPE  C31318212   4.934   3.450   9.239  0.1412 -0.1887 -0.6599
  162SOPE  H13X18213   4.856   3.383   9.196  1.6230 -1.8846 -0.7965
  162SOPE  H13Y18214   5.011   3.383   9.283 -0.0294  0.0583  0.0221
  162SOPE  C31418215   4.994   3.522   9.119  0.5613  0.3066 -0.2368
  162SOPE  H14X18216   5.074   3.592   9.154 -1.0805  1.6870  0.9110
  162SOPE  H14Y18217   4.916   3.578   9.063 -0.4412 -0.8832 -0.0721
  162SOPE  C31518218   5.050   3.429   9.015 -0.3283 -0.3715 -0.1941
  162SOPE  H15X18219   5.131   3.364   9.057 -0.6005 -0.5736  0.0221
  162SOPE  H15Y18220   5.103   3.494   8.942  1.9424 -1.4326  0.3869
  162SOPE  C31618221   4.948   3.341   8.944  0.6314 -0.4376  0.2362
  162SOPE  H16X18222   4.847   3.386   8.961 -0.8044 -2.7230 -1.5278
  162SOPE  H16Y18223   4.936   3.240   8.989  1.2756 -0.7936 -0.3835
  162SOPE  C31718224   4.958   3.333   8.786 -1.0438  0.8818  0.8331
  162SOPE  H17X18225   5.063   3.308   8.760 -2.1074 -2.2376 -0.9646
  162SOPE  H17Y18226   4.939   3.435   8.745  2.6035  1.4194  0.0910
  162SOPE  C31818227   4.865   3.229   8.718 -0.6916 -0.0487  0.1538
  162SOPE  H18X18228   4.888   3.126   8.752 -1.1334 -0.5987 -1.1686
  162SOPE  H18Y18229   4.874   3.229   8.608 -0.6053 -1.9414  0.1288
  162SOPE  H18Z18230   4.761   3.250   8.751 -0.0624  0.6557  1.8103
  163SOPE     N18231   3.657   0.742  10.894  0.1441  0.9134  0.0993
  163SOPE   HN118232   3.620   0.743  10.991 -0.8391  1.1489 -0.2647
  163SOPE   HN218233   3.757   0.716  10.890 -0.1115  0.0486 -2.3558
  163SOPE   HN318234   3.651   0.837  10.852  0.3978  0.8829 -0.0069
  163SOPE   C1218235   3.588   0.636  10.804  0.0577  0.3673 -0.6724
  163SOPE  H12A18236   3.587   0.678  10.701  4.1417  0.8243 -0.6945
  163SOPE  H12B18237   3.481   0.624  10.833 -0.0399  4.1431  1.1471
  163SOPE   C1118238   3.650   0.499  10.803  1.1792  0.3492 -0.4828
  163SOPE  H11A18239   3.580   0.433  10.746  0.1583  0.7951  0.2167
  163SOPE  H11B18240   3.661   0.461  10.907  1.9274  1.0608 -0.2923
  163SOPE     P18241   3.867   0.374  10.753 -0.1007  0.0514  0.1748
  163SOPE   O1318242   3.800   0.275  10.666  0.1588  0.4292 -0.0895
  163SOPE   O1418243   3.881   0.341  10.894  0.2958  0.0242  0.1934
  163SOPE   O1218244   3.778   0.505  10.746 -0.4746 -0.1888  0.4230
  163SOPE   O1118245   4.001   0.413  10.687  0.4349 -0.1469 -0.3697
  163SOPE    C118246   4.009   0.508  10.582  0.3079  0.0981  0.5831
  163SOPE    HA18247   4.087   0.581  10.608 -1.6670  3.0890 -1.3058
  163SOPE    HB18248   3.906   0.546  10.564 -0.2084 -0.8316  1.4639
  163SOPE    C218249   4.042   0.430  10.448 -0.7762  0.2173 -0.8407
  163SOPE    HS18250   4.080   0.510  10.381  1.5370  1.3343  1.6228
  163SOPE   O2118251   3.921   0.357  10.397  0.0864 -0.6859 -0.3844
  163SOPE   C2118252   3.830   0.432  10.347  0.3030  0.5814  0.4599
  163SOPE   O2218253   3.843   0.551  10.323 -0.1326  0.4925  0.3331
  163SOPE   C2218254   3.698   0.344  10.344 -0.7692 -0.1608 -0.3919
  163SOPE   H2R18255   3.606   0.404  10.328 -0.6280  0.5758  1.3109
  163SOPE   H2S18256   3.699   0.303  10.447 -0.7341 -0.2074 -0.4108
  163SOPE    C318257   4.169   0.330  10.462 -0.4801 -0.3707  0.1851
  163SOPE    HX18258   4.150   0.260  10.546 -0.1889  0.6652  1.1493
  163SOPE    HY18259   4.256   0.391  10.495 -1.8559  0.9822  1.5053
  163SOPE   O3118260   4.199   0.272  10.332  0.2721 -0.2870 -0.2243
  163SOPE   C3118261   4.138   0.157  10.308 -0.1417  0.0801  0.0129
  163SOPE   O3218262   4.069   0.098  10.387  0.4960  1.0060 -0.7061
  163SOPE   C3218263   4.177   0.121  10.164 -0.3299  0.1933  0.2997
  163SOPE   H2X18264   4.287   0.106  10.172 -0.5668 -1.7783  0.3400
  163SOPE   H2Y18265   4.153   0.205  10.096  0.6932 -0.2144 -0.5897
  163SOPE   C2318266   3.715   0.221  10.244  0.2058  0.2991  0.3531
  163SOPE   H3R18267   3.620   0.165  10.230  0.8588 -0.4995 -1.2130
  163SOPE   H3S18268   3.791   0.150  10.283 -0.3462  0.0121  0.9437
  163SOPE   C2418269   3.757   0.280  10.103 -0.0600 -0.1123  0.0046
  163SOPE   H4R18270   3.692   0.369  10.085  0.7116  0.3784 -0.3860
  163SOPE   H4S18271   3.862   0.315  10.102  1.5663 -4.3689 -0.4542
  163SOPE   C2518272   3.737   0.169   9.990 -0.3899 -0.1565 -0.3458
  163SOPE   H5R18273   3.765   0.067  10.024 -0.9894  0.0296  0.7796
  163SOPE   H5S18274   3.629   0.159   9.966 -0.4657  0.1393 -0.1336
  163SOPE   C2618275   3.791   0.207   9.850  0.4898  0.1983 -0.3714
  163SOPE   H6R18276   3.751   0.309   9.832 -3.6974 -0.3796  3.7884
  163SOPE   H6S18277   3.901   0.217   9.863  0.3444  0.4393  0.7466
  163SOPE   C2718278   3.741   0.113   9.743 -0.3716  0.4415  0.8049
  163SOPE   H7R18279   3.777   0.009   9.760 -0.8569  0.2800  0.8827
  163SOPE   H7S18280   3.630   0.114   9.754 -0.1535  0.5286  3.5859
  163SOPE   C2818281   3.787   0.169   9.603  0.3628  0.5534  0.1239
  163SOPE   H8R18282   3.790   0.279   9.590 -1.5213  0.5516 -0.5604
  163SOPE   H8S18283   3.889   0.126   9.594  0.8343  2.0018 -2.7337
  163SOPE   C2918284   3.690   0.092   9.512  1.1403 -0.7701  1.2987
  163SOPE   H9118285   3.701  -0.017   9.519  0.3809 -1.0163 -0.6498
  163SOPE  C21018286   3.577   0.137   9.455  0.7084  0.1243 -0.1513
  163SOPE  H10118287   3.511   0.070   9.398  0.6233 -0.0118  0.1004
  163SOPE  C21118288   3.530   0.278   9.468  0.2016  0.2234 -0.0757
  163SOPE  H11R18289   3.593   0.334   9.541  0.5471 -0.2170 -0.0357
  163SOPE  H11S18290   3.429   0.280   9.516  1.3094  4.7055  2.7153
  163SOPE  C21218291   3.506   0.332   9.325 -0.0221  0.0222 -0.2906
  163SOPE  H12R18292   3.451   0.259   9.262 -1.4047 -0.4629  1.4162
  163SOPE  H12S18293   3.608   0.356   9.287  0.9533  1.8006  3.0728
  163SOPE  C21318294   3.428   0.470   9.326 -0.0434 -0.1561 -0.1048
  163SOPE  H13R18295   3.489   0.541   9.386 -0.2657 -0.0101 -0.0461
  163SOPE  H13S18296   3.335   0.459   9.387  0.0239  1.8396  0.4469
  163SOPE  C21418297   3.392   0.522   9.186  0.2709 -0.2253  0.6696
  163SOPE  H14R18298   3.480   0.495   9.124  0.1825 -1.2662  0.9648
  163SOPE  H14S18299   3.389   0.632   9.177  0.6375 -0.3940 -2.3169
  163SOPE  C21518300   3.262   0.461   9.130  0.0752 -0.1877  0.3299
  163SOPE  H15R18301   3.179   0.505   9.189 -0.7849 -0.2430 -0.8228
  163SOPE  H15S18302   3.276   0.351   9.135  2.5791 -0.0175 -1.2037
  163SOPE  C21618303   3.242   0.482   8.975 -0.2679 -0.4584  0.4940
  163SOPE  H16R18304   3.329   0.465   8.908 -2.6103 -1.5116 -2.5399
  163SOPE  H16S18305   3.197   0.582   8.958  0.7425 -0.0779 -0.0493
  163SOPE  C21718306   3.141   0.371   8.917 -0.2746  0.1562 -0.5331
  163SOPE  H17R18307   3.045   0.374   8.973  0.1039 -0.6479  0.1785
  163SOPE  H17S18308   3.184   0.270   8.930 -2.0965 -0.3628  2.2583
  163SOPE  C21818309   3.101   0.387   8.772  0.1550 -0.2183  0.6147
  163SOPE  H18R18310   3.049   0.483   8.751  1.8947  0.3981 -1.1727
  163SOPE  H18S18311   3.041   0.304   8.730  1.4023 -1.3383  0.9878
  163SOPE  H18T18312   3.203   0.385   8.729  0.7743  0.5339  1.9983
  163SOPE   C3318313   4.109  -0.015  10.100 -0.3005 -0.1645 -0.5557
  163SOPE   H3X18314   4.007  -0.021  10.145  0.3290 -0.8720  0.8440
  163SOPE   H3Y18315   4.161  -0.103  10.143 -2.8747 -1.4378  0.1735
  163SOPE   C3418316   4.134  -0.017   9.949  0.0076  0.0798  0.3412
  163SOPE   H4X18317   4.244  -0.022   9.936  0.1361 -1.7815  1.7468
  163SOPE   H4Y18318   4.098   0.079   9.905  1.4126  0.1489 -0.7097
  163SOPE   C3518319   4.072  -0.142   9.880 -0.1097 -0.6075 -0.3029
  163SOPE   H5X18320   3.962  -0.141   9.899  0.0582  1.1779  0.8684
  163SOPE   H5Y18321   4.132  -0.230   9.913  0.4482  0.4897  1.8158
  163SOPE   C3618322   4.092  -0.133   9.728  0.2948  0.2724 -0.4740
  163SOPE   H6X18323   4.201  -0.139   9.704  0.3507  0.7749 -0.3453
  163SOPE   H6Y18324   4.049  -0.040   9.686  0.0138  0.5811  0.4820
  163SOPE   C3718325   4.008  -0.247   9.655 -0.1758 -0.6979 -0.0998
  163SOPE   H7X18326   3.898  -0.243   9.665 -0.1842 -0.5457 -0.2499
  163SOPE   H7Y18327   4.050  -0.340   9.699  0.2572 -1.5091 -2.1368
  163SOPE   C3818328   4.036  -0.255   9.503  0.6530 -0.0324  0.0277
  163SOPE   H8X18329   3.999  -0.352   9.464  0.2969  0.0904  0.0524
  163SOPE   H8Y18330   4.145  -0.244   9.488  1.1286 -2.1757  1.5227
  163SOPE   C3918331   3.960  -0.148   9.415  0.1508  0.3811  0.3628
  163SOPE   H9X18332   4.008  -0.053   9.444  4.1825 -1.2072 -0.4365
  163SOPE   H9Y18333   3.850  -0.147   9.434 -0.0760  0.9158 -0.8601
  163SOPE  C31018334   3.980  -0.169   9.263 -0.9067  0.0824 -0.4043
  163SOPE  H10X18335   3.964  -0.277   9.239 -1.7951 -0.4252  2.1588
  163SOPE  H10Y18336   4.084  -0.142   9.238 -1.1433  1.2963 -0.1232
  163SOPE  C31118337   3.870  -0.090   9.179 -0.1627  0.3379 -0.9603
  163SOPE  H11X18338   3.876   0.015   9.213 -1.1289 -0.2120  1.0334
  163SOPE  H11Y18339   3.763  -0.121   9.187 -0.3109  0.8040 -1.0759
  163SOPE  C31218340   3.889  -0.079   9.027 -0.0813  0.0766 -0.0384
  163SOPE  H12X18341   3.792  -0.043   8.987  1.2312  1.9342 -1.7432
  163SOPE  H12Y18342   3.899  -0.180   8.981 -1.1103  1.1335 -2.7928
  163SOPE  C31318343   4.010   0.013   8.978 -0.6426  0.0716 -0.3677
  163SOPE  H13X18344   4.107  -0.040   8.991  0.0105  0.3279 -3.4597
  163SOPE  H13Y18345   4.012   0.094   9.054 -0.8158 -0.1657 -0.1107
  163SOPE  C31418346   3.988   0.054   8.836  0.3877 -0.2468 -0.2965
  163SOPE  H14X18347   3.973  -0.039   8.778 -1.2099 -0.9399  1.1294
  163SOPE  H14Y18348   4.079   0.108   8.805  0.0437  1.3894  1.3667
  163SOPE  C31518349   3.873   0.147   8.801  0.0914 -0.1547  0.0651
  163SOPE  H15X18350   3.774   0.095   8.799 -0.0708  0.1076  0.9720
  163SOPE  H15Y18351   3.887   0.175   8.694  1.6804 -0.1196  0.2600
  163SOPE  C31618352   3.861   0.273   8.891 -0.4117  0.0083  1.0160
  163SOPE  H16X18353   3.960   0.325   8.896  1.3270 -2.8632 -1.0130
  163SOPE  H16Y18354   3.834   0.238   8.993 -1.2010  2.3593  1.6786
  163SOPE  C31718355   3.749   0.360   8.832  0.7076 -0.2869 -0.3050
  163SOPE  H17X18356   3.777   0.413   8.738  0.0401 -2.0167 -1.5225
  163SOPE  H17Y18357   3.726   0.439   8.907 -1.8008  0.7375 -2.0295
  163SOPE  C31818358   3.612   0.295   8.791 -0.1069 -0.1694  0.4630
  163SOPE  H18X18359   3.634   0.216   8.716  1.7375  0.5518  0.1751
  163SOPE  H18Y18360   3.546   0.368   8.739  0.8152 -0.6280 -1.4645
  163SOPE  H18Z18361   3.565   0.253   8.882  0.4521 -0.2787  0.7098
  164SOPE     N18362   5.651   5.576  10.873  0.4598  0.0083 -0.2554
  164SOPE   HN118363   5.686   5.482  10.901  1.9413  0.6504  0.1411
  164SOPE   HN218364   5.547   5.589  10.872  0.3368 -0.7289  1.0406
  164SOPE   HN318365   5.686   5.611  10.781  0.1372  0.9557 -0.0330
  164SOPE   C1218366   5.694   5.673  10.982 -0.4936  0.2592 -0.0474
  164SOPE  H12A18367   5.804   5.690  10.983 -0.5427  0.6922  2.3157
  164SOPE  H12B18368   5.680   5.622  11.079 -0.2602 -1.0825 -0.6946
  164SOPE   C1118369   5.587   5.784  10.972 -0.6247  0.6665  0.7049
  164SOPE  H11A18370   5.622   5.859  11.046  0.7064 -0.9084  1.7418
  164SOPE  H11B18371   5.493   5.744  11.016 -0.1486 -0.2934  0.8787
  164SOPE     P18372   5.443   5.941  10.823 -0.0027 -0.3062 -0.2138
  164SOPE   O1318373   5.479   6.080  10.775 -0.4462 -0.5401 -0.3949
  164SOPE   O1418374   5.357   5.939  10.941  0.0275  0.0379 -0.7560
  164SOPE   O1218375   5.571   5.848  10.844  0.7090  0.1475  0.1778
  164SOPE   O1118376   5.372   5.859  10.710  0.5128  0.3980 -0.1922
  164SOPE    C118377   5.429   5.761  10.622  0.3189  0.3615  0.7020
  164SOPE    HA18378   5.365   5.670  10.620  1.3770 -0.4022 -1.3943
  164SOPE    HB18379   5.521   5.717  10.667  0.9997 -0.1741 -1.1072
  164SOPE    C218380   5.441   5.801  10.469  0.4339  0.3598 -0.1050
  164SOPE    HS18381   5.511   5.886  10.460 -0.7823  1.1707 -2.9808
  164SOPE   O2118382   5.309   5.843  10.433 -0.0169 -0.4237 -0.0354
  164SOPE   C2118383   5.298   5.979  10.418  0.1731 -0.1660  0.4756
  164SOPE   O2218384   5.389   6.057  10.435 -0.2444 -0.0584 -0.3910
  164SOPE   C2218385   5.147   6.008  10.380  0.1195  0.3550 -0.0874
  164SOPE   H2R18386   5.106   6.073  10.460 -1.5973  1.0714 -1.4830
  164SOPE   H2S18387   5.096   5.908  10.383  1.7986 -0.5206  2.5426
  164SOPE    C318388   5.474   5.685  10.373  0.3545  0.4172  0.3768
  164SOPE    HX18389   5.398   5.606  10.389 -0.4511  0.9655 -0.6464
  164SOPE    HY18390   5.574   5.639  10.391  0.2299 -0.0981 -0.1912
  164SOPE   O3118391   5.482   5.734  10.237 -0.2889  0.2810 -0.2612
  164SOPE   C3118392   5.404   5.689  10.146  0.0781 -0.9104  0.5490
  164SOPE   O3218393   5.316   5.603  10.159 -0.0193 -0.1821  0.2051
  164SOPE   C3218394   5.448   5.768  10.014 -0.0973 -0.0578 -0.2416
  164SOPE   H2X18395   5.491   5.862  10.056 -3.8927  0.6753  2.4892
  164SOPE   H2Y18396   5.359   5.790   9.951 -0.9972 -0.6736  0.7793
  164SOPE   C2318397   5.127   6.081  10.248  0.3668 -0.8010 -0.3014
  164SOPE   H3R18398   5.197   6.167  10.261  0.0374 -0.4982 -0.5121
  164SOPE   H3S18399   5.018   6.105  10.251 -0.0644 -2.5335 -1.0182
  164SOPE   C2418400   5.168   5.999  10.128  0.2783  0.1083  0.0015
  164SOPE   H4R18401   5.275   5.970  10.125  0.3498  0.1831  1.3463
  164SOPE   H4S18402   5.098   5.912  10.126  0.3632  0.0299  0.3549
  164SOPE   C2518403   5.131   6.083  10.005 -0.2646  1.1917 -0.0979
  164SOPE   H5R18404   5.021   6.091  10.000 -0.5113 -1.0013  0.6704
  164SOPE   H5S18405   5.173   6.185  10.017 -1.5456  1.5022  2.3994
  164SOPE   C2618406   5.181   6.024   9.871  0.2975 -0.2671 -0.1103
  164SOPE   H6R18407   5.291   6.007   9.867  0.9703  3.3900 -0.9023
  164SOPE   H6S18408   5.129   5.927   9.858  1.8447 -0.9238 -1.7751
  164SOPE   C2718409   5.125   6.116   9.766  0.1181 -0.5098  0.1840
  164SOPE   H7R18410   5.014   6.125   9.767  0.2041  2.8301 -2.6560
  164SOPE   H7S18411   5.169   6.213   9.798 -0.7935 -0.6532  2.0232
  164SOPE   C2818412   5.170   6.079   9.622 -0.2162  0.4976 -0.4358
  164SOPE   H8R18413   5.145   6.164   9.555  2.3471  1.4923 -0.2196
  164SOPE   H8S18414   5.281   6.082   9.619 -0.2264  1.3786 -0.2308
  164SOPE   C2918415   5.125   5.949   9.560 -0.4804  0.7627  0.1482
  164SOPE   H9118416   5.127   5.855   9.617  0.6232  1.3447  1.1237
  164SOPE  C21018417   5.099   5.949   9.424 -0.7245 -1.0308  0.7702
  164SOPE  H10118418   5.078   5.850   9.381 -0.5545 -0.8736  0.3232
  164SOPE  C21118419   5.096   6.062   9.320 -0.7839  0.4836  0.2442
  164SOPE  H11R18420   5.051   6.152   9.366 -0.5416  1.1510 -0.8021
  164SOPE  H11S18421   5.028   6.019   9.243  0.9825  0.0866 -1.1527
  164SOPE  C21218422   5.231   6.096   9.263 -0.4050  0.3032  0.2687
  164SOPE  H12R18423   5.305   6.014   9.256  1.4560  1.8459  0.8915
  164SOPE  H12S18424   5.296   6.165   9.320  2.0259 -1.2002 -0.5266
  164SOPE  C21318425   5.208   6.147   9.115 -0.1593  0.0442  0.8244
  164SOPE  H13R18426   5.140   6.234   9.123 -1.0587 -0.6792  1.2984
  164SOPE  H13S18427   5.155   6.070   9.054 -1.9688  0.6885  1.5057
  164SOPE  C21418428   5.341   6.189   9.051 -0.0728  0.2091  0.4055
  164SOPE  H14R18429   5.408   6.103   9.071  0.5595  0.2659 -1.2594
  164SOPE  H14S18430   5.375   6.280   9.105  1.1096 -0.9545  1.6716
  164SOPE  C21518431   5.345   6.240   8.902 -0.4616 -0.8759  0.0287
  164SOPE  H15R18432   5.429   6.312   8.891 -1.9504  0.9434 -0.0305
  164SOPE  H15S18433   5.249   6.292   8.882 -1.1534 -1.1151  2.3895
  164SOPE  C21618434   5.350   6.123   8.808 -0.5302  0.3700  0.5824
  164SOPE  H16R18435   5.265   6.053   8.828 -1.3477  1.6174  1.6765
  164SOPE  H16S18436   5.445   6.070   8.830  0.1890  1.6435  0.6313
  164SOPE  C21718437   5.354   6.177   8.660 -0.3123 -0.6751  0.3414
  164SOPE  H17R18438   5.274   6.254   8.659  1.0802  0.8128 -0.1100
  164SOPE  H17S18439   5.329   6.102   8.581 -0.2390  2.0036 -2.4026
  164SOPE  C21818440   5.483   6.250   8.612  0.1739 -1.0435  0.5547
  164SOPE  H18R18441   5.468   6.272   8.504 -1.0532  0.2817  0.9578
  164SOPE  H18S18442   5.575   6.189   8.622  1.4192  0.3857 -1.4345
  164SOPE  H18T18443   5.505   6.343   8.669 -0.1411  0.6512 -1.8880
  164SOPE   C3318444   5.538   5.678   9.920  0.2394 -0.3258 -0.7379
  164SOPE   H3X18445   5.612   5.628   9.985  0.6058  1.4919  0.3379
  164SOPE   H3Y18446   5.588   5.740   9.842 -0.6920 -0.8362 -1.7747
  164SOPE   C3418447   5.453   5.575   9.844 -0.0147 -0.0584 -0.9009
  164SOPE   H4X18448   5.363   5.537   9.897  0.3719  0.7855  0.4260
  164SOPE   H4Y18449   5.527   5.496   9.818  1.2631  0.7744  0.0577
  164SOPE   C3518450   5.407   5.630   9.704 -0.8918 -0.0720 -0.5761
  164SOPE   H5X18451   5.379   5.734   9.729 -0.1126 -0.5351  2.7282
  164SOPE   H5Y18452   5.324   5.563   9.674  0.8813 -2.1066 -1.1876
  164SOPE   C3618453   5.523   5.635   9.606  0.6293  0.0794  1.0639
  164SOPE   H6X18454   5.559   5.531   9.587  0.1118  0.1908 -0.7523
  164SOPE   H6Y18455   5.597   5.702   9.653 -1.8482  4.4340 -0.6580
  164SOPE   C3718456   5.471   5.691   9.472  0.7242 -0.1666  0.7673
  164SOPE   H7X18457   5.561   5.703   9.408 -0.4847 -0.3274 -1.0491
  164SOPE   H7Y18458   5.424   5.791   9.486 -0.4079 -0.6082  0.2148
  164SOPE   C3818459   5.387   5.601   9.384  0.0703  0.2942  0.7741
  164SOPE   H8X18460   5.310   5.546   9.443  1.2590 -3.1364 -0.6263
  164SOPE   H8Y18461   5.448   5.517   9.345  1.4423  1.1704  0.9668
  164SOPE   C3918462   5.321   5.681   9.261 -0.6958  0.3196  0.2461
  164SOPE   H9X18463   5.398   5.744   9.212  1.3023  0.6229  3.4744
  164SOPE   H9Y18464   5.251   5.754   9.307 -0.3578  3.0571 -3.2127
  164SOPE  C31018465   5.237   5.582   9.180 -0.7133 -0.3419 -0.2996
  164SOPE  H10X18466   5.146   5.549   9.234 -0.2995  0.0811  0.6831
  164SOPE  H10Y18467   5.296   5.492   9.154 -1.2200 -0.5409 -0.8013
  164SOPE  C31118468   5.189   5.636   9.043 -0.2430  0.2319  0.2873
  164SOPE  H11X18469   5.267   5.693   8.989 -1.0871  2.0324  0.8852
  164SOPE  H11Y18470   5.111   5.714   9.057 -0.9015 -0.5273  0.9548
  164SOPE  C31218471   5.125   5.522   8.962  0.2116  0.1175 -0.4696
  164SOPE  H12X18472   5.027   5.496   9.007  1.9552 -1.8723  2.5269
  164SOPE  H12Y18473   5.187   5.430   8.966  0.9157  0.6015  0.0891
  164SOPE  C31318474   5.120   5.565   8.811  0.2915 -0.1634 -0.6928
  164SOPE  H13X18475   5.063   5.489   8.755  0.6746 -1.7138  0.9294
  164SOPE  H13Y18476   5.225   5.576   8.775  0.5275  1.6059  0.3904
  164SOPE  C31418477   5.045   5.697   8.788  0.4080 -0.0736 -0.1756
  164SOPE  H14X18478   5.099   5.788   8.823 -0.9522  0.7860 -0.2498
  164SOPE  H14Y18479   4.951   5.702   8.848  0.8450  0.4699  0.4879
  164SOPE  C31518480   4.997   5.714   8.645  0.0961 -0.0870  0.3953
  164SOPE  H15X18481   4.911   5.643   8.644 -1.1709  1.3395  2.1574
  164SOPE  H15Y18482   5.072   5.676   8.572 -0.8050 -1.5220  0.1605
  164SOPE  C31618483   4.951   5.855   8.609 -0.0938 -0.3265  0.5889
  164SOPE  H16X18484   4.885   5.898   8.687  2.0959 -1.7518  3.3850
  164SOPE  H16Y18485   4.898   5.851   8.511  0.9699  0.2006 -0.0282
  164SOPE  C31718486   5.078   5.945   8.576  0.5904  0.2291 -0.6397
  164SOPE  H17X18487   5.149   5.881   8.520  1.5388 -0.6594  1.4660
  164SOPE  H17Y18488   5.130   5.946   8.674  1.4215  0.2283 -1.0740
  164SOPE  C31818489   5.043   6.089   8.535  0.4554 -0.0226  0.6677
  164SOPE  H18X18490   4.963   6.078   8.459  1.2917  0.7784 -0.3691
  164SOPE  H18Y18491   5.135   6.137   8.495 -0.1445  2.5528  2.1420
  164SOPE  H18Z18492   5.005   6.137   8.628  1.1885 -3.8064  3.1046
  165SOPE     N18493   4.222   0.391  10.881  0.0562 -0.5177  0.9743
  165SOPE   HN118494   4.191   0.489  10.867 -0.8336 -1.0014 -0.6378
  165SOPE   HN218495   4.312   0.380  10.830  0.9492  1.6368  1.9383
  165SOPE   HN318496   4.150   0.334  10.834 -1.0209  0.6060  1.2098
  165SOPE   C1218497   4.236   0.343  11.023  0.5221  0.2778  0.8337
  165SOPE  H12A18498   4.142   0.352  11.081  1.0047  3.4219  1.3489
  165SOPE  H12B18499   4.322   0.392  11.074  2.2408 -1.2297 -0.4646
  165SOPE   C1118500   4.268   0.193  11.021 -0.2152 -0.3492  0.2538
  165SOPE  H11A18501   4.276   0.174  11.130 -1.2017  0.0391  0.3968
  165SOPE  H11B18502   4.365   0.171  10.971 -0.6484  1.0496 -1.2952
  165SOPE     P18503   4.129  -0.032  10.985 -0.2199  0.0201 -0.6128
  165SOPE   O1318504   3.986  -0.043  10.965  0.5293 -0.1953 -0.7578
  165SOPE   O1418505   4.192  -0.085  11.107  0.2199 -0.0822  0.5537
  165SOPE   O1218506   4.159   0.123  10.965 -0.4010 -0.3133  0.0491
  165SOPE   O1118507   4.191  -0.106  10.858  0.3371 -0.5703 -0.2084
  165SOPE    C118508   4.260  -0.030  10.760 -0.2524 -0.1332 -0.5733
  165SOPE    HA18509   4.358   0.007  10.798  0.0632 -2.5012  1.1205
  165SOPE    HB18510   4.199   0.057  10.726  1.7754  1.7618  0.3669
  165SOPE    C218511   4.289  -0.112  10.630  0.2273  0.6201  0.1572
  165SOPE    HS18512   4.347  -0.052  10.556 -0.1187 -1.6459 -2.1124
  165SOPE   O2118513   4.165  -0.154  10.571 -0.7092  0.1604 -0.1245
  165SOPE   C2118514   4.168  -0.171  10.434 -0.4391  0.4255 -0.5437
  165SOPE   O2218515   4.268  -0.154  10.368 -0.2370  0.1932 -0.4898
  165SOPE   C2218516   4.026  -0.206  10.395  0.0717  0.8164 -0.2882
  165SOPE   H2R18517   3.999  -0.134  10.315 -0.7509 -0.3198 -1.0665
  165SOPE   H2S18518   3.962  -0.194  10.485  1.7716 -0.2407  1.1238
  165SOPE    C318519   4.369  -0.249  10.669  0.0631 -0.0122  0.9539
  165SOPE    HX18520   4.300  -0.306  10.735 -0.2290 -0.8516 -0.0466
  165SOPE    HY18521   4.456  -0.224  10.735 -0.4818 -0.4533  1.8562
  165SOPE   O3118522   4.410  -0.335  10.565  1.0035 -0.4223 -0.1975
  165SOPE   C3118523   4.535  -0.314  10.516 -0.3078  0.1953 -0.2117
  165SOPE   O3218524   4.604  -0.224  10.555 -0.8218 -0.1497 -0.5850
  165SOPE   C3218525   4.568  -0.405  10.397  1.0427 -0.0175  0.0091
  165SOPE   H2X18526   4.525  -0.508  10.404  1.1132  0.0538  2.1342
  165SOPE   H2Y18527   4.676  -0.432  10.390  1.0002 -0.1148 -0.2663
  165SOPE   C2318528   4.016  -0.351  10.346  0.7650  0.2034 -0.5416
  165SOPE   H3R18529   3.918  -0.391  10.379  1.0376 -0.5255 -0.6129
  165SOPE   H3S18530   4.103  -0.415  10.372  1.3849  1.2275 -0.0355
  165SOPE   C2418531   4.015  -0.349  10.193 -0.0025  0.5695  0.4734
  165SOPE   H4R18532   3.944  -0.273  10.154  1.4136  0.7641 -1.9302
  165SOPE   H4S18533   4.115  -0.327  10.151  0.3952  0.0932  1.1570
  165SOPE   C2518534   3.975  -0.482  10.125  0.3097 -0.1976 -0.6944
  165SOPE   H5R18535   4.048  -0.559  10.159 -1.5583 -1.3475  0.8618
  165SOPE   H5S18536   3.877  -0.510  10.168  0.1941 -0.9595 -1.4239
  165SOPE   C2618537   3.950  -0.476   9.977 -0.0138 -0.0038  0.1708
  165SOPE   H6R18538   3.886  -0.394   9.937  0.0534  0.0724  0.2199
  165SOPE   H6S18539   4.052  -0.458   9.938  0.2701  0.2766  1.0222
  165SOPE   C2718540   3.891  -0.602   9.922  0.1984 -0.2794  0.8122
  165SOPE   H7R18541   3.928  -0.690   9.978  2.4831 -1.7514 -2.6626
  165SOPE   H7S18542   3.780  -0.605   9.917  0.1484 -0.1124  1.6802
  165SOPE   C2818543   3.932  -0.611   9.775  0.7885  0.0329 -0.0581
  165SOPE   H8R18544   3.888  -0.526   9.717  1.6593  0.0698 -0.6822
  165SOPE   H8S18545   4.042  -0.610   9.759  0.8437 -0.9949  0.2030
  165SOPE   C2918546   3.879  -0.745   9.723 -1.1947 -0.8392  0.3132
  165SOPE   H9118547   3.845  -0.818   9.798  1.0132 -2.0927  0.1996
  165SOPE  C21018548   3.857  -0.770   9.591 -0.3257 -0.1168  0.3055
  165SOPE  H10118549   3.807  -0.862   9.556 -0.0774 -0.3242  0.4925
  165SOPE  C21118550   3.894  -0.671   9.486  0.0463  0.0918  0.2177
  165SOPE  H11R18551   4.000  -0.695   9.462  0.1569  0.5827  0.2028
  165SOPE  H11S18552   3.893  -0.568   9.528  0.7542 -1.1997  3.7537
  165SOPE  C21218553   3.810  -0.683   9.361 -0.1341 -0.4693 -0.6330
  165SOPE  H12R18554   3.705  -0.674   9.394 -0.3273 -0.0145 -1.3557
  165SOPE  H12S18555   3.827  -0.786   9.323 -3.2140 -0.7111 -1.5964
  165SOPE  C21318556   3.842  -0.586   9.247 -0.3302  0.6679 -0.5927
  165SOPE  H13R18557   3.945  -0.616   9.218 -1.0146 -1.6196 -0.8555
  165SOPE  H13S18558   3.862  -0.488   9.297  2.4165 -0.7606  1.3315
  165SOPE  C21418559   3.748  -0.588   9.125 -0.5150  0.0828 -0.3591
  165SOPE  H14R18560   3.653  -0.570   9.180  0.2736 -1.2507  1.5384
  165SOPE  H14S18561   3.736  -0.686   9.073  0.9343  0.9103 -2.3372
  165SOPE  C21518562   3.753  -0.474   9.028  0.3358 -0.5479  0.1237
  165SOPE  H15R18563   3.853  -0.451   8.984  0.6214  1.7718  1.8352
  165SOPE  H15S18564   3.726  -0.383   9.086  0.8619 -1.9124  2.6348
  165SOPE  C21618565   3.663  -0.487   8.907 -0.2466 -0.4351  0.1455
  165SOPE  H16R18566   3.723  -0.552   8.840 -0.5098  1.0284 -1.5784
  165SOPE  H16S18567   3.665  -0.385   8.864 -2.5264 -1.0880 -1.7677
  165SOPE  C21718568   3.518  -0.530   8.920  0.0184  0.0106  0.3016
  165SOPE  H17R18569   3.458  -0.458   8.979  0.2173  0.2764  0.1788
  165SOPE  H17S18570   3.526  -0.628   8.972 -0.3906  0.4283  1.1640
  165SOPE  C21818571   3.450  -0.551   8.787 -0.3809 -0.5381 -0.8236
  165SOPE  H18R18572   3.428  -0.450   8.746 -0.2944  0.1255  0.7227
  165SOPE  H18S18573   3.362  -0.620   8.791  1.0804 -2.4213  0.4715
  165SOPE  H18T18574   3.521  -0.590   8.711 -0.8996 -0.0997 -1.5576
  165SOPE   C3318575   4.518  -0.346  10.262  0.4928 -0.3686  0.2402
  165SOPE   H3X18576   4.584  -0.268  10.219  0.8236 -0.6520  0.2298
  165SOPE   H3Y18577   4.413  -0.310  10.270  0.7779  0.5772 -0.1695
  165SOPE   C3418578   4.507  -0.463  10.160  0.3029  0.0673 -0.3175
  165SOPE   H4X18579   4.450  -0.545  10.210 -0.2272  1.5644  1.6457
  165SOPE   H4Y18580   4.607  -0.501  10.130  0.9940  2.3280 -1.0420
  165SOPE   C3518581   4.428  -0.406  10.037  0.1936  0.6914  0.5485
  165SOPE   H5X18582   4.456  -0.299  10.021 -0.4518  0.6984 -0.7390
  165SOPE   H5Y18583   4.318  -0.406  10.050  0.1783 -1.1273  0.6117
  165SOPE   C3618584   4.448  -0.488   9.907  0.6495  0.1756 -0.0614
  165SOPE   H6X18585   4.417  -0.593   9.927 -1.6992  0.7210 -0.5342
  165SOPE   H6Y18586   4.557  -0.484   9.884  0.8363  0.7892  0.8599
  165SOPE   C3718587   4.356  -0.451   9.785 -0.8928 -0.9090  0.0063
  165SOPE   H7X18588   4.378  -0.344   9.769 -0.2975 -0.4744  3.0524
  165SOPE   H7Y18589   4.252  -0.460   9.823 -0.8837 -0.3887  0.1532
  165SOPE   C3818590   4.383  -0.542   9.659  0.2146 -0.1551 -0.2249
  165SOPE   H8X18591   4.355  -0.641   9.699  1.8903 -0.4232  0.3682
  165SOPE   H8Y18592   4.492  -0.539   9.638  0.7208  2.7807  2.0836
  165SOPE   C3918593   4.323  -0.508   9.528 -0.1460 -0.8552  0.0227
  165SOPE   H9X18594   4.349  -0.400   9.522 -2.8169  0.1137  3.1014
  165SOPE   H9Y18595   4.212  -0.513   9.533 -0.3406  0.2139 -2.0185
  165SOPE  C31018596   4.369  -0.604   9.420 -0.7669  0.3635 -0.0142
  165SOPE  H10X18597   4.371  -0.705   9.466  1.1546 -0.2550 -1.3133
  165SOPE  H10Y18598   4.471  -0.570   9.391 -0.7069  1.7362  1.6327
  165SOPE  C31118599   4.281  -0.610   9.294  0.0451 -0.6230  1.3221
  165SOPE  H11X18600   4.173  -0.611   9.320 -1.0780  1.2837 -2.6260
  165SOPE  H11Y18601   4.309  -0.700   9.234 -0.9721  1.3729 -2.4360
  165SOPE  C31218602   4.317  -0.488   9.207 -0.1718 -0.5167  0.3266
  165SOPE  H12X18603   4.425  -0.475   9.185 -0.2100  3.0628  1.6626
  165SOPE  H12Y18604   4.304  -0.402   9.276  0.6331 -0.3981  0.3341
  165SOPE  C31318605   4.230  -0.462   9.076 -0.6955 -0.0812  0.0746
  165SOPE  H13X18606   4.263  -0.365   9.034  1.2053 -0.4817  0.5768
  165SOPE  H13Y18607   4.123  -0.448   9.106 -0.7785 -2.5028  1.1210
  165SOPE  C31418608   4.248  -0.577   8.979  0.3435 -0.5908 -0.1061
  165SOPE  H14X18609   4.209  -0.667   9.031  0.3850 -0.0690  0.8595
  165SOPE  H14Y18610   4.353  -0.592   8.948  0.3688  0.6149 -0.6511
  165SOPE  C31518611   4.178  -0.540   8.847  0.3328 -0.4003 -0.5234
  165SOPE  H15X18612   4.234  -0.459   8.795 -2.6337  0.6015 -2.4382
  165SOPE  H15Y18613   4.072  -0.511   8.857  0.5742  0.9596 -1.6168
  165SOPE  C31618614   4.187  -0.658   8.747  0.3947  0.1346 -0.1757
  165SOPE  H16X18615   4.140  -0.751   8.783 -3.1154  1.9595  0.4076
  165SOPE  H16Y18616   4.295  -0.677   8.733  0.6776  0.6398  1.1864
  165SOPE  C31718617   4.118  -0.619   8.616 -0.5330 -0.6191 -0.2752
  165SOPE  H17X18618   4.171  -0.676   8.536  2.1579  1.9736 -0.4927
  165SOPE  H17Y18619   4.136  -0.512   8.596  0.1537 -0.5054  0.8776
  165SOPE  C31818620   3.970  -0.641   8.637  0.5004 -0.0235  0.0681
  165SOPE  H18X18621   3.935  -0.617   8.739 -1.5503 -0.3100 -0.5229
  165SOPE  H18Y18622   3.940  -0.746   8.618  1.4337 -0.2799 -0.0440
  165SOPE  H18Z18623   3.904  -0.573   8.578 -2.0363 -0.9409  1.6929
  166SOPE     N18624   0.917   3.353  10.819 -0.2232 -0.6479  0.7333
  166SOPE   HN118625   0.972   3.295  10.886 -0.7487 -1.4539  0.4847
  166SOPE   HN218626   0.975   3.430  10.781 -1.6903  0.2756  0.3021
  166SOPE   HN318627   0.847   3.399  10.881 -0.9858 -2.5236  1.3507
  166SOPE   C1218628   0.841   3.269  10.714  0.9495  0.5169  0.7977
  166SOPE  H12A18629   0.907   3.204  10.653 -1.5203 -0.1182 -1.4276
  166SOPE  H12B18630   0.775   3.335  10.654 -1.5834 -1.6991  0.9136
  166SOPE   C1118631   0.744   3.172  10.775  0.1986  0.5759 -0.5995
  166SOPE  H11A18632   0.794   3.114  10.856  0.4124  0.8676 -0.5187
  166SOPE  H11B18633   0.719   3.103  10.692  1.1117  1.0339 -1.2740
  166SOPE     P18634   0.478   3.221  10.785  0.3598  0.0767  0.1627
  166SOPE   O1318635   0.412   3.345  10.824 -0.1470 -0.0713  0.0131
  166SOPE   O1418636   0.427   3.098  10.852  0.6286  0.6070  0.4104
  166SOPE   O1218637   0.626   3.236  10.824 -0.1297  0.1015  0.7884
  166SOPE   O1118638   0.483   3.200  10.629 -0.0791  0.9031 -0.2387
  166SOPE    C118639   0.378   3.255  10.549 -0.0935  0.0510 -0.5464
  166SOPE    HA18640   0.324   3.342  10.593  1.6984  2.7235 -3.2120
  166SOPE    HB18641   0.303   3.175  10.535  0.7062 -0.7806 -0.1991
  166SOPE    C218642   0.429   3.296  10.410  0.3594 -0.1398  0.4981
  166SOPE    HS18643   0.338   3.331  10.356 -2.9384 -1.2185  4.8144
  166SOPE   O2118644   0.483   3.179  10.339  0.5336 -0.1643 -0.2217
  166SOPE   C2118645   0.385   3.095  10.297  0.3458  0.3296  0.3666
  166SOPE   O2218646   0.264   3.113  10.303 -0.2177  0.0893 -0.6503
  166SOPE   C2218647   0.443   2.970  10.229  1.2689 -0.2949  0.5362
  166SOPE   H2R18648   0.478   2.896  10.305 -2.1460 -1.2871  1.3362
  166SOPE   H2S18649   0.530   3.003  10.169 -1.0511  0.1752 -2.8119
  166SOPE    C318650   0.526   3.414  10.422 -0.1387 -0.7636  0.6783
  166SOPE    HX18651   0.608   3.386  10.492  1.9631  1.2806 -0.8532
  166SOPE    HY18652   0.454   3.489  10.463 -1.0721 -1.8741  1.1342
  166SOPE   O3118653   0.565   3.451  10.290 -0.2286 -0.6157 -0.1437
  166SOPE   C3118654   0.680   3.401  10.252 -0.4645  0.2466  0.1190
  166SOPE   O3218655   0.763   3.340  10.315 -0.5153 -0.1440  0.0703
  166SOPE   C3218656   0.720   3.459  10.120 -0.3468 -0.3455  0.1067
  166SOPE   H2X18657   0.818   3.415  10.091  1.1100  2.5337  0.3278
  166SOPE   H2Y18658   0.731   3.567  10.142  0.0340 -0.7545  2.0730
  166SOPE   C2318659   0.339   2.895  10.129  0.3158  0.6352 -0.2229
  166SOPE   H3R18660   0.257   2.846  10.186  0.5558 -0.7812 -1.0400
  166SOPE   H3S18661   0.387   2.806  10.082 -3.8800 -0.7683 -2.4145
  166SOPE   C2418662   0.284   2.974  10.011  0.0288 -0.7294 -0.6616
  166SOPE   H4R18663   0.213   3.055  10.039  1.3583  0.7383 -1.3876
  166SOPE   H4S18664   0.362   3.046   9.978  0.8643  0.0413  2.6462
  166SOPE   C2518665   0.237   2.881   9.903 -0.1148  0.4427 -0.7889
  166SOPE   H5R18666   0.320   2.809   9.889 -0.4849  0.0289 -0.9024
  166SOPE   H5S18667   0.140   2.831   9.927 -0.6211  0.6035 -2.3869
  166SOPE   C2618668   0.218   2.960   9.772 -0.0850  0.3450 -0.2499
  166SOPE   H6R18669   0.137   3.035   9.777 -0.6513 -0.3093  0.6206
  166SOPE   H6S18670   0.310   3.022   9.760  1.5939 -1.6579  1.4441
  166SOPE   C2718671   0.187   2.870   9.658  0.6453  0.6472  0.5572
  166SOPE   H7R18672   0.270   2.796   9.648  0.1030  0.1437 -0.2782
  166SOPE   H7S18673   0.093   2.815   9.678 -0.3833  0.9691 -2.9010
  166SOPE   C2818674   0.176   2.945   9.523 -0.5334  0.6724  0.3607
  166SOPE   H8R18675   0.103   2.882   9.467 -0.2974  0.8224 -0.1090
  166SOPE   H8S18676   0.135   3.048   9.533 -0.0084  0.8521  0.7168
  166SOPE   C2918677   0.310   2.964   9.450  0.5388 -0.2812 -0.2005
  166SOPE   H9118678   0.395   2.996   9.512 -0.1209 -0.2857  0.7155
  166SOPE  C21018679   0.342   2.941   9.319  0.4120 -0.7731 -0.0652
  166SOPE  H10118680   0.446   2.961   9.289  0.2853 -3.1134 -2.4793
  166SOPE  C21118681   0.261   2.889   9.206 -0.1521 -0.4523 -0.3026
  166SOPE  H11R18682   0.182   2.815   9.233 -1.1580  1.2456  1.8288
  166SOPE  H11S18683   0.332   2.835   9.140 -0.4353  1.1359 -2.0015
  166SOPE  C21218684   0.198   3.006   9.132  0.3732 -1.0088 -0.3811
  166SOPE  H12R18685   0.282   3.073   9.102  1.7269 -1.3359  2.3890
  166SOPE  H12S18686   0.134   3.059   9.206  0.4579 -1.4533  0.0138
  166SOPE  C21318687   0.113   2.968   9.008  0.0891 -0.3898  0.5473
  166SOPE  H13R18688   0.037   2.893   9.040 -0.5136 -0.1086 -0.1994
  166SOPE  H13S18689   0.174   2.924   8.927 -0.2375 -0.2750  0.2381
  166SOPE  C21418690   0.038   3.086   8.952 -0.4369  0.4549 -0.5076
  166SOPE  H14R18691   0.121   3.154   8.922  1.2826 -1.7234 -1.0048
  166SOPE  H14S18692  -0.016   3.148   9.026 -3.1749  1.2872 -3.0191
  166SOPE  C21518693  -0.056   3.055   8.839  0.0356  0.0730 -0.3730
  166SOPE  H15R18694  -0.149   3.005   8.875  0.4664 -2.0054 -1.9444
  166SOPE  H15S18695  -0.012   2.977   8.773  0.0415  0.0063 -0.2914
  166SOPE  C21618696  -0.105   3.177   8.761 -0.0185  0.5834  0.1052
  166SOPE  H16R18697  -0.164   3.246   8.826 -0.6072  1.2148 -1.0559
  166SOPE  H16S18698  -0.176   3.151   8.679  0.6294 -1.5753  0.1856
  166SOPE  C21718699   0.006   3.257   8.690  0.3747 -0.6410 -0.1019
  166SOPE  H17R18700   0.046   3.178   8.623 -0.0014  1.5772 -3.1135
  166SOPE  H17S18701   0.075   3.301   8.765  0.1484  1.8832 -1.2931
  166SOPE  C21818702  -0.043   3.360   8.595 -0.2509  0.3992  0.1520
  166SOPE  H18R18703  -0.123   3.326   8.527 -0.4109 -0.8870  0.9501
  166SOPE  H18S18704   0.047   3.379   8.532 -0.5713  0.9998 -0.1265
  166SOPE  H18T18705  -0.078   3.452   8.645 -0.4090  0.8341 -0.7442
  166SOPE   C3318706   0.621   3.433  10.010  0.3097 -0.1660 -0.5713
  166SOPE   H3X18707   0.655   3.503   9.931  0.0636  0.0805 -0.4621
  166SOPE   H3Y18708   0.519   3.462  10.042  0.4895 -0.2138  0.0643
  166SOPE   C3418709   0.622   3.285   9.982 -0.3099 -0.3687 -0.2678
  166SOPE   H4X18710   0.560   3.231  10.057  1.8734  0.2275  2.1041
  166SOPE   H4Y18711   0.722   3.236   9.982 -0.2211 -0.2764  1.5955
  166SOPE   C3518712   0.562   3.242   9.846  0.0590  1.0516  0.1388
  166SOPE   H5X18713   0.451   3.247   9.843  0.0222  0.7499 -3.2911
  166SOPE   H5Y18714   0.588   3.137   9.824  0.9181  1.1696  0.5597
  166SOPE   C3618715   0.601   3.322   9.724 -0.2116  0.1584  0.4355
  166SOPE   H6X18716   0.712   3.313   9.725 -0.1766  0.5583  0.2723
  166SOPE   H6Y18717   0.554   3.423   9.725 -1.2939 -0.2923 -1.0772
  166SOPE   C3718718   0.567   3.243   9.593  0.7999  0.1216 -0.6783
  166SOPE   H7X18719   0.457   3.250   9.590  0.8564  3.5047  1.0376
  166SOPE   H7Y18720   0.576   3.132   9.593 -1.5503 -0.1282  0.5065
  166SOPE   C3818721   0.629   3.302   9.469 -0.3448 -0.4710  0.2243
  166SOPE   H8X18722   0.722   3.246   9.448  0.1503  0.7914 -1.0375
  166SOPE   H8Y18723   0.656   3.407   9.493 -1.9100 -0.2800  1.3403
  166SOPE   C3918724   0.546   3.314   9.341  0.3835  0.7377 -0.0723
  166SOPE   H9X18725   0.465   3.390   9.343  1.5346  2.0815 -1.7279
  166SOPE   H9Y18726   0.502   3.215   9.317  0.6422  0.4575  0.5746
  166SOPE  C31018727   0.632   3.354   9.224  0.9022 -0.1297  0.0524
  166SOPE  H10X18728   0.720   3.289   9.201 -0.3477 -1.6209 -0.7520
  166SOPE  H10Y18729   0.672   3.456   9.240  1.0166 -0.2895  0.8314
  166SOPE  C31118730   0.554   3.365   9.092  0.3686  0.5721 -0.0114
  166SOPE  H11X18731   0.624   3.422   9.028  0.7922  0.9396  0.7692
  166SOPE  H11Y18732   0.464   3.426   9.115 -0.1133 -0.4753  1.0579
  166SOPE  C31218733   0.511   3.237   9.017 -0.2800 -0.2852 -0.2183
  166SOPE  H12X18734   0.463   3.164   9.086  0.3367 -0.6894 -0.2020
  166SOPE  H12Y18735   0.602   3.176   8.995 -1.5179 -1.4557 -2.5526
  166SOPE  C31318736   0.426   3.250   8.893  0.2670 -1.1801  0.3255
  166SOPE  H13X18737   0.481   3.315   8.821  0.6875  1.2614  2.7162
  166SOPE  H13Y18738   0.333   3.301   8.924  0.9613 -0.3395  1.0734
  166SOPE  C31418739   0.386   3.112   8.829 -0.3421  0.5322  0.4035
  166SOPE  H14X18740   0.281   3.112   8.793 -0.0157 -0.1331 -0.6073
  166SOPE  H14Y18741   0.396   3.038   8.911  2.8616 -0.0467 -0.3427
  166SOPE  C31518742   0.484   3.058   8.718  0.1479 -0.1763  0.7767
  166SOPE  H15X18743   0.448   2.963   8.672  2.3118 -0.1917 -1.0349
  166SOPE  H15Y18744   0.570   3.032   8.784 -0.3136 -0.5265  1.2519
  166SOPE  C31618745   0.520   3.150   8.600 -0.6643 -0.5562 -0.1975
  166SOPE  H16X18746   0.577   3.238   8.635 -0.7752  0.5820 -2.6347
  166SOPE  H16Y18747   0.431   3.173   8.537  0.3302 -1.1852 -1.9137
  166SOPE  C31718748   0.615   3.080   8.494  0.0500  0.0392  0.0612
  166SOPE  H17X18749   0.572   2.981   8.467 -1.2426  0.2420  1.2857
  166SOPE  H17Y18750   0.712   3.065   8.546 -1.3083 -0.6127  2.5668
  166SOPE  C31818751   0.631   3.165   8.372  0.3919 -0.3329  0.2548
  166SOPE  H18X18752   0.543   3.170   8.304 -0.4040  1.3353  1.3224
  166SOPE  H18Y18753   0.725   3.134   8.322 -0.6070 -1.2287 -1.1181
  166SOPE  H18Z18754   0.649   3.269   8.407 -1.2079  0.4432 -1.0923
  167SOPE     N18755   2.439   2.333   6.276 -0.2646 -0.5022  0.4014
  167SOPE   HN118756   2.356   2.388   6.306 -1.5490 -0.3904 -2.9451
  167SOPE   HN218757   2.520   2.339   6.342 -0.3822  0.7575  0.4588
  167SOPE   HN318758   2.480   2.390   6.198  0.2212 -1.0440  0.2513
  167SOPE   C1218759   2.395   2.195   6.251  0.6653  0.2567 -0.2590
  167SOPE  H12A18760   2.469   2.146   6.184 -1.5702 -1.3505 -1.7459
  167SOPE  H12B18761   2.305   2.204   6.185  0.5183  1.0706  0.0470
  167SOPE   C1118762   2.376   2.111   6.377  0.7376 -0.2153 -0.2658
  167SOPE  H11A18763   2.478   2.098   6.419  1.4701  0.4869 -1.7529
  167SOPE  H11B18764   2.335   2.012   6.345 -1.0316  0.8327 -1.4216
  167SOPE     P18765   2.133   2.154   6.484 -0.2751 -0.0330 -0.1942
  167SOPE   O1318766   2.112   2.038   6.576  0.2273  0.6219 -0.0789
  167SOPE   O1418767   2.078   2.141   6.343 -0.8656 -0.1969  0.0315
  167SOPE   O1218768   2.289   2.169   6.475  0.6583 -0.1771  0.1423
  167SOPE   O1118769   2.069   2.291   6.549 -0.1355 -0.0808  0.2014
  167SOPE    C118770   2.152   2.353   6.646 -0.3450 -0.1173 -0.2643
  167SOPE    HA18771   2.179   2.454   6.608  2.6562 -1.4499 -1.9826
  167SOPE    HB18772   2.251   2.303   6.658  0.2285  0.7623 -1.2170
  167SOPE    C218773   2.084   2.375   6.787  0.1971 -0.6512  0.3230
  167SOPE    HS18774   2.170   2.399   6.853 -1.2972  1.3906  1.6411
  167SOPE   O2118775   2.018   2.256   6.827  0.2951  0.3790 -0.2013
  167SOPE   C2118776   2.085   2.156   6.879  0.5093 -0.3864  0.0580
  167SOPE   O2218777   2.197   2.163   6.914 -0.1230 -0.3220  0.4876
  167SOPE   C2218778   1.992   2.041   6.875  0.1690  0.5741 -0.0341
  167SOPE   H2R18779   1.937   2.037   6.779 -0.3023  1.9404  0.1576
  167SOPE   H2S18780   1.909   2.048   6.948 -0.7606  0.1559 -1.0261
  167SOPE    C318781   1.988   2.500   6.790 -0.0076  0.3878 -0.0417
  167SOPE    HX18782   1.900   2.492   6.723  2.0729 -0.4791 -2.8722
  167SOPE    HY18783   2.055   2.580   6.751 -0.3999  0.6757 -0.1323
  167SOPE   O3118784   1.938   2.543   6.920  0.2312  0.8435  0.1490
  167SOPE   C3118785   1.879   2.658   6.929  0.6104  0.2207 -0.2037
  167SOPE   O3218786   1.868   2.742   6.842  0.6546 -0.2316  0.5147
  167SOPE   C3218787   1.848   2.676   7.078 -0.2948  0.1826 -0.2295
  167SOPE   H2X18788   1.926   2.633   7.144 -0.0912  1.6335  0.5142
  167SOPE   H2Y18789   1.753   2.619   7.089  0.8476 -1.5484  1.1890
  167SOPE   C2318790   2.073   1.911   6.893  0.2203  0.0252 -0.8848
  167SOPE   H3R18791   2.157   1.903   6.821 -0.1804 -2.8166 -1.1550
  167SOPE   H3S18792   1.999   1.830   6.876  0.3857 -0.1814 -0.6275
  167SOPE   C2418793   2.113   1.903   7.038  0.3551 -0.7104 -0.3138
  167SOPE   H4R18794   2.176   1.811   7.039  0.1042 -0.9420 -2.0892
  167SOPE   H4S18795   2.184   1.985   7.062  0.4116 -0.0980 -2.3481
  167SOPE   C2518796   2.004   1.895   7.148  0.3521  0.2734 -0.9475
  167SOPE   H5R18797   1.958   1.995   7.156 -2.3605 -0.9565  0.1828
  167SOPE   H5S18798   1.924   1.819   7.133 -0.6183  1.0151  0.3503
  167SOPE   C2618799   2.071   1.867   7.288 -0.4020  0.1050 -0.1507
  167SOPE   H6R18800   2.123   1.769   7.280 -1.0557 -0.1903 -0.9947
  167SOPE   H6S18801   2.128   1.959   7.312 -1.0901  1.3006 -2.7157
  167SOPE   C2718802   1.972   1.852   7.402 -0.1414  0.2206  0.3563
  167SOPE   H7R18803   1.921   1.950   7.410  2.3330  1.5658  0.8951
  167SOPE   H7S18804   1.901   1.769   7.386  1.5054 -1.0193 -0.8015
  167SOPE   C2818805   2.054   1.828   7.538  0.3088 -0.0394  0.0684
  167SOPE   H8R18806   2.095   1.724   7.539  0.0011 -0.2247 -1.8907
  167SOPE   H8S18807   2.139   1.898   7.544  1.0894 -0.9597 -0.0027
  167SOPE   C2918808   1.950   1.860   7.646 -0.1261  0.0000 -0.0876
  167SOPE   H9118809   1.841   1.846   7.634 -0.4427 -1.3801  3.2228
  167SOPE  C21018810   1.981   1.920   7.762 -0.3075 -0.4994  0.1494
  167SOPE  H10118811   1.900   1.933   7.835 -2.7736  1.1035 -2.6273
  167SOPE  C21118812   2.117   1.972   7.808  0.2947  0.8258 -0.4512
  167SOPE  H11R18813   2.110   2.082   7.817 -1.7056  0.9461 -2.7743
  167SOPE  H11S18814   2.202   1.943   7.743  1.3871  2.6484  0.0835
  167SOPE  C21218815   2.164   1.913   7.942 -0.1458 -0.8157  0.4166
  167SOPE  H12R18816   2.090   1.924   8.025  1.5709  1.3250  1.7716
  167SOPE  H12S18817   2.259   1.957   7.979 -0.9604  3.0897 -1.5757
  167SOPE  C21318818   2.208   1.760   7.930  0.3836 -0.3615 -0.3726
  167SOPE  H13R18819   2.287   1.752   7.853  0.9713 -1.0403  0.2868
  167SOPE  H13S18820   2.126   1.687   7.916  0.1061 -0.8145  2.7274
  167SOPE  C21418821   2.267   1.715   8.060 -0.0731  0.0759 -0.4539
  167SOPE  H14R18822   2.353   1.777   8.094 -0.0370  0.2301 -0.8203
  167SOPE  H14S18823   2.315   1.617   8.042 -0.0208  0.2805 -1.4922
  167SOPE  C21518824   2.168   1.708   8.173  0.1996  0.4244  0.3504
  167SOPE  H15R18825   2.087   1.636   8.148  0.4071  0.3352 -0.0823
  167SOPE  H15S18826   2.115   1.804   8.191  1.0671  0.9575  0.1288
  167SOPE  C21618827   2.223   1.655   8.307  0.0067  0.2161 -0.3078
  167SOPE  H16R18828   2.328   1.686   8.328 -0.3728  0.9295  0.6861
  167SOPE  H16S18829   2.215   1.545   8.304  0.8731  0.0782  1.1746
  167SOPE  C21718830   2.147   1.708   8.436  0.3698  0.2587  0.5967
  167SOPE  H17R18831   2.177   1.815   8.446 -1.2510  0.7465  0.5385
  167SOPE  H17S18832   2.183   1.663   8.531  0.9916 -1.1616 -0.2926
  167SOPE  C21818833   1.994   1.695   8.432  0.4024 -0.2814 -0.1074
  167SOPE  H18R18834   1.943   1.704   8.531  1.3397  0.5259  0.3145
  167SOPE  H18S18835   1.973   1.598   8.382  1.3666  0.2838 -1.6840
  167SOPE  H18T18836   1.955   1.775   8.366  3.1573  1.4191  0.2010
  167SOPE   C3318837   1.823   2.823   7.119 -0.4760  0.0503 -0.4366
  167SOPE   H3X18838   1.726   2.860   7.078 -0.5886  0.4074  0.1341
  167SOPE   H3Y18839   1.907   2.889   7.088 -0.5126  0.7402  0.8491
  167SOPE   C3418840   1.829   2.840   7.276 -1.1225  0.2308 -0.0296
  167SOPE   H4X18841   1.935   2.808   7.292 -1.7835 -2.6335 -0.7819
  167SOPE   H4Y18842   1.769   2.769   7.338  0.9671 -0.4076  1.4160
  167SOPE   C3518843   1.818   2.986   7.315 -0.0653  0.3989 -0.1443
  167SOPE   H5X18844   1.746   3.035   7.245 -0.5899 -1.2041 -0.7763
  167SOPE   H5Y18845   1.916   3.038   7.308  0.1433  0.0736  0.3938
  167SOPE   C3618846   1.791   3.002   7.469  0.2097 -0.4957  0.3278
  167SOPE   H6X18847   1.686   2.969   7.485 -0.7454  0.7994 -2.5542
  167SOPE   H6Y18848   1.797   3.113   7.477  1.2576 -0.5368  0.1673
  167SOPE   C3718849   1.901   2.932   7.558  0.0663 -0.1550  1.2139
  167SOPE   H7X18850   2.002   2.953   7.518  0.2074 -1.3963  0.8698
  167SOPE   H7Y18851   1.908   2.826   7.524  0.6663 -0.4093  2.0935
  167SOPE   C3818852   1.878   2.936   7.707  0.2513 -0.2459  0.3626
  167SOPE   H8X18853   1.776   2.895   7.724  0.2329 -0.3294  0.0555
  167SOPE   H8Y18854   1.883   3.040   7.745 -1.0504  0.0422 -0.1837
  167SOPE   C3918855   1.991   2.856   7.781 -0.3038  0.2691  0.0556
  167SOPE   H9X18856   2.095   2.892   7.763  1.4334 -4.7984 -1.9432
  167SOPE   H9Y18857   2.002   2.755   7.737 -2.1235  0.3205 -0.6141
  167SOPE  C31018858   1.952   2.855   7.932 -0.0661  0.2688 -0.3313
  167SOPE  H10X18859   1.854   2.804   7.938 -0.1188  0.5669  2.5557
  167SOPE  H10Y18860   1.954   2.962   7.964 -0.3374 -0.3764  2.0064
  167SOPE  C31118861   2.047   2.787   8.025 -0.1418  0.0429 -0.4058
  167SOPE  H11X18862   2.145   2.838   8.020  0.4796 -1.0699  0.2462
  167SOPE  H11Y18863   2.078   2.691   7.977  0.7953  0.5806 -0.9024
  167SOPE  C31218864   2.009   2.759   8.176 -0.2189 -0.1047  0.6354
  167SOPE  H12X18865   1.960   2.853   8.208 -0.4899  1.1867 -3.1344
  167SOPE  H12Y18866   2.104   2.742   8.231 -1.3763 -1.5064  2.3158
  167SOPE  C31318867   1.917   2.637   8.198 -0.0155  0.1336  0.1256
  167SOPE  H13X18868   1.972   2.545   8.170  0.0228  0.7030 -1.8755
  167SOPE  H13Y18869   1.828   2.637   8.131  1.6205 -0.3728 -2.2002
  167SOPE  C31418870   1.863   2.625   8.341 -0.1093 -0.2810 -0.8140
  167SOPE  H14X18871   1.794   2.708   8.365 -1.3965 -2.1862  2.9202
  167SOPE  H14Y18872   1.938   2.636   8.422 -0.6058 -2.8514  0.0966
  167SOPE  C31518873   1.768   2.511   8.369 -0.1209  0.0101 -0.5151
  167SOPE  H15X18874   1.811   2.409   8.367 -1.4110 -0.5688  0.0014
  167SOPE  H15Y18875   1.706   2.492   8.280 -0.6134  0.5925 -0.3009
  167SOPE  C31618876   1.663   2.515   8.487 -1.0970 -0.1598  0.2546
  167SOPE  H16X18877   1.595   2.599   8.466  0.5201  0.8735 -1.1675
  167SOPE  H16Y18878   1.718   2.547   8.578  2.8434  2.9429 -2.8171
  167SOPE  C31718879   1.595   2.376   8.508 -0.4347  0.1680  0.2450
  167SOPE  H17X18880   1.671   2.301   8.538  2.6451  2.7671 -0.5292
  167SOPE  H17Y18881   1.543   2.340   8.417  0.6909 -1.4456  0.1895
  167SOPE  C31818882   1.499   2.386   8.627  0.1894  0.1289 -0.1595
  167SOPE  H18X18883   1.483   2.494   8.649 -1.5895  0.2042 -1.5429
  167SOPE  H18Y18884   1.543   2.340   8.718 -2.0664  0.5098  1.1999
  167SOPE  H18Z18885   1.398   2.339   8.619  0.9835 -1.8263  0.6437
  168SOPE     N18886   3.294   2.214   6.595  0.1126 -0.1304 -0.3029
  168SOPE   HN118887   3.370   2.265   6.644 -0.4831 -1.0419  1.7193
  168SOPE   HN218888   3.244   2.156   6.666 -1.6875 -0.7327 -1.9883
  168SOPE   HN318889   3.337   2.143   6.534  0.7136 -0.1913  0.1800
  168SOPE   C1218890   3.202   2.303   6.515 -0.0015  0.2464  0.4088
  168SOPE  H12A18891   3.269   2.354   6.443  3.1691 -0.0738  2.8783
  168SOPE  H12B18892   3.166   2.386   6.579 -0.4225 -0.8578  1.6611
  168SOPE   C1118893   3.091   2.220   6.457  0.3825  0.2866 -0.5276
  168SOPE  H11A18894   3.138   2.150   6.385  1.3827  0.5768 -0.1698
  168SOPE  H11B18895   3.025   2.289   6.398 -1.4331 -1.3500 -0.5239
  168SOPE     P18896   2.889   2.068   6.524 -0.1438  0.0908 -0.1865
  168SOPE   O1318897   2.892   1.927   6.568 -0.2496  0.8745  0.2609
  168SOPE   O1418898   2.859   2.091   6.382 -0.0599 -0.0770  0.2603
  168SOPE   O1218899   3.021   2.142   6.554 -0.5623  0.1290  0.5763
  168SOPE   O1118900   2.778   2.135   6.615 -0.4880  0.4237 -0.0391
  168SOPE    C118901   2.820   2.234   6.709  0.1424  0.4914  0.3224
  168SOPE    HA18902   2.734   2.287   6.755  2.0725  2.1939  2.1855
  168SOPE    HB18903   2.882   2.314   6.664 -1.4832  1.7395  0.1943
  168SOPE    C218904   2.888   2.178   6.836 -0.1338 -0.1719 -0.1718
  168SOPE    HS18905   2.994   2.168   6.807 -0.7877  0.3543 -3.0704
  168SOPE   O2118906   2.831   2.048   6.859 -0.2021  0.4140  0.7911
  168SOPE   C2118907   2.898   1.959   6.916 -0.6440 -0.7517 -0.0099
  168SOPE   O2218908   3.019   1.955   6.931 -0.6153 -0.0792 -0.2583
  168SOPE   C2218909   2.798   1.848   6.933  0.2638  0.1230  0.3025
  168SOPE   H2R18910   2.751   1.833   6.834  1.2024 -0.5672 -0.0596
  168SOPE   H2S18911   2.710   1.876   6.994 -1.3871 -1.8980 -1.0143
  168SOPE    C318912   2.866   2.272   6.957 -0.4265  0.0939  0.1841
  168SOPE    HX18913   2.758   2.280   6.982 -0.9730  2.3029 -2.3773
  168SOPE    HY18914   2.900   2.377   6.945  0.6559 -0.2490  0.1616
  168SOPE   O3118915   2.932   2.220   7.071  0.0748  0.3619 -0.1301
  168SOPE   C3118916   3.062   2.246   7.089  0.1391  0.6314  0.2984
  168SOPE   O3218917   3.126   2.322   7.012 -0.6308  0.1553 -0.5775
  168SOPE   C3218918   3.118   2.160   7.199 -0.2641  0.7342 -0.1740
  168SOPE   H2X18919   3.193   2.093   7.152 -3.0190 -2.8735  0.0828
  168SOPE   H2Y18920   3.044   2.085   7.235  0.5684  0.2614  0.5995
  168SOPE   C2318921   2.859   1.711   6.972  0.2179  1.0086 -0.1191
  168SOPE   H3R18922   2.939   1.676   6.903 -0.2122  0.9599 -0.6005
  168SOPE   H3S18923   2.781   1.632   6.965  1.7764 -0.5582 -0.5523
  168SOPE   C2418924   2.889   1.704   7.119 -0.0301  0.7670  0.2099
  168SOPE   H4R18925   2.966   1.780   7.144 -1.2340  2.3341 -0.6362
  168SOPE   H4S18926   2.798   1.734   7.176 -1.4731 -0.1532 -1.5152
  168SOPE   C2518927   2.944   1.572   7.174  0.0600 -0.3029 -0.5886
  168SOPE   H5R18928   2.880   1.482   7.159  0.9617 -0.7415 -1.9629
  168SOPE   H5S18929   3.043   1.561   7.125 -0.1252 -0.3003 -0.9710
  168SOPE   C2618930   2.970   1.585   7.327  0.1043 -0.5694 -0.2885
  168SOPE   H6R18931   3.015   1.683   7.352 -0.0993 -0.9028  1.5304
  168SOPE   H6S18932   2.866   1.590   7.365  0.7429 -0.7482  1.5656
  168SOPE   C2718933   3.031   1.466   7.404  0.3452 -0.6578  0.1554
  168SOPE   H7R18934   2.956   1.384   7.404  2.2146 -2.4564  0.6389
  168SOPE   H7S18935   3.122   1.433   7.350  0.9271 -0.3438  0.9366
  168SOPE   C2818936   3.072   1.481   7.548  0.2347 -0.3061 -0.2099
  168SOPE   H8R18937   3.106   1.378   7.574 -1.7392 -0.4986  1.8454
  168SOPE   H8S18938   3.157   1.550   7.564  1.5650 -1.6440 -1.1895
  168SOPE   C2918939   2.959   1.505   7.646  0.3440  0.2005  0.4483
  168SOPE   H9118940   2.863   1.534   7.601  0.0677 -0.7465  0.4134
  168SOPE  C21018941   2.980   1.511   7.778  0.3438  0.4279  0.5743
  168SOPE  H10118942   2.897   1.537   7.845  0.1527 -2.8040  1.7585
  168SOPE  C21118943   3.105   1.479   7.843 -0.1998 -0.1666 -0.3201
  168SOPE  H11R18944   3.168   1.420   7.772 -0.2637 -0.6018 -0.0228
  168SOPE  H11S18945   3.078   1.399   7.915 -0.7598 -1.4053 -1.8196
  168SOPE  C21218946   3.169   1.605   7.906  0.2367 -0.3059  0.4938
  168SOPE  H12R18947   3.109   1.646   7.990  0.1803 -2.7984  1.7567
  168SOPE  H12S18948   3.192   1.682   7.829  1.1961 -0.8163  0.2467
  168SOPE  C21318949   3.311   1.564   7.964  0.4451  0.4757 -0.2532
  168SOPE  H13R18950   3.377   1.595   7.880  0.0704  2.4835  0.1512
  168SOPE  H13S18951   3.329   1.454   7.962  0.7513  0.4697  1.3055
  168SOPE  C21418952   3.350   1.641   8.093  0.1054 -0.4920  0.2339
  168SOPE  H14R18953   3.264   1.617   8.158  0.1481 -3.5263 -0.6493
  168SOPE  H14S18954   3.350   1.752   8.089  2.4247 -0.3115  2.6123
  168SOPE  C21518955   3.491   1.596   8.135 -0.6597 -0.3018  0.0926
  168SOPE  H15R18956   3.559   1.636   8.056  1.2899  1.2542  2.4229
  168SOPE  H15S18957   3.503   1.486   8.141 -1.3995 -0.3403  1.1199
  168SOPE  C21618958   3.535   1.641   8.270 -0.3511 -0.2986  0.4821
  168SOPE  H16R18959   3.490   1.584   8.354 -0.6194 -2.9076 -1.3349
  168SOPE  H16S18960   3.505   1.746   8.293  2.1229  0.1148  2.1886
  168SOPE  C21718961   3.684   1.631   8.288 -0.2793  0.0429  0.7918
  168SOPE  H17R18962   3.744   1.688   8.214 -1.0658 -0.1168  0.0210
  168SOPE  H17S18963   3.707   1.523   8.281 -0.1540  0.0555  0.9960
  168SOPE  C21818964   3.733   1.684   8.423  0.0905  0.0651 -0.1491
  168SOPE  H18R18965   3.700   1.786   8.453 -0.2828  0.8360 -2.9104
  168SOPE  H18S18966   3.844   1.690   8.411  0.0499  1.6567 -0.0201
  168SOPE  H18T18967   3.707   1.609   8.501 -0.3926 -0.7531 -1.0837
  168SOPE   C3318968   3.169   2.235   7.331  0.2058 -0.2656 -0.1089
  168SOPE   H3X18969   3.233   2.320   7.297  0.3927 -0.5640 -0.5226
  168SOPE   H3Y18970   3.219   2.165   7.401 -1.3494  0.4749  1.8217
  168SOPE   C3418971   3.052   2.306   7.414  0.4399  0.0626  0.2013
  168SOPE   H4X18972   2.972   2.232   7.436 -0.1573  0.4393 -0.6239
  168SOPE   H4Y18973   3.006   2.379   7.344 -1.4318  0.4068  1.7120
  168SOPE   C3518974   3.093   2.388   7.543  0.3192  0.5375 -0.6802
  168SOPE   H5X18975   3.015   2.465   7.557  0.8559  1.0300 -0.3489
  168SOPE   H5Y18976   3.189   2.440   7.523 -0.2458  2.3498  1.0884
  168SOPE   C3618977   3.088   2.301   7.673  0.9308 -0.1820  0.4929
  168SOPE   H6X18978   3.162   2.220   7.656 -1.6464 -1.9629 -4.0832
  168SOPE   H6Y18979   2.987   2.253   7.676  1.1845 -0.6688  2.6599
  168SOPE   C3718980   3.122   2.384   7.804 -0.3390  0.1820 -0.8411
  168SOPE   H7X18981   3.061   2.475   7.822 -2.0476 -1.2206  0.8718
  168SOPE   H7Y18982   3.228   2.415   7.791  0.8130 -2.5709  1.1234
  168SOPE   C3818983   3.101   2.303   7.934 -0.6852 -0.5605  0.5997
  168SOPE   H8X18984   3.137   2.198   7.927  0.4201 -0.4829  3.6256
  168SOPE   H8Y18985   2.996   2.286   7.966 -0.4389 -1.8236  0.7939
  168SOPE   C3918986   3.153   2.384   8.051  0.2957 -0.7831  0.2042
  168SOPE   H9X18987   3.112   2.486   8.063  0.5153 -0.6368 -0.2532
  168SOPE   H9Y18988   3.257   2.414   8.026 -0.4208  1.2963 -0.4208
  168SOPE  C31018989   3.139   2.320   8.185  0.9822 -0.2544 -0.9623
  168SOPE  H10X18990   3.197   2.226   8.199 -2.3394 -2.3090  0.3862
  168SOPE  H10Y18991   3.033   2.291   8.201  0.7472  1.9492  2.6443
  168SOPE  C31118992   3.198   2.406   8.302 -0.0515  0.2928  0.0631
  168SOPE  H11X18993   3.152   2.507   8.303 -0.6264  0.0303  0.8332
  168SOPE  H11Y18994   3.306   2.420   8.284 -0.1843 -0.8869 -1.9131
  168SOPE  C31218995   3.191   2.339   8.438 -0.3453  0.5266 -0.6536
  168SOPE  H12X18996   3.226   2.234   8.428  2.4431  1.4435 -1.4569
  168SOPE  H12Y18997   3.085   2.328   8.470 -1.1822 -1.3321 -3.6482
  168SOPE  C31318998   3.262   2.407   8.551 -0.5811  0.1935  0.0364
  168SOPE  H13X18999   3.210   2.365   8.640  2.1484 -0.6282  1.3571
  168SOPE  H13Y19000   3.235   2.515   8.545 -1.1612  0.2680  2.6891
  168SOPE  C31419001   3.403   2.370   8.567 -0.1395 -0.0028 -0.5337
  168SOPE  H14X19002   3.461   2.395   8.475  0.2905  0.3844 -0.1654
  168SOPE  H14Y19003   3.415   2.262   8.588  3.2215  0.3810  0.1682
  168SOPE  C31519004   3.458   2.459   8.679 -0.0742  0.7359 -0.5999
  168SOPE  H15X19005   3.384   2.445   8.760  0.5022 -3.4202 -0.6144
  168SOPE  H15Y19006   3.482   2.561   8.640  2.3616  0.8353  1.0013
  168SOPE  C31619007   3.596   2.404   8.734  0.3491  0.2023  0.1165
  168SOPE  H16X19008   3.676   2.421   8.659  0.9061  0.8828  0.8437
  168SOPE  H16Y19009   3.587   2.295   8.754  0.7632 -0.1622 -1.5113
  168SOPE  C31719010   3.654   2.481   8.857 -0.2919  0.4088 -0.0189
  168SOPE  H17X19011   3.762   2.459   8.873  0.8201  4.5833 -0.6923
  168SOPE  H17Y19012   3.603   2.463   8.954  1.2987  1.6964  1.1135
  168SOPE  C31819013   3.658   2.635   8.848  0.5608  0.1649  0.2177
  168SOPE  H18X19014   3.719   2.678   8.766 -0.3769  3.7375  1.2228
  168SOPE  H18Y19015   3.709   2.660   8.944 -1.8591 -0.5514  1.7736
  168SOPE  H18Z19016   3.560   2.687   8.845  0.4580  0.0253  1.0708
  169SOPE     N19017   5.865   2.408   6.115 -0.2101  0.3848  0.1944
  169SOPE   HN119018   5.796   2.441   6.045 -1.2869  1.7392  1.8308
  169SOPE   HN219019   5.959   2.409   6.069 -0.6420  3.5742 -0.8082
  169SOPE   HN319020   5.849   2.311   6.150 -4.7214 -0.0618 -2.3658
  169SOPE   C1219021   5.880   2.497   6.238  0.1577 -0.2877  0.0329
  169SOPE  H12A19022   5.889   2.603   6.206  0.2392  0.1305  1.3892
  169SOPE  H12B19023   5.967   2.466   6.300  2.0886  1.7628 -1.4890
  169SOPE   C1119024   5.753   2.465   6.321  0.2221  0.5219  0.1475
  169SOPE  H11A19025   5.741   2.541   6.401 -2.1537  0.0415  0.3332
  169SOPE  H11B19026   5.755   2.365   6.370 -5.2813 -0.4222 -0.8431
  169SOPE     P19027   5.488   2.466   6.294 -0.0294  0.4597  0.7140
  169SOPE   O1319028   5.399   2.410   6.186  0.5257 -0.0353  0.6633
  169SOPE   O1419029   5.463   2.601   6.343  0.2344 -0.4744 -0.3404
  169SOPE   O1219030   5.635   2.464   6.240 -0.2970  0.1875 -0.4985
  169SOPE   O1119031   5.487   2.365   6.412  0.0088 -0.2492  0.1801
  169SOPE    C119032   5.507   2.224   6.395  0.5799 -0.1281 -0.2988
  169SOPE    HA19033   5.603   2.209   6.342  0.6856  0.1703 -0.1943
  169SOPE    HB19034   5.416   2.189   6.343  1.4978 -4.1490  0.4957
  169SOPE    C219035   5.516   2.150   6.536  0.2477 -0.0357  0.0405
  169SOPE    HS19036   5.540   2.048   6.497 -1.2295  0.4703 -2.4016
  169SOPE   O2119037   5.379   2.151   6.591 -0.1667  0.6707  0.8421
  169SOPE   C2119038   5.357   2.061   6.680 -0.1683  0.6828  0.4080
  169SOPE   O2219039   5.434   1.962   6.695  0.7636  0.3362 -0.1725
  169SOPE   C2219040   5.220   2.076   6.745  0.3543 -1.0419 -0.4191
  169SOPE   H2R19041   5.150   2.037   6.668  0.1799  0.4483 -1.0411
  169SOPE   H2S19042   5.203   2.185   6.757  3.3030 -0.3720 -1.4802
  169SOPE    C319043   5.632   2.197   6.630  0.2182  0.1950 -0.1113
  169SOPE    HX19044   5.721   2.240   6.580  0.7480 -0.0796  0.5726
  169SOPE    HY19045   5.666   2.106   6.685  3.4313  1.0870 -0.3969
  169SOPE   O3119046   5.584   2.292   6.729 -0.1152 -0.0259 -0.4209
  169SOPE   C3119047   5.628   2.411   6.725  0.1267 -0.2521 -0.5170
  169SOPE   O3219048   5.706   2.464   6.646  0.5253 -0.2906  0.5223
  169SOPE   C3219049   5.563   2.502   6.834  0.2332  0.4892  0.2004
  169SOPE   H2X19050   5.617   2.599   6.830  2.2093 -0.5783 -0.0583
  169SOPE   H2Y19051   5.577   2.452   6.932 -0.9124 -1.8389 -0.7537
  169SOPE   C2319052   5.203   2.010   6.886  0.3782  0.2332  0.2613
  169SOPE   H3R19053   5.242   1.907   6.872 -0.4170  0.0164 -0.4597
  169SOPE   H3S19054   5.094   2.004   6.907  0.0856  1.3886 -0.8380
  169SOPE   C2419055   5.281   2.085   6.986 -0.1134  0.1846 -0.0536
  169SOPE   H4R19056   5.390   2.066   6.977 -0.1263  0.1675 -0.1744
  169SOPE   H4S19057   5.266   2.193   6.968  1.3298  0.8036  2.0804
  169SOPE   C2519058   5.245   2.065   7.133 -0.6851  0.3236  0.0021
  169SOPE   H5R19059   5.135   2.056   7.134 -0.5396 -3.3239 -1.7989
  169SOPE   H5S19060   5.298   1.971   7.161 -0.6633  0.0466 -0.9297
  169SOPE   C2619061   5.290   2.170   7.232 -0.2762 -0.5730 -0.3079
  169SOPE   H6R19062   5.400   2.183   7.228 -0.5098  1.8194 -0.4457
  169SOPE   H6S19063   5.242   2.268   7.215  0.7550  0.3296  1.6615
  169SOPE   C2719064   5.258   2.118   7.378  0.4866 -0.2802  0.2173
  169SOPE   H7R19065   5.148   2.109   7.390  0.3807 -0.6809 -0.8990
  169SOPE   H7S19066   5.296   2.015   7.396 -0.4616 -0.6033  0.4667
  169SOPE   C2819067   5.310   2.207   7.496 -0.2310  0.0955 -0.0114
  169SOPE   H8R19068   5.286   2.314   7.483 -1.0178  0.0410  0.8976
  169SOPE   H8S19069   5.259   2.185   7.592  0.6513  1.4807  0.8213
  169SOPE   C2919070   5.461   2.181   7.514  0.7907 -0.2181 -0.1324
  169SOPE   H9119071   5.525   2.236   7.445 -1.4483  1.2560 -1.1498
  169SOPE  C21019072   5.524   2.108   7.608  0.0014  0.3290  0.7345
  169SOPE  H10119073   5.633   2.103   7.599 -0.0252 -1.2818  0.9646
  169SOPE  C21119074   5.462   2.026   7.719 -0.0343 -0.2689 -0.0175
  169SOPE  H11R19075   5.489   1.923   7.689 -1.7062 -0.6019 -0.4853
  169SOPE  H11S19076   5.352   2.036   7.719  0.1075  1.8526  0.7499
  169SOPE  C21219077   5.523   2.042   7.865 -0.4043  1.0111 -0.4154
  169SOPE  H12R19078   5.514   2.145   7.905  0.6629  0.5400  1.1293
  169SOPE  H12S19079   5.633   2.025   7.858 -0.6137 -0.2883 -0.8364
  169SOPE  C21319080   5.480   1.925   7.957 -0.1578 -0.0379  0.6806
  169SOPE  H13R19081   5.542   1.837   7.929 -1.1986  0.1511 -2.6845
  169SOPE  H13S19082   5.371   1.908   7.947 -0.2036 -0.4076  1.6840
  169SOPE  C21419083   5.508   1.955   8.107  0.4772  0.0201  0.6093
  169SOPE  H14R19084   5.449   2.047   8.129  0.7798  0.4835 -0.4208
  169SOPE  H14S19085   5.612   1.982   8.135  1.2456 -1.2205 -0.9003
  169SOPE  C21519086   5.467   1.827   8.193 -0.5193  0.3900  0.5974
  169SOPE  H15R19087   5.511   1.733   8.154 -1.1282  1.1036 -1.9857
  169SOPE  H15S19088   5.358   1.816   8.175 -0.0101 -3.0052 -1.3914
  169SOPE  C21619089   5.501   1.849   8.342  0.4317  0.2091 -0.1882
  169SOPE  H16R19090   5.507   1.957   8.365  0.5042  0.1557  0.0518
  169SOPE  H16S19091   5.607   1.817   8.350  0.2469 -0.9511 -1.7594
  169SOPE  C21719092   5.406   1.768   8.436  0.1711 -0.6751  0.5416
  169SOPE  H17R19093   5.440   1.663   8.422 -0.1482 -1.2555  3.5823
  169SOPE  H17S19094   5.298   1.788   8.417  0.5451  0.1253 -0.9678
  169SOPE  C21819095   5.432   1.805   8.586  0.5328  0.2974 -0.0558
  169SOPE  H18R19096   5.417   1.915   8.590 -1.0415  0.1199 -0.4970
  169SOPE  H18S19097   5.536   1.775   8.612  0.1731 -1.6939 -0.7614
  169SOPE  H18T19098   5.362   1.755   8.656  1.7691 -2.2722 -0.5443
  169SOPE   C3319099   5.415   2.507   6.802 -0.4858 -0.1574 -0.5739
  169SOPE   H3X19100   5.377   2.405   6.777 -2.2683  0.7320 -1.6640
  169SOPE   H3Y19101   5.392   2.566   6.711 -2.3348 -1.8602 -1.2866
  169SOPE   C3419102   5.327   2.551   6.921  0.0509 -0.0532 -0.1886
  169SOPE   H4X19103   5.355   2.500   7.016 -3.2153 -2.9049 -0.5923
  169SOPE   H4Y19104   5.219   2.525   6.912 -0.0108 -0.6152  1.6458
  169SOPE   C3519105   5.347   2.704   6.956  0.2863  0.6431 -0.3580
  169SOPE   H5X19106   5.294   2.758   6.875  1.4267 -0.6272 -2.0318
  169SOPE   H5Y19107   5.454   2.731   6.951  1.2552 -2.2980  1.5164
  169SOPE   C3619108   5.300   2.734   7.099 -0.2872 -0.1928  0.4739
  169SOPE   H6X19109   5.331   2.836   7.132 -1.6020  0.4614 -0.2083
  169SOPE   H6Y19110   5.356   2.659   7.159  1.7216  0.5766 -0.3478
  169SOPE   C3719111   5.153   2.705   7.140  0.0285  0.3832 -0.0089
  169SOPE   H7X19112   5.116   2.612   7.091  2.1923  0.7315 -2.5763
  169SOPE   H7Y19113   5.092   2.792   7.108 -0.2352  1.7632  3.7284
  169SOPE   C3819114   5.138   2.687   7.289  0.0890  0.3935  0.1890
  169SOPE   H8X19115   5.031   2.665   7.311 -0.1067 -1.2709 -2.0734
  169SOPE   H8Y19116   5.194   2.595   7.318  0.2761  1.0518  2.0742
  169SOPE   C3919117   5.202   2.790   7.381 -0.0801  0.1300  0.7095
  169SOPE   H9X19118   5.151   2.889   7.385  3.0288  1.9001  0.1764
  169SOPE   H9Y19119   5.304   2.815   7.343  0.1768 -0.4277  1.0183
  169SOPE  C31019120   5.235   2.743   7.528  0.2256  0.1296 -0.0378
  169SOPE  H10X19121   5.268   2.833   7.584  2.5581 -0.5621 -0.1947
  169SOPE  H10Y19122   5.302   2.655   7.517 -0.0113  0.1149 -1.6146
  169SOPE  C31119123   5.111   2.699   7.603 -0.0198 -0.2764  0.0943
  169SOPE  H11X19124   5.061   2.617   7.548 -1.4987  0.6598 -0.0094
  169SOPE  H11Y19125   5.041   2.782   7.626  2.3288  2.4386 -1.8189
  169SOPE  C31219126   5.161   2.637   7.735 -0.5599  0.0164  0.2797
  169SOPE  H12X19127   5.217   2.710   7.796 -0.4292  0.1694 -0.0220
  169SOPE  H12Y19128   5.238   2.558   7.718  0.1365  1.0536 -1.6400
  169SOPE  C31319129   5.058   2.573   7.828 -0.7480 -0.2699  0.3183
  169SOPE  H13X19130   5.035   2.471   7.790 -3.6788 -0.4281  2.1825
  169SOPE  H13Y19131   4.968   2.637   7.836  0.2393  1.0287  1.6464
  169SOPE  C31419132   5.120   2.564   7.974  0.1041  0.6545 -0.0181
  169SOPE  H14X19133   5.044   2.508   8.033 -0.2663  0.1737 -0.9234
  169SOPE  H14Y19134   5.150   2.666   8.005  1.2178  0.5558 -0.7133
  169SOPE  C31519135   5.250   2.471   7.983 -0.0109  0.4201  0.2947
  169SOPE  H15X19136   5.270   2.461   8.092  3.0586 -1.5643 -0.3520
  169SOPE  H15Y19137   5.333   2.526   7.934 -1.3567 -0.0314 -2.7334
  169SOPE  C31619138   5.245   2.330   7.917 -0.1937 -0.2409 -0.2381
  169SOPE  H16X19139   5.339   2.273   7.936 -1.1378 -1.7427  0.0407
  169SOPE  H16Y19140   5.223   2.337   7.809  1.4222  2.4991 -0.5083
  169SOPE  C31719141   5.143   2.228   7.973 -0.2935 -0.6235 -0.2953
  169SOPE  H17X19142   5.173   2.137   7.915  1.0609  0.8162 -1.9560
  169SOPE  H17Y19143   5.040   2.259   7.944 -1.4686 -1.2271  2.8070
  169SOPE  C31819144   5.152   2.209   8.125  0.4289  0.6599  0.5763
  169SOPE  H18X19145   5.070   2.142   8.159  1.8394 -0.9562  0.9302
  169SOPE  H18Y19146   5.125   2.305   8.175 -1.6617  0.9883 -1.0426
  169SOPE  H18Z19147   5.248   2.159   8.150  0.7684  1.2921  0.5689
  170SOPE     N19148   4.329   2.200   6.398 -0.1139 -0.5930  0.3843
  170SOPE   HN119149   4.320   2.299   6.426 -0.6961 -1.2660  2.7719
  170SOPE   HN219150   4.245   2.138   6.403 -0.1529 -0.6157 -0.3505
  170SOPE   HN319151   4.393   2.147   6.460 -1.6145 -0.6139  2.0021
  170SOPE   C1219152   4.386   2.186   6.262  0.2038  0.2375 -0.0954
  170SOPE  H12A19153   4.482   2.243   6.263 -0.7492  1.9072  1.0233
  170SOPE  H12B19154   4.308   2.219   6.189 -1.2136 -3.0554 -0.2281
  170SOPE   C1119155   4.406   2.039   6.245 -0.2022  0.1086  0.5371
  170SOPE  H11A19156   4.444   2.010   6.144 -3.2022 -3.0233  0.1354
  170SOPE  H11B19157   4.308   1.989   6.257 -0.4004  0.3151 -0.1224
  170SOPE     P19158   4.522   1.823   6.336 -0.0632 -0.8194  0.2625
  170SOPE   O1319159   4.571   1.801   6.198 -1.1260 -0.2048 -0.4527
  170SOPE   O1419160   4.398   1.752   6.379 -0.2456  0.0285  0.0589
  170SOPE   O1219161   4.496   1.981   6.345 -0.4685 -0.2691  0.3055
  170SOPE   O1119162   4.638   1.795   6.442  0.6295  0.1587  0.0942
  170SOPE    C119163   4.713   1.902   6.503  0.3057  0.4563  0.7153
  170SOPE    HA19164   4.646   1.987   6.525 -0.4435  0.2670 -0.7135
  170SOPE    HB19165   4.791   1.946   6.437 -0.5143 -0.7805 -1.1799
  170SOPE    C219166   4.770   1.850   6.637  0.0431 -0.3999 -0.5000
  170SOPE    HS19167   4.819   1.938   6.683  1.0420 -1.9090  1.4798
  170SOPE   O2119168   4.864   1.744   6.617 -0.3928 -0.3275 -0.4856
  170SOPE   C2119169   4.978   1.769   6.551  0.8855 -0.5949  0.3742
  170SOPE   O2219170   5.022   1.876   6.521 -0.2102 -0.3884  0.7901
  170SOPE   C2219171   5.065   1.642   6.536  0.5958 -0.8411  0.3772
  170SOPE   H2R19172   5.082   1.628   6.427  0.4069  2.4135 -0.1441
  170SOPE   H2S19173   5.008   1.554   6.574 -0.7619 -2.1606 -4.0554
  170SOPE    C319174   4.659   1.815   6.731 -0.1973  0.4775 -0.2064
  170SOPE    HX19175   4.608   1.724   6.694  0.7981 -0.0966 -0.2024
  170SOPE    HY19176   4.595   1.906   6.730 -0.4440  0.4813  3.1942
  170SOPE   O3119177   4.699   1.783   6.869  0.1627 -0.1406 -0.2009
  170SOPE   C3119178   4.755   1.882   6.937 -0.1210 -0.1475 -0.3012
  170SOPE   O3219179   4.792   1.990   6.896 -0.0890  0.0995 -0.0478
  170SOPE   C3219180   4.762   1.822   7.081 -0.2714  0.4444  0.2265
  170SOPE   H2X19181   4.833   1.736   7.080  0.3620  0.9493  0.8995
  170SOPE   H2Y19182   4.659   1.790   7.106 -0.3123 -0.1881 -0.7061
  170SOPE   C2319183   5.206   1.652   6.598  0.0714  0.6924 -0.3591
  170SOPE   H3R19184   5.252   1.751   6.615  2.3165 -0.0997 -1.4853
  170SOPE   H3S19185   5.280   1.602   6.532  0.2333  1.4428 -0.7491
  170SOPE   C2419186   5.198   1.582   6.733  0.3745  0.8977 -0.7658
  170SOPE   H4R19187   5.121   1.631   6.798  0.6830 -1.0835  1.2167
  170SOPE   H4S19188   5.172   1.474   6.735  1.8338  0.5039  1.4011
  170SOPE   C2519189   5.326   1.597   6.818  0.0320 -0.3855  0.0022
  170SOPE   H5R19190   5.412   1.577   6.751 -1.6875 -3.1304 -1.5818
  170SOPE   H5S19191   5.347   1.699   6.854  2.3054 -0.7224 -0.2402
  170SOPE   C2619192   5.342   1.492   6.928 -0.0194 -0.4777  0.0678
  170SOPE   H6R19193   5.322   1.391   6.886 -0.4481 -1.2643  2.0621
  170SOPE   H6S19194   5.443   1.505   6.970 -1.0054 -0.1339  2.4987
  170SOPE   C2719195   5.251   1.504   7.054  0.0476 -0.2387  0.2896
  170SOPE   H7R19196   5.148   1.531   7.022  1.2066  2.8423 -1.3108
  170SOPE   H7S19197   5.263   1.413   7.115  3.0813  0.1099  0.3804
  170SOPE   C2819198   5.280   1.625   7.145 -0.1934  0.0976 -0.7334
  170SOPE   H8R19199   5.385   1.610   7.178 -0.7339 -1.9563  0.1670
  170SOPE   H8S19200   5.293   1.721   7.090 -2.0654  1.8606  1.6800
  170SOPE   C2919201   5.180   1.668   7.252 -0.6760 -0.1459 -0.4790
  170SOPE   H9119202   5.081   1.691   7.212 -0.1432  0.8737 -1.2655
  170SOPE  C21019203   5.211   1.700   7.380 -0.2853  0.0226  0.0489
  170SOPE  H10119204   5.132   1.730   7.451 -0.2956 -0.1777  0.1228
  170SOPE  C21119205   5.346   1.698   7.435 -0.7500 -0.6661 -0.0914
  170SOPE  H11R19206   5.358   1.796   7.486 -3.0317 -0.3575 -0.0514
  170SOPE  H11S19207   5.428   1.685   7.362 -1.1384 -1.2185 -0.4384
  170SOPE  C21219208   5.358   1.589   7.542  0.2440 -0.3007  0.5433
  170SOPE  H12R19209   5.463   1.597   7.578 -0.3762 -2.1321  3.0474
  170SOPE  H12S19210   5.341   1.487   7.502  0.9551 -0.6555  1.1189
  170SOPE  C21319211   5.263   1.606   7.664  0.1315 -0.5206 -0.1826
  170SOPE  H13R19212   5.157   1.591   7.634 -0.8629  0.8495  2.3445
  170SOPE  H13S19213   5.291   1.707   7.700 -0.6348 -0.5335  0.4664
  170SOPE  C21419214   5.305   1.494   7.764  0.0539 -0.5096 -0.4423
  170SOPE  H14R19215   5.349   1.411   7.705  4.6034  1.9407 -0.8638
  170SOPE  H14S19216   5.215   1.476   7.828 -0.4592 -0.0536 -1.0155
  170SOPE  C21519217   5.417   1.527   7.866 -0.2045 -0.0848  0.3915
  170SOPE  H15R19218   5.386   1.604   7.940 -0.7078 -1.0220  1.1811
  170SOPE  H15S19219   5.502   1.571   7.810 -0.6656 -2.2078 -2.1582
  170SOPE  C21619220   5.474   1.404   7.937  0.9374  0.0363  0.2463
  170SOPE  H16R19221   5.568   1.443   7.981  1.2263  0.4105 -0.6728
  170SOPE  H16S19222   5.512   1.327   7.867 -0.7648  0.6946 -1.4998
  170SOPE  C21719223   5.379   1.342   8.042 -0.3497  0.0429  0.0776
  170SOPE  H17R19224   5.420   1.246   8.081 -1.1811  0.1223  1.2079
  170SOPE  H17S19225   5.281   1.320   7.994 -1.3589  0.0497  2.0506
  170SOPE  C21819226   5.358   1.444   8.153 -0.5969  0.2981  0.0906
  170SOPE  H18R19227   5.310   1.537   8.116 -0.2167 -0.3711 -2.2817
  170SOPE  H18S19228   5.458   1.487   8.178  0.5297 -0.1026 -3.1962
  170SOPE  H18T19229   5.327   1.407   8.253  1.9986  0.1026  0.9200
  170SOPE   C3319230   4.805   1.926   7.175 -0.6281  0.1153 -0.4492
  170SOPE   H3X19231   4.744   2.018   7.172  0.7423  1.0342 -1.0700
  170SOPE   H3Y19232   4.909   1.964   7.162  0.2056 -1.3916  1.2541
  170SOPE   C3419233   4.809   1.860   7.316  0.1032 -0.4141 -0.2374
  170SOPE   H4X19234   4.878   1.773   7.321 -0.5462 -0.9271 -0.0290
  170SOPE   H4Y19235   4.705   1.821   7.329 -0.0550  0.0280 -0.1768
  170SOPE   C3519236   4.843   1.969   7.417  0.1751 -0.0391 -0.0261
  170SOPE   H5X19237   4.766   2.049   7.417  0.8830  0.6910  1.4093
  170SOPE   H5Y19238   4.939   2.019   7.394  0.5081 -0.9822 -0.7106
  170SOPE   C3619239   4.859   1.907   7.555  0.1151  0.3317 -0.7498
  170SOPE   H6X19240   4.939   1.830   7.554 -1.2541 -1.2176  1.1723
  170SOPE   H6Y19241   4.765   1.861   7.593 -0.9113  3.7050  1.2500
  170SOPE   C3719242   4.886   2.018   7.656 -0.1148 -0.6622  0.1593
  170SOPE   H7X19243   4.827   2.110   7.635 -1.2032 -0.7239  2.5653
  170SOPE   H7Y19244   4.997   2.027   7.661  0.2320 -3.9992  1.8844
  170SOPE   C3819245   4.857   1.993   7.806  0.0104 -0.4794 -0.2603
  170SOPE   H8X19246   4.750   1.965   7.808  0.4457 -2.2526  0.1905
  170SOPE   H8Y19247   4.865   2.090   7.859  0.8709 -0.0916 -1.0635
  170SOPE   C3919248   4.949   1.887   7.864 -0.2483  0.0570  0.3270
  170SOPE   H9X19249   5.053   1.926   7.871 -0.3395  0.0265  2.3705
  170SOPE   H9Y19250   4.947   1.799   7.795 -2.1441  0.4938 -0.2326
  170SOPE  C31019251   4.930   1.846   8.008  0.7519  0.3514  0.5103
  170SOPE  H10X19252   4.864   1.758   8.023  1.8980 -0.9201 -1.4601
  170SOPE  H10Y19253   4.870   1.932   8.046 -1.1293  0.0492 -1.5854
  170SOPE  C31119254   5.061   1.817   8.083 -0.2672  0.0553 -0.7986
  170SOPE  H11X19255   5.114   1.915   8.087  3.3802 -1.7903 -0.1731
  170SOPE  H11Y19256   5.120   1.743   8.026 -0.5039 -0.4819 -0.3536
  170SOPE  C31219257   5.037   1.774   8.231  0.4432 -0.3553 -0.0355
  170SOPE  H12X19258   5.116   1.704   8.268  1.2659  0.5922  0.0499
  170SOPE  H12Y19259   4.941   1.719   8.224 -1.5102  2.9530 -1.2375
  170SOPE  C31319260   5.019   1.893   8.324 -0.0922  0.1830  0.2709
  170SOPE  H13X19261   4.969   1.980   8.276  0.6948  0.8309  0.6069
  170SOPE  H13Y19262   5.122   1.923   8.352  0.5777 -0.2775 -1.5484
  170SOPE  C31419263   4.949   1.865   8.460  0.0504 -0.4826  0.2247
  170SOPE  H14X19264   4.841   1.848   8.444 -0.2825  2.5166 -1.5795
  170SOPE  H14Y19265   4.952   1.966   8.506 -1.3580  0.1133 -0.9092
  170SOPE  C31519266   5.029   1.761   8.551 -0.0521  0.3713 -0.8016
  170SOPE  H15X19267   5.131   1.795   8.579 -0.4319  0.1288  1.0377
  170SOPE  H15Y19268   5.023   1.656   8.516 -1.0021 -1.2211  3.4525
  170SOPE  C31619269   4.970   1.741   8.692  0.1539 -0.4259 -0.4485
  170SOPE  H16X19270   4.859   1.747   8.688  0.2027  0.8252 -0.3675
  170SOPE  H16Y19271   5.015   1.822   8.754  0.7812  0.6981 -2.2856
  170SOPE  C31719272   5.014   1.605   8.744  0.3960  0.3135 -0.7005
  170SOPE  H17X19273   4.995   1.597   8.853  1.5715 -1.8807 -0.6041
  170SOPE  H17Y19274   5.125   1.601   8.734  0.5419  0.8019  0.4775
  170SOPE  C31819275   4.938   1.475   8.697  0.4351 -0.2133 -0.0312
  170SOPE  H18X19276   4.968   1.387   8.758 -0.9603 -1.0294 -0.4755
  170SOPE  H18Y19277   4.963   1.455   8.590  3.8087 -1.4989  0.8802
  170SOPE  H18Z19278   4.829   1.494   8.704  0.5366  0.2632  0.3007
  171SOPE     N19279   0.616   4.124   6.336  0.0551  0.2418  0.3189
  171SOPE   HN119280   0.547   4.051   6.363  0.2434  0.0408  0.2645
  171SOPE   HN219281   0.680   4.139   6.416 -0.8191 -1.3214  1.3611
  171SOPE   HN319282   0.560   4.209   6.314 -1.4559 -0.5791  0.8086
  171SOPE   C1219283   0.695   4.081   6.219  0.8510  0.1043  0.0956
  171SOPE  H12A19284   0.745   4.173   6.182 -1.0269  1.4697  0.7919
  171SOPE  H12B19285   0.623   4.048   6.141  2.1906 -1.3175 -0.5978
  171SOPE   C1119286   0.794   3.967   6.254 -0.5609  0.4995  0.4154
  171SOPE  H11A19287   0.860   3.987   6.341 -1.2431  0.2047  1.0171
  171SOPE  H11B19288   0.849   3.954   6.158  0.6712  0.9075  1.0437
  171SOPE     P19289   0.763   3.705   6.243  0.7123 -0.3356 -0.4913
  171SOPE   O1319290   0.903   3.674   6.278 -0.5288 -0.9634  0.6487
  171SOPE   O1419291   0.727   3.691   6.102  0.0585  0.2292  0.0293
  171SOPE   O1219292   0.722   3.850   6.286 -0.5174 -0.0977 -0.5825
  171SOPE   O1119293   0.656   3.616   6.318  0.0125 -0.0907  0.0838
  171SOPE    C119294   0.599   3.655   6.447 -0.1021 -0.2283 -0.3577
  171SOPE    HA19295   0.489   3.643   6.441 -0.2516  0.6763  0.3975
  171SOPE    HB19296   0.609   3.760   6.482 -0.8010  0.2013 -1.3618
  171SOPE    C219297   0.626   3.564   6.570 -0.5244 -0.0477 -0.6555
  171SOPE    HS19298   0.721   3.608   6.609 -0.7103 -1.1745  1.1664
  171SOPE   O2119299   0.647   3.427   6.533  0.1063 -0.0182 -0.4956
  171SOPE   C2119300   0.777   3.410   6.490  0.2412 -0.1778  0.4844
  171SOPE   O2219301   0.863   3.494   6.490  0.3425 -0.5739 -0.0106
  171SOPE   C2219302   0.803   3.267   6.432  0.1003  0.2100 -0.1724
  171SOPE   H2R19303   0.885   3.265   6.357  1.8344  0.2361  1.6537
  171SOPE   H2S19304   0.710   3.229   6.385 -0.7004 -0.3874  1.8080
  171SOPE    C319305   0.522   3.599   6.677 -0.0518 -0.3580 -0.3460
  171SOPE    HX19306   0.425   3.565   6.634  0.1480  0.5135 -1.5387
  171SOPE    HY19307   0.514   3.709   6.692 -0.1349 -0.1163 -2.0689
  171SOPE   O3119308   0.555   3.539   6.802  0.6702  0.0699 -0.0819
  171SOPE   C3119309   0.511   3.408   6.814 -0.0691 -0.1230  0.7874
  171SOPE   O3219310   0.424   3.357   6.741 -0.4225  0.0542 -0.5061
  171SOPE   C3219311   0.595   3.341   6.921  0.9269 -0.1591  0.1485
  171SOPE   H2X19312   0.700   3.377   6.914  1.8313 -2.7177 -0.4657
  171SOPE   H2Y19313   0.588   3.232   6.904  1.3531 -0.0588 -0.7019
  171SOPE   C2319314   0.834   3.169   6.549 -0.0940  0.1209  0.0567
  171SOPE   H3R19315   0.928   3.194   6.604  0.2172  0.0277 -0.4263
  171SOPE   H3S19316   0.843   3.071   6.497  0.0434 -1.2906  2.5688
  171SOPE   C2419317   0.714   3.153   6.643  0.5684  0.2553  0.5794
  171SOPE   H4R19318   0.699   3.244   6.704  0.8235  0.5701  0.1738
  171SOPE   H4S19319   0.622   3.156   6.580  1.7571 -0.5846 -1.2934
  171SOPE   C2519320   0.718   3.031   6.731 -0.3615  0.2562 -0.6008
  171SOPE   H5R19321   0.634   3.036   6.804 -1.4921  0.6636 -1.8686
  171SOPE   H5S19322   0.718   2.938   6.670  3.2436 -1.4472  1.6721
  171SOPE   C2619323   0.840   3.040   6.821  0.1413  0.4321  0.7467
  171SOPE   H6R19324   0.929   3.033   6.755  0.8155  2.6856  1.3101
  171SOPE   H6S19325   0.834   3.139   6.872 -1.4905  1.2496 -0.9350
  171SOPE   C2719326   0.838   2.926   6.925 -0.0851 -0.8476  0.0568
  171SOPE   H7R19327   0.747   2.945   6.987 -1.2720 -1.5264 -1.4107
  171SOPE   H7S19328   0.821   2.831   6.870 -3.2388 -0.2432 -0.2506
  171SOPE   C2819329   0.962   2.919   7.021 -0.3887 -1.0648 -0.2651
  171SOPE   H8R19330   0.936   2.846   7.101 -1.3646  0.9277  1.3359
  171SOPE   H8S19331   1.056   2.879   6.977  1.4569 -0.8585  3.1380
  171SOPE   C2919332   1.001   3.049   7.086 -0.6377 -0.1264 -0.3191
  171SOPE   H9119333   1.064   3.114   7.023 -0.4297 -2.4694 -2.7398
  171SOPE  C21019334   0.962   3.089   7.205 -0.3280  0.3173 -0.1375
  171SOPE  H10119335   1.006   3.186   7.235 -0.8650  0.4929  0.1117
  171SOPE  C21119336   0.872   3.019   7.307 -0.4016 -0.2444  0.4866
  171SOPE  H11R19337   0.816   2.940   7.253  2.6423 -2.2889  0.0121
  171SOPE  H11S19338   0.797   3.091   7.346 -0.7368 -0.6453  0.5841
  171SOPE  C21219339   0.938   2.957   7.430 -0.3995  0.2655 -0.2805
  171SOPE  H12R19340   1.022   2.885   7.422 -1.4780 -1.1568  0.6051
  171SOPE  H12S19341   0.860   2.896   7.480  0.2995 -1.2853 -1.0214
  171SOPE  C21319342   0.993   3.059   7.530  0.0520 -0.8764  0.3201
  171SOPE  H13R19343   0.926   3.148   7.534  0.4933 -0.5506  0.4837
  171SOPE  H13S19344   1.086   3.098   7.484  1.4355 -2.3705  1.7293
  171SOPE  C21419345   1.027   3.002   7.665 -0.2781  0.1909  0.3696
  171SOPE  H14R19346   1.122   2.945   7.653 -0.7305 -1.0043  2.1390
  171SOPE  H14S19347   0.959   2.921   7.700  0.0648  0.0128  0.6372
  171SOPE  C21519348   1.023   3.107   7.775 -0.0593  0.1398 -0.4529
  171SOPE  H15R19349   0.921   3.151   7.771 -0.2560 -0.4040 -2.1173
  171SOPE  H15S19350   1.083   3.193   7.737 -1.2146  0.3280 -1.9334
  171SOPE  C21619351   1.055   3.048   7.914 -0.6462  0.3460 -0.5976
  171SOPE  H16R19352   1.154   3.000   7.896 -0.7167 -0.1213  0.1887
  171SOPE  H16S19353   0.989   2.960   7.930  1.0613 -0.8774  0.1032
  171SOPE  C21719354   1.053   3.140   8.037 -1.2286  0.4713 -0.0295
  171SOPE  H17R19355   1.080   3.248   8.024 -1.2814  0.9540  3.2405
  171SOPE  H17S19356   1.118   3.097   8.115 -2.2252 -0.8234  0.1203
  171SOPE  C21819357   0.908   3.147   8.090  0.5242 -0.7143 -0.4708
  171SOPE  H18R19358   0.826   3.125   8.018 -0.0637 -0.5147  0.1222
  171SOPE  H18S19359   0.886   3.244   8.139 -0.1105 -0.6725 -0.8215
  171SOPE  H18T19360   0.900   3.064   8.163 -0.3849  0.7685  1.2009
  171SOPE   C3319361   0.523   3.380   7.063 -0.1988  0.4424 -0.2674
  171SOPE   H3X19362   0.420   3.343   7.076  0.6256 -1.1130  2.6467
  171SOPE   H3Y19363   0.525   3.491   7.068  2.5737  0.5172 -1.0171
  171SOPE   C3419364   0.600   3.301   7.169 -0.4312  0.1948  0.1429
  171SOPE   H4X19365   0.704   3.334   7.188  0.3713 -2.1660  0.1878
  171SOPE   H4Y19366   0.610   3.195   7.135  0.9999 -0.0067  1.0929
  171SOPE   C3519367   0.534   3.297   7.305 -0.0420 -0.6724 -0.4234
  171SOPE   H5X19368   0.554   3.205   7.364 -2.0417 -0.9263 -0.0573
  171SOPE   H5Y19369   0.424   3.314   7.302  0.1396  0.4824 -0.7186
  171SOPE   C3619370   0.569   3.421   7.388 -0.2306  0.0640  0.3366
  171SOPE   H6X19371   0.547   3.507   7.320  0.6812 -0.7280 -1.0133
  171SOPE   H6Y19372   0.678   3.428   7.410  0.0732 -0.8440 -0.7450
  171SOPE   C3719373   0.504   3.433   7.520 -0.2340 -0.5322 -0.5068
  171SOPE   H7X19374   0.402   3.392   7.505  0.7228 -2.4096 -2.3424
  171SOPE   H7Y19375   0.503   3.543   7.537 -1.8409 -0.4819 -0.7742
  171SOPE   C3819376   0.573   3.375   7.644 -0.1168 -0.3704  0.0814
  171SOPE   H8X19377   0.670   3.427   7.657  0.3076 -1.3424  0.9152
  171SOPE   H8Y19378   0.594   3.267   7.627  0.2634 -0.6646  2.1448
  171SOPE   C3919379   0.481   3.389   7.762  0.1031  0.5065  0.0931
  171SOPE   H9X19380   0.375   3.372   7.734  0.2220 -0.2581  0.0834
  171SOPE   H9Y19381   0.492   3.490   7.808  0.0170  0.5824 -0.0557
  171SOPE  C31019382   0.510   3.283   7.876 -0.3468  0.2975 -0.2635
  171SOPE  H10X19383   0.614   3.307   7.905 -0.8367  1.3024  0.7047
  171SOPE  H10Y19384   0.493   3.182   7.832  3.2148 -0.0805 -1.0852
  171SOPE  C31119385   0.417   3.291   7.998 -0.6464 -0.1819 -0.4328
  171SOPE  H11X19386   0.433   3.198   8.056 -0.1438  0.8202  1.0866
  171SOPE  H11Y19387   0.316   3.280   7.953 -0.8942  3.0164 -0.8829
  171SOPE  C31219388   0.430   3.415   8.079 -0.0708  0.1074 -0.3476
  171SOPE  H12X19389   0.420   3.512   8.026 -0.1200 -0.8127 -2.1249
  171SOPE  H12Y19390   0.532   3.424   8.120 -0.9219 -0.5691  2.0667
  171SOPE  C31319391   0.340   3.418   8.205  0.3607  0.7454 -0.4204
  171SOPE  H13X19392   0.386   3.348   8.278  1.3257  1.5285 -0.2447
  171SOPE  H13Y19393   0.244   3.373   8.172  1.0212 -0.4182 -0.8076
  171SOPE  C31419394   0.318   3.561   8.252 -0.4771  0.4654  0.9695
  171SOPE  H14X19395   0.273   3.624   8.172  0.8036  0.6820  0.3995
  171SOPE  H14Y19396   0.414   3.605   8.284 -0.5882  3.1515 -1.8584
  171SOPE  C31519397   0.216   3.584   8.364 -0.6818 -0.4405 -0.4568
  171SOPE  H15X19398   0.130   3.514   8.358 -0.4981 -0.8035  0.8594
  171SOPE  H15Y19399   0.160   3.680   8.362 -1.2940 -0.5681  3.2276
  171SOPE  C31619400   0.276   3.563   8.506 -0.2035  0.0897 -0.0320
  171SOPE  H16X19401   0.348   3.478   8.505  1.1594  1.2003  0.1909
  171SOPE  H16Y19402   0.198   3.557   8.584 -0.4098  3.3649  0.1213
  171SOPE  C31719403   0.356   3.692   8.552 -0.1189 -0.6251 -0.6320
  171SOPE  H17X19404   0.319   3.707   8.655  0.2261 -1.2058 -0.4177
  171SOPE  H17Y19405   0.321   3.775   8.486  0.0716  0.5240  0.6669
  171SOPE  C31819406   0.505   3.669   8.556 -0.0858  0.2755 -0.1766
  171SOPE  H18X19407   0.551   3.634   8.462  0.8062  1.4953 -0.2216
  171SOPE  H18Y19408   0.521   3.577   8.616 -0.6776 -0.1002 -0.5803
  171SOPE  H18Z19409   0.567   3.750   8.600  1.2531 -0.8017 -0.0050
  172SOPE     N19410   1.651   4.868   5.822 -0.8780  0.3997  0.2577
  172SOPE   HN119411   1.617   4.891   5.727  1.8558 -3.0678 -1.7913
  172SOPE   HN219412   1.754   4.877   5.808 -1.0117 -1.2797 -2.3912
  172SOPE   HN319413   1.624   4.771   5.848 -0.2013 -0.0122 -0.5542
  172SOPE   C1219414   1.606   4.975   5.915  0.1884 -0.4481  0.2548
  172SOPE  H12A19415   1.495   4.981   5.910  0.2246  1.8375  0.8895
  172SOPE  H12B19416   1.643   5.070   5.870  1.5206 -1.4205 -0.7735
  172SOPE   C1119417   1.658   4.954   6.057  0.5384  0.1081  0.6075
  172SOPE  H11A19418   1.652   5.043   6.124 -0.8044  0.6819 -0.2274
  172SOPE  H11B19419   1.765   4.936   6.035 -0.0679 -2.8138 -0.3840
  172SOPE     P19420   1.444   4.846   6.176 -0.2556  0.2640 -0.0449
  172SOPE   O1319421   1.383   4.715   6.155 -0.3461  0.0733 -0.0566
  172SOPE   O1419422   1.372   4.969   6.123 -0.3063  0.7071  0.1484
  172SOPE   O1219423   1.594   4.841   6.119 -0.2415  0.0986 -0.0558
  172SOPE   O1119424   1.479   4.862   6.330  0.2600 -0.4911  0.3421
  172SOPE    C119425   1.556   4.774   6.405  0.2544 -0.0457  0.1464
  172SOPE    HA19426   1.548   4.671   6.366  1.4524  0.6673 -2.1973
  172SOPE    HB19427   1.513   4.770   6.507 -1.3285  1.5798 -0.3949
  172SOPE    C219428   1.707   4.816   6.416 -0.0302 -0.4032 -0.0371
  172SOPE    HS19429   1.760   4.806   6.319 -0.5698 -1.0243 -0.2775
  172SOPE   O2119430   1.771   4.727   6.508 -0.3022  0.2302  0.4381
  172SOPE   C2119431   1.902   4.734   6.507 -0.0547  0.0820  0.2476
  172SOPE   O2219432   1.975   4.808   6.442  0.0506 -0.0236 -0.1825
  172SOPE   C2219433   1.958   4.632   6.613  0.0269  0.2179  0.2508
  172SOPE   H2R19434   2.058   4.668   6.646  0.0063 -0.5291  1.1787
  172SOPE   H2S19435   1.972   4.539   6.553 -2.2654 -1.0982  1.6156
  172SOPE    C319436   1.712   4.973   6.457  0.6493 -0.9850  0.5671
  172SOPE    HX19437   1.698   5.039   6.369  1.1528  1.7898  2.4467
  172SOPE    HY19438   1.821   4.991   6.471  0.2785  0.5603  1.6798
  172SOPE   O3119439   1.627   5.013   6.570 -0.5412 -0.0860  0.2281
  172SOPE   C3119440   1.684   5.007   6.690 -0.9069  0.1398 -0.6747
  172SOPE   O3219441   1.807   4.976   6.706  0.2097 -0.0993  0.7158
  172SOPE   C3219442   1.592   5.033   6.805 -0.3751  0.0348 -0.2279
  172SOPE   H2X19443   1.611   4.951   6.877  0.2040 -1.3822 -1.9309
  172SOPE   H2Y19444   1.482   5.034   6.790 -1.0511  1.6944  3.6395
  172SOPE   C2319445   1.881   4.590   6.738  0.2026  0.1713 -0.8985
  172SOPE   H3R19446   1.928   4.498   6.778 -0.0136  0.9716  1.3631
  172SOPE   H3S19447   1.775   4.566   6.716 -0.5548  0.4393  2.0052
  172SOPE   C2419448   1.884   4.690   6.848  0.3437 -0.1753  0.3289
  172SOPE   H4R19449   1.977   4.749   6.851  0.2872  0.1149 -1.7165
  172SOPE   H4S19450   1.809   4.771   6.837  2.0302  1.3956  0.0435
  172SOPE   C2519451   1.865   4.609   6.980  0.6508  0.0484  0.3954
  172SOPE   H5R19452   1.786   4.532   6.969 -0.7113  1.4563 -0.0772
  172SOPE   H5S19453   1.955   4.550   7.004  0.8076  0.0589 -0.1455
  172SOPE   C2619454   1.844   4.696   7.103 -0.2157 -0.4494  0.5202
  172SOPE   H6R19455   1.933   4.762   7.111 -1.6390  1.7076 -0.4807
  172SOPE   H6S19456   1.759   4.760   7.073  1.4169  1.2384 -0.7541
  172SOPE   C2719457   1.818   4.632   7.239 -0.7315 -0.1963 -0.8591
  172SOPE   H7R19458   1.739   4.555   7.233 -0.7402 -0.2501 -0.1755
  172SOPE   H7S19459   1.918   4.588   7.259 -0.5277  0.7150  0.2423
  172SOPE   C2819460   1.793   4.733   7.348 -0.0528 -0.4390 -0.5133
  172SOPE   H8R19461   1.864   4.816   7.325 -1.5458  0.6646 -1.3128
  172SOPE   H8S19462   1.698   4.790   7.347 -0.6996 -1.5075 -1.7612
  172SOPE   C2919463   1.829   4.680   7.482  0.0493  0.1082  0.2102
  172SOPE   H9119464   1.930   4.636   7.494 -0.4134 -1.0751 -0.0860
  172SOPE  C21019465   1.742   4.659   7.583 -0.6881 -0.0587 -0.4340
  172SOPE  H10119466   1.774   4.626   7.684 -0.7376  0.8573 -0.1157
  172SOPE  C21119467   1.596   4.687   7.579  0.4473 -0.1765 -0.7754
  172SOPE  H11R19468   1.537   4.593   7.574  0.7489 -0.3307 -1.5423
  172SOPE  H11S19469   1.583   4.737   7.481  1.5886 -0.6442 -1.1777
  172SOPE  C21219470   1.544   4.771   7.701  0.1996  0.3924  0.3165
  172SOPE  H12R19471   1.445   4.817   7.680  0.4385 -0.0034 -1.9009
  172SOPE  H12S19472   1.617   4.853   7.716 -0.0521  0.9810 -1.3559
  172SOPE  C21319473   1.525   4.684   7.832 -0.1313 -0.2845  0.2086
  172SOPE  H13R19474   1.621   4.634   7.857  0.2564  0.9326  1.2546
  172SOPE  H13S19475   1.442   4.613   7.816  0.1480 -0.0856 -2.7057
  172SOPE  C21419476   1.485   4.759   7.958  0.2145 -0.0104 -0.5056
  172SOPE  H14R19477   1.375   4.773   7.953  0.1794 -0.2752 -0.4808
  172SOPE  H14S19478   1.538   4.857   7.956  1.1871 -0.4068  2.0730
  172SOPE  C21519479   1.521   4.679   8.080  0.5574 -0.2098 -0.0385
  172SOPE  H15R19480   1.629   4.655   8.080  0.4916 -0.6416  1.7906
  172SOPE  H15S19481   1.464   4.584   8.064 -1.0894  0.7873 -0.3014
  172SOPE  C21619482   1.484   4.735   8.216  0.2083 -0.6221 -0.2821
  172SOPE  H16R19483   1.524   4.838   8.228  0.0494 -0.7320  1.4082
  172SOPE  H16S19484   1.542   4.676   8.290 -0.1403  1.4241  1.7450
  172SOPE  C21719485   1.342   4.742   8.272  0.1775 -0.1646  0.1235
  172SOPE  H17R19486   1.292   4.648   8.243 -0.2961  0.6998 -2.0162
  172SOPE  H17S19487   1.292   4.824   8.217 -1.7543 -0.1108  1.8377
  172SOPE  C21819488   1.330   4.772   8.416  0.1186  0.0007  0.5176
  172SOPE  H18R19489   1.342   4.676   8.472 -0.5810 -0.5118 -0.1819
  172SOPE  H18S19490   1.226   4.804   8.439 -0.1936 -1.1764  0.8416
  172SOPE  H18T19491   1.403   4.845   8.456 -0.3580  0.4713  0.5413
  172SOPE   C3319492   1.628   5.171   6.887  0.1859  0.3441 -0.2188
  172SOPE   H3X19493   1.546   5.237   6.850 -0.8792 -0.3735  0.7886
  172SOPE   H3Y19494   1.729   5.208   6.857  0.2168 -0.8446 -1.7036
  172SOPE   C3419495   1.628   5.146   7.041  0.3624 -0.3931 -0.0398
  172SOPE   H4X19496   1.561   5.063   7.072 -0.7254  0.5489  0.1876
  172SOPE   H4Y19497   1.596   5.242   7.087 -0.6394 -1.3912  1.3960
  172SOPE   C3519498   1.765   5.120   7.110 -0.4950 -0.0567 -0.7251
  172SOPE   H5X19499   1.841   5.199   7.094  0.8338 -0.6010  2.2269
  172SOPE   H5Y19500   1.809   5.024   7.076  0.0834  0.2803 -0.9422
  172SOPE   C3619501   1.740   5.111   7.266 -0.0973  0.3691 -0.1874
  172SOPE   H6X19502   1.686   5.016   7.286  0.1245  0.2281 -0.2598
  172SOPE   H6Y19503   1.678   5.199   7.296  2.7197  2.6955 -0.7631
  172SOPE   C3719504   1.873   5.109   7.337 -0.5278  0.0335 -0.3531
  172SOPE   H7X19505   1.926   5.206   7.324  1.0023 -0.7228  0.0519
  172SOPE   H7Y19506   1.942   5.033   7.295  0.1148 -0.6083  1.7609
  172SOPE   C3819507   1.871   5.074   7.488 -0.1308 -0.2379  0.3984
  172SOPE   H8X19508   1.797   4.994   7.509 -0.9742 -0.2372 -2.1819
  172SOPE   H8Y19509   1.831   5.166   7.536 -2.1356 -0.6049 -0.4668
  172SOPE   C3919510   2.007   5.058   7.561 -0.4590 -0.0592  0.0588
  172SOPE   H9X19511   2.066   5.145   7.523 -1.6641  0.4906 -0.6017
  172SOPE   H9Y19512   2.068   4.975   7.521  3.2416  2.1443  0.6423
  172SOPE  C31019513   2.003   5.048   7.713  0.5909  0.1677 -0.1027
  172SOPE  H10X19514   1.932   5.125   7.749  0.3580 -0.3292  0.5176
  172SOPE  H10Y19515   2.110   5.050   7.744  1.6849 -1.6795 -3.3482
  172SOPE  C31119516   1.952   4.912   7.746 -0.2819 -0.1668 -0.5632
  172SOPE  H11X19517   2.007   4.827   7.700 -2.2051 -1.3868 -0.7284
  172SOPE  H11Y19518   1.845   4.919   7.717  0.1678  1.3009 -1.9674
  172SOPE  C31219519   1.967   4.891   7.896 -0.1848 -0.7804 -0.5342
  172SOPE  H12X19520   1.919   4.976   7.948  0.5744  0.4462 -1.7706
  172SOPE  H12Y19521   2.076   4.902   7.914 -0.4783  1.4881  0.0815
  172SOPE  C31319522   1.921   4.744   7.938 -0.0933 -0.4070 -0.3521
  172SOPE  H13X19523   1.974   4.673   7.870  0.9283 -2.3609  2.3089
  172SOPE  H13Y19524   1.813   4.733   7.913 -0.0225 -1.4431 -0.2683
  172SOPE  C31419525   1.954   4.697   8.088  0.7832  0.1754  0.0287
  172SOPE  H14X19526   1.900   4.604   8.112  0.8754  0.4190  1.2805
  172SOPE  H14Y19527   1.912   4.780   8.149 -1.9970 -0.3611 -1.0536
  172SOPE  C31519528   2.100   4.679   8.128 -0.3166 -0.2878  0.0919
  172SOPE  H15X19529   2.145   4.779   8.109 -1.2211  0.0175 -0.5032
  172SOPE  H15Y19530   2.140   4.603   8.058 -2.0485 -0.4441 -0.7752
  172SOPE  C31619531   2.127   4.628   8.275 -0.7376 -0.3154 -0.5905
  172SOPE  H16X19532   2.055   4.545   8.291  0.4750 -1.2028  0.4454
  172SOPE  H16Y19533   2.124   4.711   8.350 -2.2753 -1.6670  0.9402
  172SOPE  C31719534   2.266   4.564   8.292  0.6371  0.3387 -0.0771
  172SOPE  H17X19535   2.344   4.638   8.266  1.5920 -0.4577  0.4465
  172SOPE  H17Y19536   2.268   4.489   8.210 -2.4382 -0.5674  0.5553
  172SOPE  C31819537   2.308   4.493   8.423  0.0737 -0.0680  0.2064
  172SOPE  H18X19538   2.325   4.568   8.503 -0.9607 -0.1213  0.4925
  172SOPE  H18Y19539   2.395   4.425   8.415  0.6474  0.7541 -0.9372
  172SOPE  H18Z19540   2.217   4.443   8.463 -1.9047  0.8013 -2.8098
  173SAPI   C1219541   3.163   1.210  10.992  0.0392  0.0155  0.3767
  173SAPI    H219542   3.142   1.148  10.901  0.6184  0.0820  0.1966
  173SAPI    O219543   3.100   1.336  10.966 -0.4310  0.3434 -0.3204
  173SAPI   HO219544   3.101   1.354  10.872 -4.6189 -1.3360 -0.9068
  173SAPI   C1319545   3.086   1.148  11.113  0.5391 -0.2656  0.3687
  173SAPI    H319546   3.123   1.045  11.132  0.1755 -0.1488  1.7646
  173SAPI    O319547   2.949   1.124  11.098  0.0298 -0.0935  0.2181
  173SAPI   HO319548   2.916   1.211  11.075  0.8448 -0.1254 -1.2139
  173SAPI   C1419549   3.114   1.235  11.240  0.1087  0.1024 -0.1941
  173SAPI    H419550   3.092   1.341  11.213  0.5553  0.3887  0.5433
  173SAPI    O419551   3.031   1.214  11.356 -0.1349 -0.0119 -0.6901
  173SAPI   HO419552   3.041   1.124  11.389 -3.2570  0.0296  0.6995
  173SAPI   C1519553   3.263   1.237  11.272 -0.1071  0.5068 -0.1148
  173SAPI    H519554   3.287   1.130  11.290  0.5933  0.7811  0.6370
  173SAPI    O519555   3.292   1.316  11.387  0.0096  0.3477  0.3855
  173SAPI   HO519556   3.293   1.276  11.475 -0.2270  2.3200  1.3540
  173SAPI   C1619557   3.337   1.290  11.148  0.0310  0.0951 -0.1785
  173SAPI    H619558   3.311   1.396  11.132  0.6457  0.0520 -1.6657
  173SAPI    O619559   3.476   1.290  11.172 -0.7422 -0.1440 -0.6743
  173SAPI   HO619560   3.492   1.378  11.206  1.7570 -0.3185 -1.2465
  173SAPI   C1119561   3.309   1.222  11.013 -0.1801  0.4864  0.4166
  173SAPI    H119562   3.355   1.121  11.017 -1.5563 -0.3594 -2.5520
  173SAPI     P19563   3.397   1.252  10.761  0.1319  0.4060 -0.0972
  173SAPI   O1319564   3.393   1.102  10.761  0.3415 -0.3721 -0.4868
  173SAPI   O1419565   3.518   1.317  10.704  0.5678  0.1124  0.4133
  173SAPI   O1219566   3.386   1.299  10.912 -0.5478 -0.0525 -0.2622
  173SAPI   O1119567   3.258   1.300  10.701  0.0623 -0.5349 -0.1991
  173SAPI    C119568   3.172   1.201  10.634 -0.4867 -0.0777  0.3642
  173SAPI    HA19569   3.173   1.102  10.686  2.9855  0.2813  1.2121
  173SAPI    HB19570   3.068   1.239  10.644 -0.1075  1.1412 -0.1404
  173SAPI    C219571   3.196   1.175  10.482 -0.8732  0.7279 -0.5673
  173SAPI    HS19572   3.106   1.126  10.439  0.2391  1.0445 -3.5420
  173SAPI   O2119573   3.316   1.091  10.478 -0.0603  0.1598  0.0202
  173SAPI   C2119574   3.298   0.963  10.502 -0.3302  0.1299 -0.5161
  173SAPI   O2219575   3.188   0.913  10.526 -0.9016 -0.2722  0.2090
  173SAPI   C2219576   3.439   0.905  10.492  0.3751 -0.9702 -0.3765
  173SAPI   H2R19577   3.475   0.948  10.396 -1.7296 -0.3764 -0.9562
  173SAPI   H2S19578   3.499   0.951  10.574  0.2692  0.9646 -1.3270
  173SAPI    C319579   3.202   1.303  10.392 -0.4605  0.3962 -0.3403
  173SAPI    HX19580   3.289   1.357  10.435 -0.4864  0.7223 -0.6877
  173SAPI    HY19581   3.113   1.370  10.398 -0.8244  0.4452 -4.1531
  173SAPI   O3119582   3.235   1.275  10.254 -0.1618  0.1231 -0.1120
  173SAPI   C3119583   3.125   1.239  10.190 -0.1213  0.2214  0.1755
  173SAPI   O3219584   3.012   1.255  10.236  0.0010 -0.0152 -0.2433
  173SAPI   C3219585   3.161   1.188  10.047  0.3234  0.0987 -0.4358
  173SAPI   H2X19586   3.244   1.116  10.064  0.7875  0.6960 -0.0987
  173SAPI   H2Y19587   3.206   1.267   9.983 -1.2252  0.6325 -0.8942
  173SAPI   C2319588   3.448   0.753  10.476  0.5423  0.2960  0.1594
  173SAPI   H3R19589   3.399   0.714  10.568  0.1707  0.6203  0.1012
  173SAPI   H3S19590   3.551   0.712  10.487  0.7374  1.0627  1.4939
  173SAPI   C2419591   3.374   0.700  10.354  0.6303  0.2754  0.2624
  173SAPI   H4R19592   3.265   0.719  10.359 -0.2388 -3.3084 -1.3826
  173SAPI   H4S19593   3.374   0.589  10.354 -1.0708  0.2558  0.8702
  173SAPI   C2519594   3.432   0.736  10.222  0.3966 -0.2795  0.6634
  173SAPI   H5R19595   3.536   0.705  10.202  0.5399  0.9864 -0.7600
  173SAPI   C2619596   3.366   0.799  10.118  0.0638  0.3672 -0.9688
  173SAPI   H6R19597   3.422   0.813  10.024 -0.5268 -0.5094 -1.4554
  173SAPI   C2719598   3.220   0.832  10.098  0.2102  0.8394  0.4569
  173SAPI   H7R19599   3.200   0.887  10.004 -0.6953 -1.5558 -0.8546
  173SAPI   H7S19600   3.180   0.892  10.182 -0.5554  0.4919  0.3474
  173SAPI   C2819601   3.151   0.692  10.083  0.3621  0.1079  0.0264
  173SAPI   H8R19602   3.126   0.645  10.180 -0.6898 -0.1496 -0.3646
  173SAPI   C2919603   3.132   0.622   9.973 -0.2923 -0.1630  0.2310
  173SAPI   H9R19604   3.080   0.525   9.977  1.9796 -1.4985 -0.5005
  173SAPI  C21019605   3.162   0.677   9.835  0.0334  0.0312 -0.3252
  173SAPI  H10R19606   3.126   0.782   9.829  0.6237  0.1461 -2.7701
  173SAPI  H10S19607   3.092   0.619   9.772 -1.4860 -0.7025  1.9037
  173SAPI  C21119608   3.309   0.678   9.793 -0.0105 -0.2279 -0.5719
  173SAPI  H11R19609   3.374   0.625   9.863 -1.7631 -2.2907 -0.4072
  173SAPI  C21219610   3.353   0.761   9.696 -0.6727 -0.1604  0.0087
  173SAPI  H12R19611   3.459   0.749   9.670 -0.8258  2.6508 -2.3640
  173SAPI  C21319612   3.281   0.844   9.599  0.6716  0.4280  0.5332
  173SAPI  H13R19613   3.336   0.938   9.577  0.6068  0.3499  0.0105
  173SAPI  H13S19614   3.179   0.871   9.634 -0.8870 -2.3015 -1.4718
  173SAPI  C21419615   3.266   0.757   9.473  0.2196  0.1022  0.0207
  173SAPI  H14R19616   3.313   0.658   9.466 -0.4114 -0.3102  1.2449
  173SAPI  C21519617   3.182   0.779   9.374 -0.6084  0.0671  0.5922
  173SAPI  H15R19618   3.192   0.709   9.290  4.4312 -1.0388  1.8064
  173SAPI  C21619619   3.096   0.900   9.367 -0.9669 -0.4728 -0.0585
  173SAPI  H16R19620   3.134   0.942   9.271 -1.2571 -1.9115 -0.8347
  173SAPI  H16S19621   3.091   0.962   9.459 -0.2491  0.4889 -0.6336
  173SAPI  C21719622   2.942   0.884   9.332 -0.7563 -0.2645 -0.1712
  173SAPI  H17R19623   2.933   0.989   9.297  3.7705 -0.2647 -2.0134
  173SAPI  H17S19624   2.884   0.874   9.427  0.2030  1.8377  0.7000
  173SAPI  C21819625   2.896   0.777   9.222  0.4756 -0.1775 -0.0489
  173SAPI  H18R19626   2.786   0.782   9.208  0.0413  3.3269  2.9478
  173SAPI  H18S19627   2.923   0.675   9.257  1.0680  0.4140  1.3042
  173SAPI  C21919628   2.968   0.799   9.088  0.1082  0.2085 -0.3569
  173SAPI  H19R19629   3.066   0.748   9.082  0.0067  0.1292 -1.9865
  173SAPI  H19S19630   2.988   0.908   9.082 -0.3376  0.3302  0.3232
  173SAPI  C22019631   2.888   0.756   8.965  0.3218  0.4891 -0.5621
  173SAPI  H20R19632   2.946   0.746   8.871  0.2299 -2.5178 -0.4071
  173SAPI  H20S19633   2.799   0.822   8.956  1.1216  1.9245  1.4697
  173SAPI  H20T19634   2.837   0.660   8.988 -0.7083  0.8763 -1.1615
  173SAPI   C3319635   3.045   1.115   9.970  0.5113 -0.2962  0.1538
  173SAPI   H3X19636   2.949   1.167   9.991 -0.0456 -1.0832 -0.4118
  173SAPI   H3Y19637   3.019   1.016  10.015 -1.7688 -0.5214 -1.4916
  173SAPI   C3419638   3.069   1.116   9.822  1.0032 -0.2306 -0.2753
  173SAPI   H4X19639   2.998   1.040   9.785  1.6138 -0.5150 -0.8862
  173SAPI   H4Y19640   3.176   1.094   9.803  0.5446 -0.6957 -2.5969
  173SAPI   C3519641   3.043   1.245   9.756  0.0003  0.1568  0.5895
  173SAPI   H5X19642   3.105   1.335   9.772  0.6272 -0.2513  0.4932
  173SAPI   H5Y19643   2.939   1.276   9.781  0.1131 -0.1271  1.4711
  173SAPI   C3619644   3.060   1.235   9.611  0.0428  0.2142  0.0883
  173SAPI   H6X19645   3.011   1.145   9.570 -0.3806 -0.5616  2.1836
  173SAPI   H6Y19646   3.169   1.241   9.591  0.7365  0.8197  3.4807
  173SAPI   C3719647   2.999   1.362   9.548  0.6267 -0.1504 -0.6748
  173SAPI   H7X19648   3.080   1.434   9.575 -1.3294  1.4880  1.2533
  173SAPI   H7Y19649   2.901   1.390   9.590  0.0605 -0.0815 -2.0005
  173SAPI   C3819650   2.994   1.365   9.393 -0.4754 -0.1839  0.2735
  173SAPI   H8X19651   2.933   1.274   9.375  1.3788 -1.5282  0.4871
  173SAPI   H8Y19652   3.093   1.332   9.356 -0.9074 -0.1133 -0.9919
  173SAPI   C3919653   2.931   1.480   9.325  0.8806 -0.1199  0.1345
  173SAPI   H9X19654   2.979   1.580   9.338 -1.0626  0.8643  0.1112
  173SAPI   H9Y19655   2.824   1.495   9.351  1.0868  1.6176  0.1332
  173SAPI  C31019656   2.943   1.454   9.170  0.1838  0.9445 -1.0318
  173SAPI  H10X19657   3.048   1.423   9.149  0.3728 -0.5464  1.6783
  173SAPI  H10Y19658   2.944   1.551   9.116 -1.9211 -0.2107 -3.3856
  173SAPI  C31119659   2.843   1.352   9.122  0.0100  0.0606 -0.3328
  173SAPI  H11X19660   2.743   1.395   9.141  0.1646  0.5964 -0.7186
  173SAPI  H11Y19661   2.860   1.257   9.177 -0.4022 -0.1196 -0.5153
  173SAPI  C31219662   2.856   1.313   8.971 -0.7279  0.2217  0.3600
  173SAPI  H12X19663   2.960   1.273   8.973 -0.1503  1.6781  0.3611
  173SAPI  H12Y19664   2.872   1.402   8.907  0.6701 -1.1181 -1.2713
  173SAPI  C31319665   2.749   1.226   8.902  0.5396  0.0638  0.7802
  173SAPI  H13X19666   2.651   1.278   8.903  0.1387 -0.5538  3.6824
  173SAPI  H13Y19667   2.730   1.128   8.952 -1.0428  0.3898  0.8598
  173SAPI  C31419668   2.797   1.193   8.762 -0.1348 -0.2630 -0.1470
  173SAPI  H14X19669   2.827   1.294   8.725  1.8758  0.2189  2.5449
  173SAPI  H14Y19670   2.716   1.146   8.703  2.0204 -4.0635 -0.3818
  173SAPI  C31519671   2.918   1.095   8.747  0.0982  0.5416 -0.4382
  173SAPI  H15X19672   2.890   0.989   8.766 -0.7624  0.7546 -0.4564
  173SAPI  H15Y19673   2.999   1.113   8.820  0.1106 -3.2707  0.6722
  173SAPI  C31619674   2.974   1.085   8.603  0.5262 -0.7660 -0.6425
  173SAPI  H16X19675   3.019   1.186   8.587 -0.4249  0.3935  2.9504
  173SAPI  H16Y19676   2.890   1.061   8.534  1.5660  0.8189 -2.5523
  173SAPI  C31719677   3.092   0.985   8.579 -0.5043  0.1207 -0.2068
  173SAPI  H17X19678   3.064   0.878   8.595 -0.6700 -0.0454 -1.4956
  173SAPI  H17Y19679   3.168   1.011   8.655  0.7051 -0.3135 -1.2243
  173SAPI  C31819680   3.143   0.990   8.439  0.1467 -0.0438 -0.1186
  173SAPI  H18X19681   3.248   0.954   8.443  0.4365  0.6967 -0.7767
  173SAPI  H18Y19682   3.153   1.098   8.417  0.5365  0.0605  0.5487
  173SAPI  H18Z19683   3.099   0.922   8.362  0.9507 -0.4411 -0.2476
  174SAPI   C1219684   4.068   4.356  10.886  0.3525  0.0234 -0.0371
  174SAPI    H219685   4.061   4.463  10.856  0.0069  0.7144  2.3735
  174SAPI    O219686   4.150   4.286  10.793  0.2409 -0.3554  0.0816
  174SAPI   HO219687   4.127   4.299  10.701  1.3194  0.4672 -0.0921
  174SAPI   C1319688   4.116   4.360  11.031 -0.8669  0.1540  0.4230
  174SAPI    H319689   4.036   4.413  11.086  0.7138 -0.5887  3.6827
  174SAPI    O319690   4.229   4.448  11.037 -0.3157 -0.5515 -0.2020
  174SAPI   HO319691   4.291   4.408  10.977 -1.0776  0.7926 -1.9777
  174SAPI   C1419692   4.129   4.219  11.083 -0.0721 -0.1581 -0.7877
  174SAPI    H419693   4.198   4.160  11.020  0.5598 -0.5857  0.2792
  174SAPI    O419694   4.181   4.227  11.222  0.4536  0.2132  0.2380
  174SAPI   HO419695   4.276   4.236  11.208  0.4447  2.1875  1.1142
  174SAPI   C1519696   3.994   4.148  11.080 -0.8827 -0.4655 -0.5737
  174SAPI    H519697   3.927   4.200  11.152 -1.2516  0.4963 -1.5884
  174SAPI    O519698   4.009   4.013  11.125 -0.1180  0.1210  0.0727
  174SAPI   HO519699   3.928   3.985  11.168 -0.1916  1.3804  0.8006
  174SAPI   C1619700   3.933   4.156  10.943 -0.5186 -0.1200 -0.0331
  174SAPI    H619701   4.001   4.098  10.878  1.4870  0.3098  1.5873
  174SAPI    O619702   3.805   4.089  10.935  0.5130  0.1292  0.3490
  174SAPI   HO619703   3.773   4.057  11.021 -1.7774  1.0945 -0.0591
  174SAPI   C1119704   3.935   4.292  10.888  1.2607  0.3477  0.5321
  174SAPI    H119705   3.874   4.351  10.961 -1.1588 -1.4229  0.0784
  174SAPI     P19706   3.784   4.437  10.713 -0.5305 -0.5017 -0.0884
  174SAPI   O1319707   3.865   4.559  10.741  0.5760 -0.1504 -0.1583
  174SAPI   O1419708   3.654   4.419  10.787  0.5466  0.0533 -0.6329
  174SAPI   O1219709   3.871   4.306  10.753  0.2041  0.1154 -0.3672
  174SAPI   O1119710   3.767   4.437  10.559  0.5816  0.2464  0.2134
  174SAPI    C119711   3.678   4.351  10.482 -0.1053 -0.6845  0.4713
  174SAPI    HA19712   3.743   4.270  10.441 -0.4551 -0.2017 -1.0905
  174SAPI    HB19713   3.594   4.310  10.542 -1.4246  1.5098  0.2465
  174SAPI    C219714   3.616   4.429  10.357 -0.4444 -0.3260  0.9403
  174SAPI    HS19715   3.557   4.352  10.303  1.0634 -1.0819  0.2836
  174SAPI   O2119716   3.722   4.486  10.275  0.2067 -0.6458 -0.1126
  174SAPI   C2119717   3.760   4.418  10.174  0.0872  0.4387  0.5934
  174SAPI   O2219718   3.707   4.318  10.134  0.8498 -0.3227  0.2347
  174SAPI   C2219719   3.870   4.494  10.090  0.2203  0.2304  0.2023
  174SAPI   H2R19720   3.915   4.566  10.161 -2.7804 -0.0358  2.5656
  174SAPI   H2S19721   3.946   4.414  10.074 -0.2728 -0.2092  0.0064
  174SAPI    C319722   3.517   4.541  10.403 -0.0649  0.3227 -0.6766
  174SAPI    HX19723   3.580   4.619  10.451  1.1274 -1.3876  0.6829
  174SAPI    HY19724   3.451   4.495  10.480  0.5079  0.4968 -0.0674
  174SAPI   O3119725   3.444   4.594  10.291 -0.6253 -0.1009  0.2630
  174SAPI   C3119726   3.429   4.729  10.286  0.9609  0.3843  0.9947
  174SAPI   O3219727   3.450   4.806  10.378 -0.4462 -0.0682  0.1882
  174SAPI   C3219728   3.353   4.765  10.159 -0.1347  0.5647  0.0409
  174SAPI   H2X19729   3.359   4.876  10.159 -0.8457  0.6113 -0.5446
  174SAPI   H2Y19730   3.247   4.734  10.168 -0.2976  1.0211 -0.2607
  174SAPI   C2319731   3.819   4.564   9.961  0.0139 -0.5748 -0.5567
  174SAPI   H3R19732   3.792   4.672   9.965 -0.5656 -0.6401 -2.0636
  174SAPI   H3S19733   3.718   4.519   9.950  0.1487 -1.6688  1.9274
  174SAPI   C2419734   3.914   4.543   9.847 -0.2180  0.4832  0.2899
  174SAPI   H4R19735   3.934   4.435   9.834 -1.7295 -0.0698  2.1074
  174SAPI   H4S19736   4.008   4.597   9.870  1.0286 -0.5571 -2.0226
  174SAPI   C2519737   3.856   4.606   9.716  0.6167 -0.2114  0.0246
  174SAPI   H5R19738   3.834   4.713   9.711 -0.8445 -0.4657  0.4597
  174SAPI   C2619739   3.820   4.533   9.609 -0.3738 -0.3737 -0.6387
  174SAPI   H6R19740   3.792   4.584   9.515 -1.1780 -1.1800 -0.8496
  174SAPI   C2719741   3.825   4.388   9.586 -0.4485  0.6379 -0.0305
  174SAPI   H7R19742   3.820   4.336   9.684  1.2785 -1.1512 -0.8113
  174SAPI   H7S19743   3.931   4.374   9.555  0.9702  3.3097  3.0220
  174SAPI   C2819744   3.722   4.335   9.498  0.1147  0.2949  0.2169
  174SAPI   H8R19745   3.626   4.318   9.548  0.0643  1.7849  0.6893
  174SAPI   C2919746   3.712   4.304   9.364  0.4566  0.3301 -0.2511
  174SAPI   H9R19747   3.613   4.266   9.334  1.0429  0.6473 -2.8405
  174SAPI  C21019748   3.823   4.320   9.250 -0.3656  0.7357  0.2801
  174SAPI  H10R19749   3.829   4.241   9.172 -0.8391  1.4620 -0.5054
  174SAPI  H10S19750   3.926   4.322   9.291 -0.9852 -0.5175  1.9993
  174SAPI  C21119751   3.787   4.443   9.167  0.5307 -0.4672  0.3907
  174SAPI  H11R19752   3.682   4.449   9.136  0.2518 -1.4205  1.0860
  174SAPI  C21219753   3.869   4.543   9.145 -0.4813 -0.1812  0.8366
  174SAPI  H12R19754   3.839   4.625   9.078 -1.0418 -0.4374  0.7682
  174SAPI  C21319755   4.016   4.555   9.188  0.1546  0.5337  0.2611
  174SAPI  H13R19756   4.066   4.459   9.213  0.5682  1.0178  1.3832
  174SAPI  H13S19757   4.021   4.613   9.283  1.6312  2.9450 -1.1876
  174SAPI  C21419758   4.087   4.643   9.089 -0.0530 -0.5377  0.0481
  174SAPI  H14R19759   4.151   4.593   9.016 -0.4374 -0.8096 -0.1066
  174SAPI  C21519760   4.073   4.779   9.077 -0.5615 -0.0376  0.8562
  174SAPI  H15R19761   4.129   4.835   9.001 -1.9526  1.1244  0.6541
  174SAPI  C21619762   3.990   4.864   9.174  0.3846  0.0665  0.5382
  174SAPI  H16R19763   3.910   4.801   9.217  0.6410 -0.4672  0.2422
  174SAPI  H16S19764   3.946   4.946   9.114 -1.0190 -1.0293  0.0421
  174SAPI  C21719765   4.060   4.944   9.285 -0.2666 -0.8066  0.3879
  174SAPI  H17R19766   3.981   5.002   9.339  1.6787  1.0083  1.4467
  174SAPI  H17S19767   4.128   5.021   9.243 -0.1458  0.4844  2.7496
  174SAPI  C21819768   4.134   4.858   9.384 -0.0772  1.0803  0.0675
  174SAPI  H18R19769   4.238   4.839   9.351  0.5504  1.0022  1.9674
  174SAPI  H18S19770   4.070   4.767   9.395 -0.5117  1.4655  0.7504
  174SAPI  C21919771   4.147   4.928   9.518  0.1393 -0.0308 -0.1684
  174SAPI  H19R19772   4.049   4.956   9.562 -1.3032  1.6888 -4.0707
  174SAPI  H19S19773   4.206   5.019   9.498  2.2730 -0.8939  1.6873
  174SAPI  C22019774   4.220   4.838   9.622 -0.3729 -0.7702  0.5767
  174SAPI  H20R19775   4.251   4.891   9.714  4.0346  0.5085 -1.3737
  174SAPI  H20S19776   4.303   4.794   9.563 -1.0466  3.1439 -3.8808
  174SAPI  H20T19777   4.149   4.756   9.644 -0.3376 -0.8441  0.4142
  174SAPI   C3319778   3.400   4.700  10.026 -0.5223 -0.2484  0.3392
  174SAPI   H3X19779   3.376   4.592  10.036 -0.2805 -0.2124  1.3459
  174SAPI   H3Y19780   3.509   4.722  10.026 -0.1609 -1.8000  1.9180
  174SAPI   C3419781   3.349   4.770   9.894  0.1203  0.3819  1.0418
  174SAPI   H4X19782   3.381   4.876   9.903  2.1138  0.1946 -2.3089
  174SAPI   H4Y19783   3.238   4.776   9.886  0.2551  3.5265  0.2004
  174SAPI   C3519784   3.413   4.704   9.772  0.5908 -0.0537  0.3755
  174SAPI   H5X19785   3.391   4.595   9.781 -0.8626  0.3689  2.7164
  174SAPI   H5Y19786   3.523   4.720   9.774  0.4869  0.7006  2.3767
  174SAPI   C3619787   3.339   4.752   9.643 -0.3538 -0.9367  0.0258
  174SAPI   H6X19788   3.340   4.862   9.657 -0.4004 -0.8121 -0.8785
  174SAPI   H6Y19789   3.230   4.731   9.639 -0.8521  0.6258  2.8197
  174SAPI   C3719790   3.422   4.718   9.514  0.4398 -0.3061  0.2856
  174SAPI   H7X19791   3.419   4.611   9.485  0.4427  0.2867 -2.1145
  174SAPI   H7Y19792   3.529   4.746   9.521  0.7868 -1.3526 -0.6039
  174SAPI   C3819793   3.361   4.791   9.396  0.7065  0.6199  0.4694
  174SAPI   H8X19794   3.345   4.901   9.401  0.6385  0.6260  0.1167
  174SAPI   H8Y19795   3.262   4.747   9.376  0.5110 -0.9776  4.1268
  174SAPI   C3919796   3.455   4.763   9.281  0.6596 -0.0008  0.2306
  174SAPI   H9X19797   3.481   4.655   9.270  0.9712  0.2515 -1.8672
  174SAPI   H9Y19798   3.556   4.802   9.305 -0.2249  1.5075  1.7241
  174SAPI  C31019799   3.400   4.813   9.146 -0.2093 -0.3906 -0.4551
  174SAPI  H10X19800   3.355   4.915   9.157  0.7980  0.0858 -0.6148
  174SAPI  H10Y19801   3.314   4.750   9.116 -0.8694 -0.0779  0.6970
  174SAPI  C31119802   3.520   4.800   9.045  0.0198  0.5583  0.5021
  174SAPI  H11X19803   3.554   4.694   9.053  0.4044  0.6541  0.1634
  174SAPI  H11Y19804   3.609   4.860   9.075 -0.7093  1.3898  1.0544
  174SAPI  C31219805   3.477   4.835   8.905 -0.5205 -0.5764  0.4078
  174SAPI  H12X19806   3.419   4.929   8.915 -2.0604 -1.5571  1.1450
  174SAPI  H12Y19807   3.401   4.768   8.859  1.9225 -1.3949 -2.7615
  174SAPI  C31319808   3.592   4.841   8.802 -0.2656 -0.2303 -0.7883
  174SAPI  H13X19809   3.661   4.754   8.803  0.1745  0.1077  0.1576
  174SAPI  H13Y19810   3.655   4.924   8.841  1.1893 -2.3261  1.6939
  174SAPI  C31419811   3.550   4.868   8.650 -0.1973  0.4066  0.3488
  174SAPI  H14X19812   3.479   4.785   8.630  2.5442 -1.3075 -3.5181
  174SAPI  H14Y19813   3.643   4.858   8.590  0.3914  1.1880  1.1026
  174SAPI  C31519814   3.501   5.012   8.620  0.3357  0.6487  0.2673
  174SAPI  H15X19815   3.587   5.080   8.636  2.1029 -1.8371  2.0223
  174SAPI  H15Y19816   3.414   5.055   8.676  0.0720 -0.5075  0.7655
  174SAPI  C31619817   3.453   5.033   8.474 -0.0201 -0.3278  0.0933
  174SAPI  H16X19818   3.540   5.015   8.406 -0.6848 -2.6950 -0.2321
  174SAPI  H16Y19819   3.435   5.142   8.473 -0.3787 -0.3886 -0.0313
  174SAPI  C31719820   3.328   4.945   8.427  0.7300 -0.5768  0.2029
  174SAPI  H17X19821   3.253   4.964   8.507  0.5897  0.8168 -0.2294
  174SAPI  H17Y19822   3.343   4.835   8.428  0.6928 -0.5808  0.2794
  174SAPI  C31819823   3.266   4.985   8.296 -0.1080  0.5737  0.3333
  174SAPI  H18X19824   3.244   5.094   8.300 -0.5549  0.5343 -0.7751
  174SAPI  H18Y19825   3.176   4.925   8.272  1.1465 -1.7153  1.0056
  174SAPI  H18Z19826   3.345   4.970   8.219  0.9664  0.4179  1.4338
  175SAPI   C1219827   6.744   2.531   5.977 -0.8076 -0.8429  0.1841
  175SAPI    H219828   6.820   2.593   6.029  0.3471  0.0343 -2.4061
  175SAPI    O219829   6.615   2.550   6.029 -0.0584 -0.0407 -0.0665
  175SAPI   HO219830   6.597   2.473   6.084 -2.3502 -1.5334 -2.6609
  175SAPI   C1319831   6.756   2.590   5.834  0.8311 -0.4792 -0.3234
  175SAPI    H319832   6.861   2.579   5.799  0.4223 -0.8461 -1.4859
  175SAPI    O319833   6.728   2.724   5.830  0.2292 -0.2604 -0.3232
  175SAPI   HO319834   6.636   2.728   5.858 -0.4186 -0.6503 -2.2419
  175SAPI   C1419835   6.668   2.505   5.742 -0.5862 -0.8038 -0.1027
  175SAPI    H419836   6.564   2.518   5.779  0.2207  2.0514  1.3628
  175SAPI    O419837   6.666   2.564   5.604  0.2455  0.5325  0.4100
  175SAPI   HO419838   6.581   2.566   5.561 -0.2483 -0.7104  1.2650
  175SAPI   C1519839   6.710   2.359   5.751 -0.0271 -0.7819 -0.1557
  175SAPI    H519840   6.810   2.341   5.706  0.3305  0.7186 -0.0091
  175SAPI    O519841   6.627   2.293   5.660 -0.1940 -0.0596  0.2228
  175SAPI   HO519842   6.612   2.351   5.585  0.1973 -1.4928 -1.0394
  175SAPI   C1619843   6.699   2.302   5.892 -0.1398  0.0155  0.0874
  175SAPI    H619844   6.594   2.300   5.927 -0.4843 -0.2469 -0.9398
  175SAPI    O619845   6.740   2.165   5.894  0.6800 -0.0778 -0.1886
  175SAPI   HO619846   6.813   2.144   5.835  0.8163 -2.2618  0.6515
  175SAPI   C1119847   6.776   2.382   5.991 -0.1345  0.2134  0.1803
  175SAPI    H119848   6.884   2.372   5.966  0.5271  0.9562  2.5159
  175SAPI     P19849   6.883   2.339   6.239  0.2383 -0.2042 -0.2251
  175SAPI   O1319850   6.977   2.445   6.203  0.2814  0.0176  0.2970
  175SAPI   O1419851   6.954   2.211   6.255  0.4153 -0.2634  0.5681
  175SAPI   O1219852   6.761   2.331   6.127  0.2330  0.1274 -0.3438
  175SAPI   O1119853   6.813   2.377   6.370 -0.1630  0.1757 -0.5071
  175SAPI    C119854   6.712   2.303   6.441 -0.8162 -0.1255 -0.6270
  175SAPI    HA19855   6.613   2.354   6.435 -0.4990  0.3329 -2.7243
  175SAPI    HB19856   6.700   2.204   6.393  0.3552 -1.0458  0.8993
  175SAPI    C219857   6.747   2.303   6.592  0.1128 -0.7692  0.3646
  175SAPI    HS19858   6.841   2.244   6.594 -0.2965 -1.4715 -0.4389
  175SAPI   O2119859   6.634   2.251   6.674  0.2532  0.1880  0.8327
  175SAPI   C2119860   6.669   2.171   6.770  0.2490  0.0302 -0.1213
  175SAPI   O2219861   6.783   2.140   6.802 -0.3491  0.0684 -0.2653
  175SAPI   C2219862   6.540   2.118   6.834 -0.3722  0.5258 -0.3524
  175SAPI   H2R19863   6.460   2.193   6.815 -1.4531 -0.3863  0.4015
  175SAPI   H2S19864   6.514   2.021   6.787  1.2662 -0.2743  0.3429
  175SAPI    C319865   6.790   2.443   6.641  0.1264  0.0990  0.1294
  175SAPI    HX19866   6.696   2.497   6.620  0.3182 -0.5835 -2.9083
  175SAPI    HY19867   6.878   2.467   6.577  2.2340 -1.8234  2.0972
  175SAPI   O3119868   6.807   2.442   6.783 -0.3560 -0.3217 -0.0012
  175SAPI   C3119869   6.926   2.396   6.831 -0.5218  0.9907  0.0756
  175SAPI   O3219870   7.025   2.350   6.772  0.3774  0.5215  0.0850
  175SAPI   C3219871   6.932   2.401   6.987  0.3126  0.5510 -0.2332
  175SAPI   H2X19872   6.869   2.317   7.024  0.6852 -0.4222 -1.7207
  175SAPI   H2Y19873   6.889   2.499   7.019 -3.4835 -0.9515 -0.1619
  175SAPI   C2319874   6.554   2.096   6.984 -0.0544 -0.1087 -0.7691
  175SAPI   H3R19875   6.641   2.031   7.007  0.9842  0.6978 -2.2559
  175SAPI   H3S19876   6.467   2.041   7.025  1.0928 -1.6922 -0.3651
  175SAPI   C2419877   6.566   2.224   7.065 -0.3640 -0.4455  0.4135
  175SAPI   H4R19878   6.650   2.289   7.032  1.7890 -2.8500  0.7800
  175SAPI   H4S19879   6.588   2.209   7.173  0.9653  4.4927  1.0776
  175SAPI   C2519880   6.436   2.301   7.057  0.7001  0.0940 -0.3858
  175SAPI   H5R19881   6.385   2.297   6.960  0.4557 -2.0168 -0.2186
  175SAPI   C2619882   6.392   2.397   7.145  0.6118  0.3646 -0.1079
  175SAPI   H6R19883   6.292   2.439   7.126 -0.5280 -1.8615  0.5088
  175SAPI   C2719884   6.469   2.439   7.266 -0.4223  0.6708  0.3030
  175SAPI   H7R19885   6.569   2.484   7.246 -0.4816  0.4976 -0.4271
  175SAPI   H7S19886   6.483   2.354   7.336 -0.7884 -0.0420 -0.4628
  175SAPI   C2819887   6.395   2.548   7.334  0.2829 -0.2458 -0.0163
  175SAPI   H8R19888   6.396   2.640   7.274 -0.9629  0.3439  0.8370
  175SAPI   C2919889   6.338   2.550   7.459  0.2737  0.2237  0.3581
  175SAPI   H9R19890   6.302   2.649   7.491  0.5559  0.7741 -0.9357
  175SAPI  C21019891   6.346   2.433   7.562 -0.1600 -0.0122 -0.2775
  175SAPI  H10R19892   6.406   2.347   7.525 -0.8691 -1.5614  1.8916
  175SAPI  H10S19893   6.249   2.383   7.587  0.6795 -1.2453  0.6758
  175SAPI  C21119894   6.408   2.493   7.687  0.0663  0.7484 -0.4236
  175SAPI  H11R19895   6.479   2.576   7.673 -0.8099  1.6107  0.1655
  175SAPI  C21219896   6.391   2.430   7.806 -0.0268  0.0704 -0.4619
  175SAPI  H12R19897   6.444   2.478   7.889 -1.1376 -2.8061  2.0861
  175SAPI  C21319898   6.320   2.305   7.849  0.2079 -0.0230  0.3363
  175SAPI  H13R19899   6.212   2.328   7.859  0.2503 -0.3565  1.6796
  175SAPI  H13S19900   6.370   2.295   7.948  0.8213 -1.8807 -0.1200
  175SAPI  C21419901   6.325   2.166   7.778  0.9454 -0.5004 -0.8620
  175SAPI  H14R19902   6.369   2.153   7.678  2.2300 -2.9845 -0.0539
  175SAPI  C21519903   6.254   2.061   7.829  0.3714 -0.4209 -1.3633
  175SAPI  H15R19904   6.243   1.966   7.775 -1.1707 -0.7590 -0.4896
  175SAPI  C21619905   6.184   2.073   7.964 -0.0698 -0.1532  0.7137
  175SAPI  H16R19906   6.075   2.092   7.948 -0.2311 -2.0387 -0.8724
  175SAPI  H16S19907   6.219   2.163   8.018 -0.2467 -0.4249  1.2835
  175SAPI  C21719908   6.209   1.948   8.052  0.6404 -0.6217  0.2333
  175SAPI  H17R19909   6.318   1.934   8.067  0.9081  1.0806  0.1510
  175SAPI  H17S19910   6.163   1.859   8.005  0.8777 -0.3225 -0.5954
  175SAPI  C21819911   6.142   1.954   8.194 -0.6360 -0.7060  0.1540
  175SAPI  H18R19912   6.176   2.054   8.229  0.1852 -0.9153 -0.0211
  175SAPI  H18S19913   6.182   1.879   8.266 -0.6478 -1.4510 -0.5980
  175SAPI  C21919914   5.993   1.965   8.198 -0.0287  0.7405  0.0306
  175SAPI  H19R19915   5.955   1.895   8.121 -0.7854  1.2250 -0.0459
  175SAPI  H19S19916   5.964   2.065   8.161 -0.5972  0.2618 -0.8404
  175SAPI  C22019917   5.925   1.950   8.333  0.0360  0.8426 -0.1809
  175SAPI  H20R19918   5.817   1.977   8.336  0.1624  1.2512  1.0222
  175SAPI  H20S19919   5.982   2.022   8.396  1.2904  1.0411 -1.4812
  175SAPI  H20T19920   5.933   1.844   8.364 -0.3506  1.1021  0.8521
  175SAPI   C3319921   7.081   2.379   7.035  0.1114  0.0999 -0.2491
  175SAPI   H3X19922   7.144   2.455   6.985  1.4901 -0.4286  0.6238
  175SAPI   H3Y19923   7.134   2.287   7.002  0.0464  0.1766 -0.5702
  175SAPI   C3419924   7.087   2.400   7.191 -0.4828  0.0053  0.6054
  175SAPI   H4X19925   7.008   2.332   7.230 -1.3946  1.6116  1.7088
  175SAPI   H4Y19926   7.066   2.507   7.214  1.2592  1.1993 -2.7083
  175SAPI   C3519927   7.225   2.353   7.248  0.5740  0.3033 -0.2903
  175SAPI   H5X19928   7.306   2.390   7.182  2.6948 -0.6804  1.5700
  175SAPI   H5Y19929   7.235   2.242   7.242 -2.0724 -0.0791  0.9441
  175SAPI   C3619930   7.242   2.410   7.392  0.2806 -0.1991 -0.1904
  175SAPI   H6X19931   7.200   2.513   7.396  3.0487  1.0032  0.4522
  175SAPI   H6Y19932   7.348   2.417   7.422  0.5899 -0.9646 -1.0653
  175SAPI   C3719933   7.173   2.320   7.502  0.1171 -0.1147  1.0363
  175SAPI   H7X19934   7.209   2.220   7.469  2.3382  1.1378 -0.6441
  175SAPI   H7Y19935   7.064   2.338   7.491  0.0681  0.1766  1.9488
  175SAPI   C3819936   7.227   2.355   7.638  0.3048  0.6386  0.6525
  175SAPI   H8X19937   7.200   2.463   7.645 -2.9643 -0.0803  0.5843
  175SAPI   H8Y19938   7.336   2.334   7.634  0.2592  0.4898 -2.5356
  175SAPI   C3919939   7.161   2.269   7.750  0.3086  0.4808 -0.0029
  175SAPI   H9X19940   7.179   2.161   7.732  2.7799  0.5665  1.5082
  175SAPI   H9Y19941   7.051   2.285   7.744 -0.1923 -2.4809 -0.2595
  175SAPI  C31019942   7.230   2.301   7.876  0.3146  0.3860  0.2036
  175SAPI  H10X19943   7.247   2.411   7.875 -0.7507  0.5723 -1.2936
  175SAPI  H10Y19944   7.334   2.262   7.871 -0.2163 -1.2137  1.0685
  175SAPI  C31119945   7.154   2.264   8.001 -0.2264  0.5358 -0.0049
  175SAPI  H11X19946   7.138   2.154   8.003  1.6350  0.2465  1.1013
  175SAPI  H11Y19947   7.055   2.313   8.009 -0.4563  0.3655 -1.4998
  175SAPI  C31219948   7.240   2.284   8.128 -0.4814 -0.8320  0.1091
  175SAPI  H12X19949   7.333   2.227   8.108  1.3735  2.5420 -1.7879
  175SAPI  H12Y19950   7.180   2.247   8.214 -0.3968  0.6664  0.8539
  175SAPI  C31319951   7.282   2.428   8.152 -0.5787 -0.9305  0.0719
  175SAPI  H13X19952   7.205   2.507   8.142 -0.8045 -1.0846  0.5687
  175SAPI  H13Y19953   7.361   2.458   8.079 -0.3155  0.5950  0.9496
  175SAPI  C31419954   7.348   2.448   8.293 -0.2895  1.1712  0.9180
  175SAPI  H14X19955   7.443   2.392   8.279 -1.2911 -0.3783 -0.0153
  175SAPI  H14Y19956   7.277   2.400   8.364 -1.0841  0.6342 -0.2100
  175SAPI  C31519957   7.367   2.596   8.336  0.1811  0.1578 -0.0508
  175SAPI  H15X19958   7.370   2.609   8.446  2.3035  0.8140 -0.1453
  175SAPI  H15Y19959   7.278   2.647   8.291  1.2248  2.0232 -0.1181
  175SAPI  C31619960   7.493   2.672   8.286 -0.1323 -0.2272 -0.0456
  175SAPI  H16X19961   7.474   2.776   8.321  2.9818 -0.3045  2.3267
  175SAPI  H16Y19962   7.493   2.669   8.175  0.5310 -1.0270 -0.0342
  175SAPI  C31719963   7.631   2.621   8.314 -0.0169  0.1339  0.3813
  175SAPI  H17X19964   7.645   2.512   8.301  0.9828  0.3148 -0.2138
  175SAPI  H17Y19965   7.654   2.649   8.419 -1.4699 -0.1302  0.7853
  175SAPI  C31819966   7.730   2.692   8.223  1.1057 -0.1007 -0.6003
  175SAPI  H18X19967   7.702   2.799   8.231 -0.0886 -0.3996 -0.5829
  175SAPI  H18Y19968   7.715   2.665   8.116  0.0669 -2.4263  0.0601
  175SAPI  H18Z19969   7.834   2.679   8.259  1.1469  1.0820 -0.2632
  176SAPI   C1219970   0.293   5.906   6.222  1.0536 -0.4913 -0.3572
  176SAPI    H219971   0.287   5.803   6.264 -0.4002 -0.8162 -1.2803
  176SAPI    O219972   0.326   5.883   6.089 -0.6385 -0.6653  0.4060
  176SAPI   HO219973   0.269   5.812   6.058 -0.6041 -0.2979 -0.5231
  176SAPI   C1319974   0.152   5.964   6.231  1.1499  0.5896 -0.3286
  176SAPI    H319975   0.126   5.976   6.338  0.2498 -1.3960 -0.2737
  176SAPI    O319976   0.057   5.885   6.175 -0.2809  0.2180  0.8608
  176SAPI   HO319977   0.018   5.829   6.243 -0.8720 -2.8549 -1.7820
  176SAPI   C1419978   0.145   6.099   6.162  0.7116 -0.4521 -0.0853
  176SAPI    H419979   0.160   6.091   6.052 -1.8911 -0.0117 -0.5268
  176SAPI    O419980   0.013   6.151   6.180 -0.4660  0.0116 -0.0607
  176SAPI   HO419981  -0.025   6.117   6.262 -0.4218 -1.8239 -0.7472
  176SAPI   C1519982   0.247   6.199   6.203  0.3824 -0.0098  0.5188
  176SAPI    H519983   0.223   6.238   6.304 -0.5243 -0.5139  0.5022
  176SAPI    O519984   0.245   6.320   6.126  0.0790  0.3993  0.1655
  176SAPI   HO519985   0.308   6.312   6.054  0.6382 -0.1259  0.7048
  176SAPI   C1619986   0.392   6.135   6.201 -0.1046  0.0939 -0.4041
  176SAPI    H619987   0.420   6.113   6.096  0.3731  1.1299 -0.5123
  176SAPI    O619988   0.483   6.230   6.254 -0.2381 -0.1106 -0.2294
  176SAPI   HO619989   0.490   6.210   6.347  2.1445  0.5315 -0.2202
  176SAPI   C1119990   0.393   6.004   6.286  0.5324  0.4264  0.6269
  176SAPI    H119991   0.359   6.040   6.386  2.5705  0.1165  1.4824
  176SAPI     P19992   0.594   5.922   6.439 -0.3559 -0.0317 -0.0577
  176SAPI   O1319993   0.598   6.047   6.514  0.1877 -0.0754  0.1396
  176SAPI   O1419994   0.721   5.855   6.412 -0.2935 -0.6023 -0.2549
  176SAPI   O1219995   0.521   5.946   6.294 -0.3130 -0.6321 -0.0160
  176SAPI   O1119996   0.502   5.820   6.519 -0.2836  0.0807 -0.1759
  176SAPI    C119997   0.452   5.868   6.642  0.0156  0.0493  0.1852
  176SAPI    HA19998   0.388   5.958   6.629 -0.6903 -0.0721  2.4592
  176SAPI    HB19999   0.389   5.788   6.686  0.4815  0.0789  0.9175
  176SAPI    C220000   0.554   5.888   6.760  0.4598  0.0270 -0.0961
  176SAPI    HS20001   0.622   5.975   6.742  1.7068 -0.8230  0.3507
  176SAPI   O2120002   0.633   5.769   6.763 -0.1469  0.0672  0.1073
  176SAPI   C2120003   0.760   5.779   6.817  1.0424 -0.0053 -0.5575
  176SAPI   O2220004   0.804   5.869   6.882 -0.1098 -0.0406 -0.1930
  176SAPI   C2220005   0.835   5.648   6.787  0.1662  0.6887 -0.9823
  176SAPI   H2R20006   0.825   5.623   6.679 -0.0218  1.3451 -1.1228
  176SAPI   H2S20007   0.940   5.667   6.819 -0.7659 -0.6807  3.5011
  176SAPI    C320008   0.472   5.916   6.891  0.2913  0.0488 -0.9648
  176SAPI    HX20009   0.387   5.845   6.896 -2.0262  2.5644 -2.0835
  176SAPI    HY20010   0.433   6.020   6.882  0.8889  0.1958 -2.1420
  176SAPI   O3120011   0.551   5.886   7.010 -0.6211  0.3190  0.1385
  176SAPI   C3120012   0.615   5.985   7.057 -0.8059  0.6092 -0.6232
  176SAPI   O3220013   0.620   6.099   7.019 -0.3305  0.5852 -0.4063
  176SAPI   C3220014   0.694   5.938   7.176  0.3280  0.1661 -0.2276
  176SAPI   H2X20015   0.758   5.856   7.139 -0.5632 -0.3751 -0.5789
  176SAPI   H2Y20016   0.630   5.883   7.248  0.5616 -1.4958 -1.2563
  176SAPI   C2320017   0.783   5.528   6.878  0.3561  0.0024  0.1171
  176SAPI   H3R20018   0.841   5.437   6.852  0.7108  0.1093  0.5330
  176SAPI   H3S20019   0.677   5.519   6.844  0.2075  1.6048  0.0647
  176SAPI   C2420020   0.778   5.553   7.034  0.5026  0.1316  0.6589
  176SAPI   H4R20021   0.729   5.466   7.083  2.7276 -1.0543  0.9277
  176SAPI   H4S20022   0.717   5.643   7.054  1.3718  0.4500  1.9571
  176SAPI   C2520023   0.912   5.560   7.096  0.9496 -0.5667 -0.0589
  176SAPI   H5R20024   0.991   5.598   7.029  2.2915 -0.4273  1.5528
  176SAPI   C2620025   0.931   5.577   7.229 -0.2610 -0.4353 -0.0245
  176SAPI   H6R20026   1.036   5.577   7.262 -0.7031  0.6569  1.4970
  176SAPI   C2720027   0.826   5.585   7.338 -0.5041 -0.0505  0.3547
  176SAPI   H7R20028   0.727   5.554   7.299 -0.7965  1.6018 -0.3076
  176SAPI   H7S20029   0.811   5.690   7.373 -1.3285 -0.1643  0.3733
  176SAPI   C2820030   0.860   5.501   7.460  1.1852  0.3641  0.2459
  176SAPI   H8R20031   0.883   5.396   7.434 -1.7073 -0.2195 -0.3841
  176SAPI   C2920032   0.844   5.529   7.587 -0.7822 -1.2015 -0.9606
  176SAPI   H9R20033   0.887   5.461   7.662  1.4374  0.2909 -0.7872
  176SAPI  C21020034   0.799   5.668   7.651  0.1136 -0.2658  0.6509
  176SAPI  H10R20035   0.804   5.751   7.577  0.2120 -2.1310 -1.5362
  176SAPI  H10S20036   0.873   5.693   7.729 -1.1528 -1.0334  2.1550
  176SAPI  C21120037   0.664   5.649   7.715  0.8992  0.6437 -0.0756
  176SAPI  H11R20038   0.584   5.613   7.649 -0.8240  0.3456  2.0571
  176SAPI  C21220039   0.633   5.658   7.843 -0.5006 -0.4684  0.2923
  176SAPI  H12R20040   0.527   5.652   7.870 -0.6831  2.3178  0.4771
  176SAPI  C21320041   0.728   5.697   7.959  0.0756  0.0867 -0.6608
  176SAPI  H13R20042   0.819   5.755   7.930 -0.8386  2.3142  0.7330
  176SAPI  H13S20043   0.763   5.598   7.995 -0.5129  0.5733  1.3556
  176SAPI  C21420044   0.649   5.760   8.071  0.2650  0.5325 -0.1778
  176SAPI  H14R20045   0.648   5.869   8.059  0.1738  0.3560 -2.1226
  176SAPI  C21520046   0.575   5.700   8.163  0.9802 -0.2853 -0.0392
  176SAPI  H15R20047   0.528   5.761   8.241 -0.4532 -0.5640 -0.6574
  176SAPI  C21620048   0.544   5.548   8.174  0.1700 -1.1469  0.6061
  176SAPI  H16R20049   0.627   5.499   8.118 -0.0361  0.3572 -1.1235
  176SAPI  H16S20050   0.445   5.529   8.128  0.6675  0.0070 -1.0286
  176SAPI  C21720051   0.560   5.496   8.311 -0.8150 -0.1138  0.2639
  176SAPI  H17R20052   0.663   5.526   8.341 -0.6137  0.1805 -0.6919
  176SAPI  H17S20053   0.560   5.385   8.319  1.9664 -0.1203  1.0986
  176SAPI  C21820054   0.460   5.547   8.410  0.5811 -0.0280  0.1448
  176SAPI  H18R20055   0.358   5.568   8.372  0.6032  0.9513  0.5952
  176SAPI  H18S20056   0.496   5.644   8.452 -2.6032  1.0754  0.6055
  176SAPI  C21920057   0.427   5.452   8.518  0.1567  0.5187  0.4511
  176SAPI  H19R20058   0.520   5.431   8.575 -0.6436 -1.7839  1.0124
  176SAPI  H19S20059   0.401   5.352   8.476  1.8819  0.1818  0.0978
  176SAPI  C22020060   0.318   5.501   8.609 -1.1383 -0.1980 -0.2732
  176SAPI  H20R20061   0.223   5.511   8.551 -1.2666 -1.2951 -0.2727
  176SAPI  H20S20062   0.336   5.602   8.650  1.5174 -1.1399  1.0877
  176SAPI  H20T20063   0.301   5.431   8.693  2.4426  0.5005  1.1765
  176SAPI   C3320064   0.773   6.047   7.248 -0.3828 -0.2456 -0.5195
  176SAPI   H3X20065   0.709   6.130   7.286  0.3598  0.4629 -0.7875
  176SAPI   H3Y20066   0.851   6.095   7.185  1.2246 -1.2438  0.6541
  176SAPI   C3420067   0.852   5.989   7.363  0.1222  0.2471 -0.7193
  176SAPI   H4X20068   0.916   5.902   7.337 -0.2125 -0.8711  1.8089
  176SAPI   H4Y20069   0.770   5.962   7.434  1.0719 -1.0265 -0.0559
  176SAPI   C3520070   0.929   6.099   7.436 -0.2774 -0.0508 -0.3260
  176SAPI   H5X20071   0.856   6.177   7.465  0.3495  0.9678 -1.4220
  176SAPI   H5Y20072   1.002   6.144   7.366  0.4368 -1.8905 -0.8439
  176SAPI   C3620073   0.994   6.046   7.565  0.1303  0.1549 -0.9534
  176SAPI   H6X20074   1.077   5.976   7.543  0.1859 -0.5468  1.3124
  176SAPI   H6Y20075   0.917   5.996   7.628  2.4459 -1.7952  0.4876
  176SAPI   C3720076   1.072   6.155   7.646  0.4973 -0.9666  0.2872
  176SAPI   H7X20077   1.006   6.236   7.684  0.1083 -1.6517  1.1084
  176SAPI   H7Y20078   1.141   6.199   7.571 -0.9238  2.2532  0.6816
  176SAPI   C3820079   1.148   6.096   7.771 -0.2503 -0.3749 -0.5001
  176SAPI   H8X20080   1.220   6.174   7.804 -1.6420  0.1599  1.4409
  176SAPI   H8Y20081   1.209   6.007   7.744  0.6480  0.0771  0.0126
  176SAPI   C3920082   1.049   6.059   7.891  0.2009 -0.0523  0.4514
  176SAPI   H9X20083   0.993   5.967   7.867 -0.6154  0.3067  0.9423
  176SAPI   H9Y20084   0.973   6.137   7.913  0.1154  0.1522 -0.5176
  176SAPI  C31020085   1.119   6.038   8.026  0.2386 -0.7574  0.1577
  176SAPI  H10X20086   1.220   5.995   8.011  0.1890 -0.7572 -0.1889
  176SAPI  H10Y20087   1.054   5.982   8.097 -1.0034  1.2780  0.7077
  176SAPI  C31120088   1.144   6.173   8.091 -0.2567  0.0945  0.2256
  176SAPI  H11X20089   1.049   6.231   8.096 -0.7338 -0.6713  0.2877
  176SAPI  H11Y20090   1.219   6.225   8.028  1.3579  0.2267  2.1658
  176SAPI  C31220091   1.208   6.166   8.227  0.0652  0.9850 -0.3045
  176SAPI  H12X20092   1.312   6.129   8.227 -0.4936 -0.6519  0.5037
  176SAPI  H12Y20093   1.155   6.087   8.284 -0.1701  0.9471 -0.5701
  176SAPI  C31320094   1.188   6.295   8.305 -0.3509 -0.4577 -0.2988
  176SAPI  H13X20095   1.080   6.299   8.327  0.1083 -0.1147  2.1347
  176SAPI  H13Y20096   1.238   6.380   8.253 -0.7002 -0.4192 -0.5720
  176SAPI  C31420097   1.275   6.289   8.440 -0.0445  0.1319 -0.0048
  176SAPI  H14X20098   1.384   6.282   8.423  0.0530  0.3493  0.4996
  176SAPI  H14Y20099   1.252   6.191   8.488  1.2471  0.2525  0.8952
  176SAPI  C31520100   1.244   6.401   8.542 -0.5149 -0.0933  0.2808
  176SAPI  H15X20101   1.138   6.404   8.577 -1.1649 -0.5274 -1.4991
  176SAPI  H15Y20102   1.266   6.494   8.485 -1.8221  0.3407  0.4426
  176SAPI  C31620103   1.344   6.384   8.666  0.3698 -0.3852 -0.3150
  176SAPI  H16X20104   1.447   6.363   8.630  0.8640 -0.9607  1.3323
  176SAPI  H16Y20105   1.318   6.290   8.719  1.9020 -0.6653 -0.0095
  176SAPI  C31720106   1.347   6.503   8.759  0.0684  0.4888 -0.0213
  176SAPI  H17X20107   1.246   6.514   8.802 -0.6549  1.9265 -1.9520
  176SAPI  H17Y20108   1.372   6.589   8.693  2.4934 -1.1709 -1.4279
  176SAPI  C31820109   1.461   6.503   8.853 -0.0920 -0.2391  0.8064
  176SAPI  H18X20110   1.461   6.417   8.923  2.2372 -0.4521  0.6034
  176SAPI  H18Y20111   1.464   6.600   8.906 -0.8099 -0.1021  0.6111
  176SAPI  H18Z20112   1.551   6.498   8.789  0.6906  0.8015  1.7871
  177SLPC     N20113   0.339   6.554  11.023  0.1160 -0.4073 -0.1590
  177SLPC   C1320114   0.267   6.618  11.143  0.3560 -0.0728 -0.0735
  177SLPC  H13A20115   0.183   6.679  11.111  0.1649  0.3104  1.0889
  177SLPC  H13B20116   0.242   6.544  11.217  1.6447  1.7180  2.2642
  177SLPC  H13C20117   0.336   6.679  11.199  3.3464 -2.1459 -1.2666
  177SLPC   C1420118   0.464   6.502  11.081 -0.2965 -0.0309 -0.2782
  177SLPC  H14A20119   0.531   6.583  11.108  0.5708 -0.9522  0.4077
  177SLPC  H14B20120   0.438   6.459  11.177  0.3808  0.1406 -0.0150
  177SLPC  H14C20121   0.508   6.421  11.025 -1.2655  0.0131 -1.1392
  177SLPC   C1520122   0.378   6.674  10.926 -0.1078  0.4343 -0.2438
  177SLPC  H15A20123   0.286   6.722  10.895 -0.5284  0.0171  0.3274
  177SLPC  H15B20124   0.447   6.740  10.976 -1.1075  0.2291  1.4819
  177SLPC  H15C20125   0.432   6.639  10.839 -1.2566 -2.2671  0.0320
  177SLPC   C1220126   0.254   6.458  10.950  0.2775  0.0127  0.5911
  177SLPC  H12A20127   0.154   6.494  10.932  0.3306 -0.2201 -0.1773
  177SLPC  H12B20128   0.246   6.375  11.020 -1.3913 -1.6536 -1.4477
  177SLPC   C1120129   0.310   6.383  10.826 -1.1622 -0.3531  1.0835
  177SLPC  H11A20130   0.350   6.463  10.761  0.2197 -0.8736  1.2475
  177SLPC  H11B20131   0.231   6.322  10.778  1.0863 -2.9738  0.4672
  177SLPC     P20132   0.517   6.238  10.741 -0.0347  0.4383  0.0538
  177SLPC   O1320133   0.598   6.343  10.674  0.1648  1.0106  0.4022
  177SLPC   O1420134   0.583   6.114  10.788  0.1299 -0.0562  0.1800
  177SLPC   O1220135   0.420   6.297  10.858 -0.0108 -0.7071 -0.5154
  177SLPC   O1120136   0.416   6.201  10.630  0.6660  0.5794  0.8473
  177SLPC    C120137   0.359   6.068  10.621  0.1721 -0.0077 -0.7363
  177SLPC    HA20138   0.435   5.988  10.605  0.7075  0.0631  1.1644
  177SLPC    HB20139   0.298   6.045  10.712  3.8582 -0.4463  1.8645
  177SLPC    C220140   0.263   6.059  10.497  0.3370  0.2677 -0.3826
  177SLPC    HS20141   0.220   5.957  10.502 -1.3754  0.9861  0.1646
  177SLPC   O2120142   0.328   6.087  10.368  0.0770 -0.2521  0.1183
  177SLPC   C2120143   0.372   5.982  10.305 -0.6417  0.0483  0.2407
  177SLPC   O2220144   0.381   5.872  10.352  0.8456  0.1214  0.3484
  177SLPC   C2220145   0.402   6.020  10.159 -0.2363 -0.3207  0.3556
  177SLPC   H2R20146   0.312   6.075  10.122  1.6007  2.5159 -0.2263
  177SLPC   H2S20147   0.482   6.097  10.154 -1.0631  0.5249 -3.5171
  177SLPC    C320148   0.135   6.155  10.519 -0.6679  0.0787  0.2379
  177SLPC    HX20149   0.166   6.262  10.522  0.3445 -0.2041  3.6155
  177SLPC    HY20150   0.098   6.138  10.622  1.6395 -2.7255  0.7080
  177SLPC   O3120151   0.032   6.128  10.423 -0.7639  0.2071  0.3743
  177SLPC   C3120152   0.043   6.213  10.313 -0.3675  0.5294  0.0045
  177SLPC   O3220153   0.130   6.298  10.299  0.4410 -0.4779 -0.2672
  177SLPC   C3220154  -0.070   6.180  10.219 -0.5509  0.2337 -0.3878
  177SLPC   H2X20155  -0.131   6.270  10.195 -0.4011 -0.0199 -1.8422
  177SLPC   H2Y20156  -0.141   6.110  10.268  0.7560 -1.3912 -0.7132
  177SLPC   C2320157   0.419   5.902  10.055 -0.4585  0.4416  0.3208
  177SLPC   H3R20158   0.336   5.828  10.057 -2.2090  2.1253 -2.5334
  177SLPC   H3S20159   0.513   5.853  10.086  0.1613  0.2253 -1.7645
  177SLPC   C2420160   0.433   5.939   9.904 -0.6621  0.4314 -1.1613
  177SLPC   H4R20161   0.522   6.005   9.895  2.1271 -2.0379  3.8010
  177SLPC   H4S20162   0.342   5.992   9.871 -1.1992  0.3962  0.2173
  177SLPC   C2520163   0.455   5.806   9.821  0.1282  0.0236 -0.2615
  177SLPC   H5R20164   0.369   5.736   9.827 -0.1174  0.4231  1.5248
  177SLPC   H5S20165   0.540   5.751   9.868  1.6531  0.5075 -2.3325
  177SLPC   C2620166   0.501   5.827   9.677  0.6537  0.1733  0.2684
  177SLPC   H6R20167   0.554   5.735   9.644 -0.1731 -0.8368  1.6622
  177SLPC   H6S20168   0.578   5.906   9.681  0.5236  0.2607  1.0820
  177SLPC   C2720169   0.382   5.866   9.575  0.0074 -0.4075  0.2565
  177SLPC   H7R20170   0.350   5.969   9.605  0.2601  0.1437 -1.2663
  177SLPC   H7S20171   0.298   5.797   9.596  0.1463 -1.5075 -2.4601
  177SLPC   C2820172   0.423   5.876   9.424 -0.0500 -0.3620 -0.6580
  177SLPC   H8R20173   0.514   5.940   9.416  1.1994 -2.0127 -0.2866
  177SLPC   H8S20174   0.332   5.925   9.385 -1.5515 -1.0732  1.7402
  177SLPC   C2920175   0.457   5.743   9.361 -0.5737 -0.7174 -0.1136
  177SLPC   H9R20176   0.441   5.653   9.423 -1.3308 -0.8459 -0.4847
  177SLPC  C21020177   0.504   5.730   9.236  0.5431 -0.0342  0.9274
  177SLPC  H10R20178   0.533   5.627   9.208 -2.7249 -0.1586 -2.6665
  177SLPC  C21120179   0.536   5.842   9.139  0.1124 -0.2806  0.0742
  177SLPC  H11R20180   0.544   5.932   9.204 -0.1634 -1.0941  1.2704
  177SLPC  H11S20181   0.635   5.826   9.092  0.1527  0.0575  0.0463
  177SLPC  C21220182   0.436   5.871   9.030  0.1758  0.5216  0.1031
  177SLPC  H12R20183   0.352   5.940   9.050  0.2088  1.6468 -2.9917
  177SLPC  C21320184   0.444   5.820   8.907  0.6252 -0.3758  0.6100
  177SLPC  H13R20185   0.354   5.848   8.849 -1.4445  1.7052  4.4167
  177SLPC  C21420186   0.544   5.732   8.848  0.2845  0.9179  0.5791
  177SLPC  H14R20187   0.490   5.653   8.789  1.6881  1.3928 -1.4392
  177SLPC  H14S20188   0.616   5.674   8.909 -1.8718 -0.9787  1.4926
  177SLPC  C21520189   0.634   5.798   8.739 -0.0762 -0.4730 -0.1850
  177SLPC  H15R20190   0.684   5.889   8.778 -1.4871  0.9706 -1.5759
  177SLPC  H15S20191   0.592   5.836   8.643  2.5140 -2.5774 -2.2980
  177SLPC  C21620192   0.740   5.705   8.684  0.1000  0.2965 -0.0506
  177SLPC  H16R20193   0.698   5.644   8.601  1.9712  0.5772 -1.2763
  177SLPC  H16S20194   0.772   5.630   8.759 -2.1015  0.7629  1.4445
  177SLPC  C21720195   0.859   5.778   8.623 -0.1056 -0.2591  0.3917
  177SLPC  H17R20196   0.945   5.710   8.641  0.3562  0.2083 -0.0508
  177SLPC  H17S20197   0.889   5.871   8.676  2.8708  0.1990 -1.8439
  177SLPC  C21820198   0.853   5.813   8.477  0.6879 -0.9507 -0.2061
  177SLPC  H18R20199   0.825   5.726   8.412 -1.1334  0.4217 -1.3767
  177SLPC  H18S20200   0.940   5.864   8.432  1.5897 -1.6928  0.6510
  177SLPC  H18T20201   0.757   5.866   8.456  0.4133 -1.3773 -0.0553
  177SLPC   C3320202  -0.027   6.122  10.082 -0.1669  0.2708  0.8653
  177SLPC   H3X20203  -0.115   6.075  10.032  0.5479  0.2962 -0.4838
  177SLPC   H3Y20204   0.054   6.046  10.090 -0.3849 -0.0071  0.4503
  177SLPC   C3420205   0.042   6.225   9.988 -0.4623  0.2332 -0.8072
  177SLPC   H4X20206   0.135   6.252  10.041  0.4812 -0.5815 -2.0011
  177SLPC   H4Y20207  -0.022   6.314   9.965 -0.8049 -0.3089 -2.0243
  177SLPC   C3520208   0.090   6.172   9.850  0.9551 -0.3986  0.1974
  177SLPC   H5X20209   0.147   6.077   9.861 -1.0977 -1.7357 -0.2034
  177SLPC   H5Y20210   0.166   6.241   9.806  1.9331 -1.5839 -0.0553
  177SLPC   C3620211  -0.028   6.143   9.752  0.0192 -0.5372 -0.3671
  177SLPC   H6X20212  -0.073   6.244   9.736  1.7930  0.4866  0.7278
  177SLPC   H6Y20213  -0.100   6.069   9.793  0.0608  0.0867  0.9023
  177SLPC   C3720214   0.020   6.106   9.612 -0.0778 -0.1760 -0.1090
  177SLPC   H7X20215   0.102   6.031   9.617 -0.5675 -0.7736 -0.8262
  177SLPC   H7Y20216   0.059   6.200   9.569 -1.1204  1.5814  2.5272
  177SLPC   C3820217  -0.094   6.044   9.527 -0.1210  0.3556  0.9958
  177SLPC   H8X20218  -0.178   6.112   9.550 -0.4934  0.6084 -0.9059
  177SLPC   H8Y20219  -0.116   5.941   9.563  1.4095 -1.2360 -2.1869
  177SLPC   C3920220  -0.065   6.044   9.379 -0.1253 -0.1969 -0.4967
  177SLPC   H9X20221  -0.026   6.145   9.356 -2.4337  0.4260 -1.9747
  177SLPC   H9Y20222  -0.165   6.034   9.331 -0.8754  2.3253  0.3627
  177SLPC  C31020223   0.035   5.937   9.337 -0.3465 -0.6534 -0.3930
  177SLPC  H10X20224   0.037   5.862   9.419 -1.7385 -1.9614 -1.4791
  177SLPC  H10Y20225   0.136   5.980   9.323 -0.2026 -1.2714 -1.3583
  177SLPC  C31120226  -0.007   5.854   9.212 -0.2245 -0.3059  0.1520
  177SLPC  H11X20227  -0.106   5.817   9.245 -0.6805  1.8706  1.4426
  177SLPC  H11Y20228   0.075   5.779   9.206  2.5227  2.3156  1.8561
  177SLPC  C31220229  -0.010   5.946   9.084  0.2880  0.5607  1.0877
  177SLPC  H12X20230   0.086   6.001   9.078 -0.1997  1.3006 -1.2815
  177SLPC  H12Y20231  -0.086   6.025   9.100  1.0521  0.9039  3.3576
  177SLPC  C31320232  -0.022   5.867   8.953  0.3579  0.4647  0.4375
  177SLPC  H13X20233  -0.132   5.849   8.953  0.5442 -0.8342  1.3710
  177SLPC  H13Y20234   0.022   5.765   8.961 -0.4612 -0.0649 -1.1635
  177SLPC  C31420235   0.025   5.953   8.826 -0.1725  0.1798  0.6616
  177SLPC  H14X20236   0.132   5.978   8.834  0.9512 -4.1125  2.0860
  177SLPC  H14Y20237  -0.034   6.047   8.826  3.6072  2.8132  2.2890
  177SLPC  C31520238  -0.001   5.879   8.692  0.6893  0.3639 -0.1803
  177SLPC  H15X20239   0.075   5.800   8.675 -0.3501 -0.7329  0.0991
  177SLPC  H15Y20240   0.011   5.947   8.605 -1.9268  0.4680 -0.5358
  177SLPC  C31620241  -0.137   5.808   8.678 -0.5333 -0.0440  0.1906
  177SLPC  H16X20242  -0.217   5.885   8.689 -0.1513  0.4409 -0.3660
  177SLPC  H16Y20243  -0.148   5.727   8.753  1.8679  0.0899  0.7625
  177SLPC  C31720244  -0.164   5.761   8.527 -0.2609  0.6530  0.2499
  177SLPC  H17X20245  -0.091   5.826   8.475  3.1271 -0.6474  3.0239
  177SLPC  H17Y20246  -0.263   5.783   8.482  0.9314  0.0978 -2.9064
  177SLPC  C31820247  -0.132   5.613   8.491  0.5240 -0.2347  0.2964
  177SLPC  H18X20248  -0.026   5.593   8.518  0.2261 -1.9457  0.3503
  177SLPC  H18Y20249  -0.145   5.596   8.382  0.6874 -1.9904  0.5062
  177SLPC  H18Z20250  -0.198   5.541   8.546  0.3720  1.2079  2.0949
  178SLPC     N20251   0.899   6.067  10.997 -0.0594 -0.2840  0.7638
  178SLPC   C1320252   1.010   6.090  11.094 -0.2477 -0.6179  0.0711
  178SLPC  H13A20253   1.002   6.192  11.129  0.6485 -0.2195 -0.8136
  178SLPC  H13B20254   1.008   6.016  11.172 -1.3328 -1.5814 -0.8430
  178SLPC  H13C20255   1.107   6.092  11.045  0.2713 -0.4650  1.0824
  178SLPC   C1420256   0.784   6.023  11.079 -0.2460 -0.3437  0.1347
  178SLPC  H14A20257   0.695   5.991  11.025 -1.6567  0.0548  2.1087
  178SLPC  H14B20258   0.817   5.931  11.125  0.7550  0.0004  0.1247
  178SLPC  H14C20259   0.752   6.098  11.149  0.3142  0.8225 -0.8308
  178SLPC   C1520260   0.928   5.956  10.899 -0.7497 -0.3018 -0.0547
  178SLPC  H15A20261   0.859   5.959  10.816 -0.7059 -0.3716 -0.0933
  178SLPC  H15B20262   1.028   5.968  10.860  0.2008  0.0275  2.2623
  178SLPC  H15C20263   0.942   5.864  10.953 -1.2421  0.0801  0.7507
  178SLPC   C1220264   0.870   6.192  10.918  0.0723  0.3157 -1.1241
  178SLPC  H12A20265   0.857   6.267  10.994  2.5600 -1.4794  1.2606
  178SLPC  H12B20266   0.777   6.187  10.864 -1.8791 -0.3574  2.0803
  178SLPC   C1120267   0.981   6.231  10.815 -0.2138 -0.2177 -0.1870
  178SLPC  H11A20268   0.935   6.302  10.744  0.6327  0.1043 -0.4350
  178SLPC  H11B20269   1.018   6.145  10.755  2.5699  0.4684  0.3808
  178SLPC     P20270   1.104   6.415  10.958  0.3627 -0.3192 -0.4880
  178SLPC   O1320271   0.976   6.457  11.019 -0.1673  0.3411 -0.0867
  178SLPC   O1420272   1.222   6.412  11.047  0.0107 -0.2421  0.2511
  178SLPC   O1220273   1.097   6.276  10.885 -0.6647 -0.2866  0.0524
  178SLPC   O1120274   1.130   6.515  10.846 -0.6574  0.0339 -0.1193
  178SLPC    C120275   1.262   6.560  10.806 -0.5412  0.2913  0.3696
  178SLPC    HA20276   1.244   6.655  10.750 -0.3627 -1.3185 -2.5844
  178SLPC    HB20277   1.328   6.594  10.889  1.6937 -0.6120 -0.9548
  178SLPC    C220278   1.348   6.458  10.721 -0.4866 -0.7880 -0.0083
  178SLPC    HS20279   1.439   6.519  10.700 -0.9786 -0.3043 -0.7610
  178SLPC   O2120280   1.266   6.405  10.614 -0.5067  0.1486 -0.3536
  178SLPC   C2120281   1.249   6.491  10.519  0.3117 -0.0109 -0.1207
  178SLPC   O2220282   1.313   6.595  10.507 -0.0252 -0.4688  0.2341
  178SLPC   C2220283   1.129   6.455  10.444 -0.1904  0.4331 -0.8260
  178SLPC   H2R20284   1.080   6.366  10.491  1.1584  0.8352  1.5250
  178SLPC   H2S20285   1.059   6.541  10.451 -1.0745 -0.2704 -0.7881
  178SLPC    C320286   1.406   6.341  10.796  0.2002  0.1008  0.6505
  178SLPC    HX20287   1.327   6.263  10.798 -1.7723  1.9826 -0.1149
  178SLPC    HY20288   1.416   6.362  10.905  0.6933 -0.8348  0.7955
  178SLPC   O3120289   1.534   6.292  10.741 -0.2583 -0.3157  0.0368
  178SLPC   C3120290   1.656   6.333  10.798 -0.2598  0.1679  0.2312
  178SLPC   O3220291   1.662   6.386  10.906  0.3913 -0.2251  0.2743
  178SLPC   C3220292   1.777   6.318  10.700  0.6532  0.5943 -0.7180
  178SLPC   H2X20293   1.866   6.292  10.762 -1.0118 -1.1088  1.0657
  178SLPC   H2Y20294   1.799   6.423  10.669  1.9632  0.6776  0.3580
  178SLPC   C2320295   1.153   6.432  10.289  0.4417 -0.5556  0.7631
  178SLPC   H3R20296   1.154   6.323  10.269  1.1945 -0.2475 -1.1018
  178SLPC   H3S20297   1.261   6.455  10.271  0.7310 -3.3053 -1.7511
  178SLPC   C2420298   1.061   6.518  10.205 -0.2638 -0.0459 -0.0362
  178SLPC   H4R20299   1.110   6.619  10.202  2.1083 -1.1357 -1.1125
  178SLPC   H4S20300   0.965   6.531  10.259 -0.1864 -1.9621  0.6130
  178SLPC   C2520301   1.047   6.455  10.065 -0.3256 -0.4701 -0.7586
  178SLPC   H5R20302   0.938   6.445  10.049 -0.9657  0.8614  2.0724
  178SLPC   H5S20303   1.093   6.354  10.067  2.2006  0.5937 -0.8308
  178SLPC   C2620304   1.104   6.550   9.956 -0.5089 -0.4875  0.2673
  178SLPC   H6R20305   1.213   6.550   9.975 -0.3785  3.1201  0.1505
  178SLPC   H6S20306   1.076   6.654   9.984  0.1636 -0.6827  1.7741
  178SLPC   C2720307   1.084   6.488   9.817  0.4571  0.2064 -0.0282
  178SLPC   H7R20308   1.103   6.378   9.810 -1.3101 -0.1650  0.4753
  178SLPC   H7S20309   1.159   6.538   9.752 -0.2561  1.7199  0.2797
  178SLPC   C2820310   0.945   6.502   9.759 -0.1572  0.0098 -0.7332
  178SLPC   H8R20311   0.939   6.607   9.722 -1.0069  1.0410  2.1027
  178SLPC   H8S20312   0.870   6.491   9.840  1.6579  0.0387  1.0004
  178SLPC   C2920313   0.916   6.419   9.639 -0.5246  0.0891  0.4002
  178SLPC   H9R20314   0.912   6.309   9.648  0.2968  0.0022 -0.2638
  178SLPC  C21020315   0.907   6.450   9.513  0.2065 -0.2898  0.0685
  178SLPC  H10R20316   0.899   6.366   9.443  1.0380  0.2114 -0.6388
  178SLPC  C21120317   0.920   6.590   9.452 -0.2606 -0.2135  0.2679
  178SLPC  H11R20318   0.938   6.678   9.517 -4.4526  0.9584  0.1374
  178SLPC  H11S20319   0.817   6.604   9.412  0.0574 -0.0780 -0.5327
  178SLPC  C21220320   1.026   6.605   9.339  0.2831 -0.0642  0.1544
  178SLPC  H12R20321   1.127   6.581   9.375 -0.6789 -2.5018  1.5394
  178SLPC  C21320322   1.017   6.630   9.210  0.4925  0.0056  1.0259
  178SLPC  H13R20323   1.111   6.623   9.154  0.5969 -1.4767  1.3255
  178SLPC  C21420324   0.885   6.653   9.137  0.4727 -0.3366 -0.0512
  178SLPC  H14R20325   0.813   6.682   9.216  0.9155 -0.3549  0.3649
  178SLPC  H14S20326   0.856   6.559   9.086  1.5840 -0.1388 -1.1038
  178SLPC  C21520327   0.891   6.766   9.035 -0.3732 -0.3454  0.2763
  178SLPC  H15R20328   0.941   6.856   9.075 -0.2293 -0.5807  0.6339
  178SLPC  H15S20329   0.785   6.789   9.015 -0.1379  0.4150 -0.0996
  178SLPC  C21620330   0.968   6.720   8.910 -0.4969 -0.1539  0.2991
  178SLPC  H16R20331   0.918   6.629   8.869 -1.2884 -0.4935  1.9290
  178SLPC  H16S20332   1.073   6.701   8.940 -0.6578 -1.4909  0.0962
  178SLPC  C21720333   0.987   6.829   8.798  0.2056  0.5726  0.7384
  178SLPC  H17R20334   1.076   6.804   8.736 -0.7723  2.1703 -1.4565
  178SLPC  H17S20335   1.010   6.928   8.843 -0.2734  1.3314 -0.6014
  178SLPC  C21820336   0.856   6.852   8.713 -0.0053  0.7658  0.4247
  178SLPC  H18R20337   0.871   6.938   8.645 -0.3451  1.5487  1.3212
  178SLPC  H18S20338   0.784   6.875   8.794  1.2364  2.1715  1.1825
  178SLPC  H18T20339   0.827   6.757   8.663  3.1146  1.2381 -2.6743
  178SLPC   C3320340   1.752   6.222  10.578  0.8900 -0.6491 -0.0452
  178SLPC   H3X20341   1.654   6.253  10.536  0.7316 -0.5144  0.4212
  178SLPC   H3Y20342   1.756   6.116  10.611  6.2025 -0.4448  0.8789
  178SLPC   C3420343   1.850   6.244  10.465  0.2995 -0.3417 -0.1302
  178SLPC   H4X20344   1.948   6.197  10.484 -1.0790 -2.7775  1.4503
  178SLPC   H4Y20345   1.857   6.353  10.441  0.6336 -0.2225  0.5056
  178SLPC   C3520346   1.801   6.164  10.342  0.2945  0.1900 -0.5128
  178SLPC   H5X20347   1.710   6.217  10.308  0.3088 -0.3169 -1.3639
  178SLPC   H5Y20348   1.778   6.060  10.373 -0.1460  0.2846 -0.5244
  178SLPC   C3620349   1.893   6.161  10.212  0.6888  0.1492  0.3018
  178SLPC   H6X20350   1.990   6.118  10.246  1.0673 -0.0962 -1.0178
  178SLPC   H6Y20351   1.917   6.267  10.188 -1.2535  0.3400 -1.0353
  178SLPC   C3720352   1.844   6.087  10.082 -0.0399 -0.2560 -0.0380
  178SLPC   H7X20353   1.757   6.140  10.038  1.8330  0.8866 -2.6148
  178SLPC   H7Y20354   1.809   5.989  10.120 -1.1552  0.4306  0.7847
  178SLPC   C3820355   1.953   6.083   9.967  0.1381 -0.6959 -0.2485
  178SLPC   H8X20356   2.046   6.041  10.010 -1.3787 -3.7930  0.2509
  178SLPC   H8Y20357   1.958   6.188   9.931  0.2325 -0.5576  0.1629
  178SLPC   C3920358   1.912   6.009   9.847 -0.2259  0.7896  0.3778
  178SLPC   H9X20359   1.811   6.040   9.813 -0.5067  1.6644  1.9010
  178SLPC   H9Y20360   1.911   5.899   9.862 -2.7027  0.9828  2.3515
  178SLPC  C31020361   2.000   6.045   9.729 -0.1659  0.1934  0.2865
  178SLPC  H10X20362   2.105   6.028   9.761  0.0756  1.0495 -0.0335
  178SLPC  H10Y20363   1.987   6.150   9.697 -2.6166 -0.0964  0.1589
  178SLPC  C31120364   1.972   5.945   9.610 -0.6362 -0.2969 -0.7041
  178SLPC  H11X20365   1.881   5.987   9.561 -0.5288  1.8116  0.7809
  178SLPC  H11Y20366   1.962   5.839   9.642  0.1688 -0.6726 -1.6536
  178SLPC  C31220367   2.089   5.960   9.507  0.8389  0.4279 -0.2312
  178SLPC  H12X20368   2.124   6.065   9.516 -1.0213  1.0741 -0.0559
  178SLPC  H12Y20369   2.044   5.936   9.408 -0.5691 -2.3519  0.9594
  178SLPC  C31320370   2.204   5.867   9.545 -0.1104  0.6337  0.6124
  178SLPC  H13X20371   2.187   5.808   9.638 -2.0952 -0.9749 -0.7058
  178SLPC  H13Y20372   2.292   5.931   9.567  0.4310 -0.5083  1.9775
  178SLPC  C31420373   2.236   5.762   9.442  0.3186  0.2433  0.1485
  178SLPC  H14X20374   2.148   5.700   9.414 -0.8348  1.0871  1.7371
  178SLPC  H14Y20375   2.324   5.707   9.482 -0.4097  0.3515  1.9939
  178SLPC  C31520376   2.284   5.826   9.308  0.1762  0.8794  0.6083
  178SLPC  H15X20377   2.203   5.893   9.271 -1.7750 -1.4562  0.3997
  178SLPC  H15Y20378   2.374   5.889   9.317  1.9277 -1.2912 -0.8627
  178SLPC  C31620379   2.304   5.705   9.214 -0.2195  1.0755 -0.1741
  178SLPC  H16X20380   2.206   5.656   9.197  0.9450 -1.2930 -0.5605
  178SLPC  H16Y20381   2.366   5.626   9.261 -1.7327 -1.8216 -2.6324
  178SLPC  C31720382   2.360   5.734   9.069 -0.4798  0.3647 -0.3043
  178SLPC  H17X20383   2.362   5.639   9.011 -0.5353  1.1263 -1.5879
  178SLPC  H17Y20384   2.460   5.780   9.077 -0.9530  1.3340  0.2432
  178SLPC  C31820385   2.285   5.845   8.990  0.2951  0.5487 -0.2131
  178SLPC  H18X20386   2.332   5.880   8.896  2.0043  0.4084  0.5570
  178SLPC  H18Y20387   2.272   5.932   9.057  1.5819  2.0941 -1.8587
  178SLPC  H18Z20388   2.183   5.814   8.957 -0.4055  1.4448  1.0545
  179SLPC     N20389   1.706   3.537  10.717 -1.2559 -0.0421 -0.1107
  179SLPC   C1320390   1.609   3.443  10.779 -0.5190  0.6831 -0.9415
  179SLPC  H13A20391   1.641   3.342  10.759  1.5722  1.2010 -0.4126
  179SLPC  H13B20392   1.600   3.443  10.887  0.2417 -0.2352 -0.8637
  179SLPC  H13C20393   1.508   3.465  10.746 -1.9495  0.1644  2.5979
  179SLPC   C1420394   1.839   3.513  10.783  0.2554 -0.1126  0.1521
  179SLPC  H14A20395   1.918   3.581  10.755 -0.0628 -0.5467 -1.9882
  179SLPC  H14B20396   1.828   3.522  10.890  0.0155  0.6440  0.0634
  179SLPC  H14C20397   1.876   3.413  10.761  3.6738  1.2771 -1.0942
  179SLPC   C1520398   1.667   3.679  10.752 -0.4289 -0.5807  0.6033
  179SLPC  H15A20399   1.579   3.703  10.694 -0.5069 -0.0904  0.9211
  179SLPC  H15B20400   1.642   3.684  10.857  1.4973  1.8584  1.0463
  179SLPC  H15C20401   1.752   3.742  10.731 -2.2877  1.3573 -1.7000
  179SLPC   C1220402   1.707   3.508  10.572 -0.4069  0.1503 -0.3358
  179SLPC  H12A20403   1.791   3.557  10.526  0.4802 -1.5256 -0.6027
  179SLPC  H12B20404   1.613   3.527  10.523  0.3823  0.3084 -1.8534
  179SLPC   C1120405   1.725   3.364  10.530  0.8540 -0.0140 -0.8995
  179SLPC  H11A20406   1.802   3.313  10.592 -0.5943 -1.9277 -0.5944
  179SLPC  H11B20407   1.761   3.357  10.425 -0.5999  1.2769 -1.5190
  179SLPC     P20408   1.473   3.317  10.447  0.0420 -0.3996 -0.1053
  179SLPC   O1320409   1.377   3.226  10.504 -0.0578 -0.3169  0.3381
  179SLPC   O1420410   1.435   3.460  10.446 -0.9604 -0.0186 -0.1944
  179SLPC   O1220411   1.596   3.302  10.540 -0.3649  0.3417 -0.3999
  179SLPC   O1120412   1.515   3.263  10.298  0.4184  0.3147  0.2665
  179SLPC    C120413   1.525   3.352  10.186  0.8160  0.0588  0.4905
  179SLPC    HA20414   1.599   3.431  10.207  1.2661  0.6392 -2.8384
  179SLPC    HB20415   1.570   3.304  10.097  0.6441 -0.0492  0.4603
  179SLPC    C220416   1.384   3.401  10.144  0.3944  0.2352  0.3679
  179SLPC    HS20417   1.330   3.448  10.229 -2.7185 -0.2801 -1.1623
  179SLPC   O2120418   1.313   3.289  10.089 -0.7263  0.3333  0.2225
  179SLPC   C2120419   1.187   3.302  10.073 -0.1607 -0.1504  0.0240
  179SLPC   O2220420   1.119   3.404  10.102 -0.4473 -0.6904  0.0587
  179SLPC   C2220421   1.137   3.165  10.012 -0.1497  0.4002  0.3245
  179SLPC   H2R20422   1.207   3.133   9.932 -2.2385  0.2048 -1.5299
  179SLPC   H2S20423   1.152   3.086  10.089 -2.3689 -0.7004 -0.2878
  179SLPC    C320424   1.378   3.514  10.039 -0.4892  0.3414 -0.0251
  179SLPC    HX20425   1.412   3.599  10.101 -1.4320  0.8576 -0.2088
  179SLPC    HY20426   1.278   3.551  10.008 -0.0628 -0.1186 -2.0730
  179SLPC   O3120427   1.470   3.492   9.925 -0.0400 -0.5344  0.3567
  179SLPC   C3120428   1.423   3.427   9.822 -0.1106 -0.0645 -0.0235
  179SLPC   O3220429   1.324   3.350   9.821 -0.2842 -0.3284 -0.8938
  179SLPC   C3220430   1.508   3.447   9.698  0.3413 -0.6318  0.1534
  179SLPC   H2X20431   1.577   3.359   9.704  1.7484  0.4457  0.4102
  179SLPC   H2Y20432   1.565   3.541   9.715  0.1224 -0.7049  1.4098
  179SLPC   C2320433   0.988   3.156   9.967  0.4960 -0.3325  0.1169
  179SLPC   H3R20434   0.928   3.204  10.047 -2.2314  0.4771 -2.2544
  179SLPC   H3S20435   0.950   3.052   9.962  0.6145 -0.3823  0.2363
  179SLPC   C2420436   0.971   3.239   9.836  0.3916 -0.2611 -0.4737
  179SLPC   H4R20437   1.054   3.310   9.816  0.2014  0.2678  0.5260
  179SLPC   H4S20438   0.882   3.304   9.850  1.4762  0.7653  2.4643
  179SLPC   C2520439   0.960   3.160   9.700  0.2188  0.6889  0.2292
  179SLPC   H5R20440   0.871   3.093   9.705  0.2456  0.6563  0.2740
  179SLPC   H5S20441   1.048   3.094   9.685  0.0170  0.4673  0.0248
  179SLPC   C2620442   0.939   3.245   9.579 -0.3844 -0.0018 -0.2459
  179SLPC   H6R20443   0.866   3.327   9.598  1.8124  1.9718  0.1263
  179SLPC   H6S20444   0.909   3.175   9.498 -0.9969  0.1353 -0.1457
  179SLPC   C2720445   1.080   3.295   9.531  0.5616  0.3968 -0.5852
  179SLPC   H7R20446   1.139   3.216   9.479  0.9274  0.2995 -0.0348
  179SLPC   H7S20447   1.140   3.327   9.619 -0.6191 -0.4636  0.5687
  179SLPC   C2820448   1.055   3.414   9.438 -0.6701 -0.2074 -0.0092
  179SLPC   H8R20449   1.152   3.467   9.423 -1.2345  0.7254 -0.4175
  179SLPC   H8S20450   0.978   3.478   9.487 -0.3792  0.7047 -0.7245
  179SLPC   C2920451   1.014   3.359   9.307  1.4481  0.2369 -0.2599
  179SLPC   H9R20452   0.947   3.272   9.305 -0.0244  1.3423 -2.0774
  179SLPC  C21020453   1.036   3.418   9.185  0.2362  0.3165  0.4809
  179SLPC  H10R20454   0.999   3.364   9.097 -0.3194  0.5364  0.5718
  179SLPC  C21120455   1.102   3.546   9.147  0.6652  0.0302 -0.1563
  179SLPC  H11R20456   1.160   3.529   9.054 -0.5612 -1.6606 -0.6489
  179SLPC  H11S20457   1.176   3.581   9.222 -0.5824 -1.7201  2.0027
  179SLPC  C21220458   1.007   3.654   9.118  0.2278 -0.8481 -0.2244
  179SLPC  H12R20459   0.912   3.643   9.172  0.3842  0.8680  0.4781
  179SLPC  C21320460   1.043   3.783   9.063  0.1609 -0.4056 -0.0264
  179SLPC  H13R20461   0.965   3.859   9.053 -0.4879 -0.9331  0.8606
  179SLPC  C21420462   1.185   3.820   9.021  0.1507 -0.5807 -0.1369
  179SLPC  H14R20463   1.259   3.740   9.041  0.9255  0.3551  0.9002
  179SLPC  H14S20464   1.210   3.924   9.052 -0.9191  0.3862 -2.3307
  179SLPC  C21520465   1.193   3.829   8.865 -0.3301 -0.1133 -0.0945
  179SLPC  H15R20466   1.141   3.742   8.819  0.1506  1.0046 -3.0099
  179SLPC  H15S20467   1.299   3.814   8.835  0.5398  2.5348  1.3369
  179SLPC  C21620468   1.147   3.962   8.810 -0.3447  0.4014  0.2600
  179SLPC  H16R20469   1.218   4.044   8.832  3.0709 -1.8389 -1.5880
  179SLPC  H16S20470   1.047   3.992   8.849 -0.8228  0.2125 -0.7744
  179SLPC  C21720471   1.116   3.955   8.659  0.3965 -0.3155  0.7390
  179SLPC  H17R20472   1.037   4.029   8.632  0.1055 -0.9072 -0.0813
  179SLPC  H17S20473   1.068   3.855   8.648 -2.7339  0.9464  1.7015
  179SLPC  C21820474   1.233   3.950   8.553 -0.2127 -0.2356  0.1754
  179SLPC  H18R20475   1.322   3.884   8.568 -0.4233 -0.6195 -0.2362
  179SLPC  H18S20476   1.275   4.053   8.548 -1.4423  0.3723  1.6685
  179SLPC  H18T20477   1.189   3.923   8.455  0.1564 -0.4586  0.0666
  179SLPC   C3320478   1.439   3.445   9.558  0.5952 -0.4159 -0.1785
  179SLPC   H3X20479   1.346   3.504   9.546 -0.4762 -1.6221  1.7296
  179SLPC   H3Y20480   1.407   3.339   9.544  0.7649 -0.3000 -1.6142
  179SLPC   C3420481   1.537   3.481   9.452  0.5715 -0.2213  0.6177
  179SLPC   H4X20482   1.604   3.393   9.447  2.8338  1.4751 -0.5690
  179SLPC   H4Y20483   1.602   3.569   9.474 -1.3301  1.3976  0.1139
  179SLPC   C3520484   1.482   3.498   9.307  0.3662  0.0188  0.0246
  179SLPC   H5X20485   1.434   3.598   9.303  0.2174  0.0473  1.9544
  179SLPC   H5Y20486   1.405   3.420   9.289 -0.0336  0.0544  1.4995
  179SLPC   C3620487   1.602   3.494   9.221  0.0596  0.1752  0.1541
  179SLPC   H6X20488   1.645   3.392   9.204  0.1008  0.2165  0.0053
  179SLPC   H6Y20489   1.687   3.553   9.262 -0.9189  0.6534  1.5561
  179SLPC   C3720490   1.581   3.568   9.086  0.6868  0.0981 -0.0795
  179SLPC   H7X20491   1.564   3.675   9.110  0.7183 -0.7251  4.4597
  179SLPC   H7Y20492   1.481   3.535   9.053 -1.0867  0.5158  4.1914
  179SLPC   C3820493   1.698   3.541   8.995  0.6843 -0.3261  0.7088
  179SLPC   H8X20494   1.736   3.439   8.976  1.9500  0.2569 -0.0090
  179SLPC   H8Y20495   1.782   3.602   9.035  0.8973 -0.8489  1.0602
  179SLPC   C3920496   1.669   3.597   8.854  0.4112  0.1305 -0.5396
  179SLPC   H9X20497   1.625   3.699   8.853  0.4445  0.1468 -0.2982
  179SLPC   H9Y20498   1.587   3.534   8.814  1.6538 -2.3433  0.6293
  179SLPC  C31020499   1.791   3.592   8.768  0.5831 -0.3877 -0.0436
  179SLPC  H10X20500   1.842   3.494   8.778  0.2600 -0.9766 -3.1241
  179SLPC  H10Y20501   1.863   3.672   8.792  0.4650 -0.7103  1.5165
  179SLPC  C31120502   1.749   3.599   8.625 -0.2994  0.5794  0.6367
  179SLPC  H11X20503   1.698   3.697   8.614  0.0070  0.5684 -1.1486
  179SLPC  H11Y20504   1.668   3.527   8.602 -0.4985  1.4400 -1.6193
  179SLPC  C31220505   1.861   3.577   8.520 -0.0167  0.4760 -1.1227
  179SLPC  H12X20506   1.916   3.490   8.561 -1.6773  0.4645  1.3666
  179SLPC  H12Y20507   1.921   3.670   8.529 -0.7849  0.8793  0.1168
  179SLPC  C31320508   1.803   3.565   8.381 -0.4669 -0.1009  0.6091
  179SLPC  H13X20509   1.716   3.496   8.371 -1.9481  1.8458 -0.8868
  179SLPC  H13Y20510   1.879   3.558   8.301  0.3989  2.6059  1.1018
  179SLPC  C31420511   1.748   3.699   8.328  0.8451 -0.2146 -0.3382
  179SLPC  H14X20512   1.819   3.783   8.344 -1.0720  1.3562  0.3788
  179SLPC  H14Y20513   1.656   3.734   8.379 -1.0900 -1.2211 -2.8802
  179SLPC  C31520514   1.709   3.698   8.182 -0.1969 -0.5655  0.8693
  179SLPC  H15X20515   1.645   3.608   8.168 -0.5400 -0.4947  1.9348
  179SLPC  H15Y20516   1.797   3.712   8.115 -0.4045 -1.4965  0.3898
  179SLPC  C31620517   1.620   3.815   8.135 -0.1490  0.2965  0.5733
  179SLPC  H16X20518   1.617   3.835   8.026 -0.8956 -0.4568  0.4482
  179SLPC  H16Y20519   1.650   3.910   8.185 -1.6487  0.8389  0.4967
  179SLPC  C31720520   1.476   3.786   8.166  0.3163 -0.4843  0.2874
  179SLPC  H17X20521   1.461   3.784   8.276  0.1641 -3.0582  0.2823
  179SLPC  H17Y20522   1.450   3.686   8.124  1.0485 -0.8833  0.7600
  179SLPC  C31820523   1.370   3.878   8.104 -0.1295 -0.8818 -0.4103
  179SLPC  H18X20524   1.273   3.825   8.116 -0.2806 -0.5946 -0.3572
  179SLPC  H18Y20525   1.380   3.891   7.994 -2.1058  3.4345 -0.2759
  179SLPC  H18Z20526   1.378   3.980   8.148  0.2081  0.2429 -2.9250
  180SLPC     N20527   3.977   3.158  10.962 -0.1364  0.2029  0.0905
  180SLPC   C1320528   3.923   3.029  10.995  0.0158 -0.1185 -0.5813
  180SLPC  H13A20529   3.884   3.017  11.095  2.6487  0.8117  0.6455
  180SLPC  H13B20530   3.838   3.005  10.933 -1.0639  1.4584  0.2318
  180SLPC  H13C20531   3.996   2.950  10.982  0.8056  0.5300 -0.1480
  180SLPC   C1420532   4.101   3.169  11.036  0.2502 -0.0385  0.0912
  180SLPC  H14A20533   4.173   3.238  10.994  0.5713  1.7899  3.2826
  180SLPC  H14B20534   4.077   3.206  11.134 -1.6244  0.8355 -0.6469
  180SLPC  H14C20535   4.148   3.072  11.043  1.1386  0.2158 -1.6538
  180SLPC   C1520536   3.875   3.267  11.000  0.1016  0.0000 -0.5246
  180SLPC  H15A20537   3.791   3.248  10.935 -0.4219 -2.5471  0.7745
  180SLPC  H15B20538   3.846   3.273  11.104 -1.8986  1.5431 -1.1198
  180SLPC  H15C20539   3.912   3.362  10.964 -0.1927  0.4329  0.2943
  180SLPC   C1220540   3.992   3.151  10.812 -0.3097  0.2013  0.5739
  180SLPC  H12A20541   3.895   3.147  10.764  0.1860 -0.7543 -0.3789
  180SLPC  H12B20542   4.042   3.060  10.785  0.7960  0.1124  2.7155
  180SLPC   C1120543   4.082   3.264  10.738  0.0573  0.2208  0.7597
  180SLPC  H11A20544   4.027   3.360  10.749 -0.5983 -0.0355 -0.1387
  180SLPC  H11B20545   4.082   3.246  10.628  2.1358  0.3142  0.6982
  180SLPC     P20546   4.329   3.208  10.709  0.1167  0.0962  0.1141
  180SLPC   O1320547   4.437   3.167  10.796 -0.6697 -0.3589 -0.3898
  180SLPC   O1420548   4.276   3.104  10.619 -0.1288  0.1462  0.3025
  180SLPC   O1220549   4.216   3.274  10.788 -0.0613  0.4716 -0.1963
  180SLPC   O1120550   4.375   3.334  10.630 -0.5581 -0.3844 -0.4106
  180SLPC    C120551   4.515   3.350  10.603 -0.0539  0.7550 -0.1151
  180SLPC    HA20552   4.549   3.435  10.666 -0.4181  0.6254  0.2585
  180SLPC    HB20553   4.577   3.258  10.604 -3.0641 -1.4313 -0.9648
  180SLPC    C220554   4.534   3.398  10.449  0.1237 -0.5413  0.1521
  180SLPC    HS20555   4.469   3.482  10.419  1.2055 -0.0896 -1.0519
  180SLPC   O2120556   4.512   3.278  10.371 -0.3073  0.0898 -0.5623
  180SLPC   C2120557   4.430   3.289  10.264 -0.5686 -0.1610 -0.1477
  180SLPC   O2220558   4.382   3.391  10.220 -0.3279 -0.0474  0.1725
  180SLPC   C2220559   4.415   3.149  10.201  0.3611  0.5234  0.1460
  180SLPC   H2R20560   4.483   3.077  10.252  0.6453  0.9375  0.3704
  180SLPC   H2S20561   4.315   3.113  10.232  0.5528  1.2713  1.7871
  180SLPC    C320562   4.685   3.442  10.423  0.3755  0.0687 -0.4527
  180SLPC    HX20563   4.758   3.362  10.448 -0.6553 -0.7010  0.1277
  180SLPC    HY20564   4.713   3.521  10.497  2.7342 -2.1704  1.2463
  180SLPC   O3120565   4.701   3.478  10.282 -0.1035  0.3041 -0.7671
  180SLPC   C3120566   4.645   3.590  10.243  0.4759 -0.0704  0.4089
  180SLPC   O3220567   4.608   3.683  10.315  0.5268 -0.0921  0.2477
  180SLPC   C3220568   4.648   3.589  10.089 -0.4639  0.4102 -0.1831
  180SLPC   H2X20569   4.617   3.685  10.042  0.5185  1.3416  0.9913
  180SLPC   H2Y20570   4.578   3.511  10.053  0.7486 -0.4567 -0.7287
  180SLPC   C2320571   4.445   3.157  10.050 -0.1769 -0.7126  0.0835
  180SLPC   H3R20572   4.553   3.185  10.044  0.7433 -3.7573  0.7622
  180SLPC   H3S20573   4.389   3.234   9.993 -0.2926  0.3515  1.5668
  180SLPC   C2420574   4.456   3.025   9.973 -0.2058  0.3605  0.6649
  180SLPC   H4R20575   4.369   2.956   9.979  0.5315 -0.8406 -1.3631
  180SLPC   H4S20576   4.535   2.971  10.028  0.3333  0.0709 -0.3654
  180SLPC   C2520577   4.492   3.046   9.823  0.1245  0.4702  0.0170
  180SLPC   H5R20578   4.537   2.950   9.790 -2.1163 -0.7848  0.4004
  180SLPC   H5S20579   4.572   3.124   9.818  0.9795 -0.2216  2.0742
  180SLPC   C2620580   4.379   3.098   9.731  0.8763  0.3506 -1.0198
  180SLPC   H6R20581   4.343   3.196   9.770  0.3293 -1.0615  2.4126
  180SLPC   H6S20582   4.286   3.038   9.744  1.5146 -1.0146 -2.4958
  180SLPC   C2720583   4.413   3.091   9.581 -0.5913  0.0952  0.4089
  180SLPC   H7R20584   4.507   3.147   9.565 -1.4766  2.1822  1.9255
  180SLPC   H7S20585   4.327   3.139   9.529 -0.7229  0.9645  1.3840
  180SLPC   C2820586   4.435   2.950   9.519  0.7403 -0.2097 -0.4362
  180SLPC   H8R20587   4.526   2.902   9.559  1.0108 -2.5466 -3.5097
  180SLPC   H8S20588   4.454   2.973   9.412 -0.4938 -0.5482 -0.7425
  180SLPC   C2920589   4.310   2.858   9.534 -0.7217 -0.7216 -0.3419
  180SLPC   H9R20590   4.271   2.860   9.637  0.1017 -2.0841  0.0244
  180SLPC  C21020591   4.235   2.797   9.448  0.6895  0.5661 -0.6467
  180SLPC  H10R20592   4.140   2.759   9.488 -0.0493  1.7763 -1.2013
  180SLPC  C21120593   4.248   2.788   9.297 -0.3010 -0.4325  0.2199
  180SLPC  H11R20594   4.238   2.683   9.260 -0.7441 -0.0210 -0.8770
  180SLPC  H11S20595   4.351   2.816   9.267 -1.7183  2.9777 -2.1578
  180SLPC  C21220596   4.159   2.888   9.227  0.0197  0.0428 -0.6092
  180SLPC  H12R20597   4.145   2.980   9.286 -0.7297 -0.5024  0.0692
  180SLPC  C21320598   4.093   2.871   9.114 -0.1114  0.0605 -0.1847
  180SLPC  H13R20599   4.030   2.952   9.076 -2.4505 -1.5608  0.0217
  180SLPC  C21420600   4.098   2.741   9.033  0.1051 -0.2253  0.4511
  180SLPC  H14R20601   4.032   2.662   9.076  1.9040 -2.4663 -0.6975
  180SLPC  H14S20602   4.202   2.711   9.007  0.0417  1.0438 -1.4626
  180SLPC  C21520603   4.054   2.770   8.885 -0.4975 -0.6246  0.1426
  180SLPC  H15R20604   4.114   2.855   8.845 -2.1543 -1.0214 -3.5868
  180SLPC  H15S20605   3.947   2.797   8.887 -0.9457 -2.3137  0.6912
  180SLPC  C21620606   4.089   2.656   8.786 -1.3283 -0.0533 -0.0528
  180SLPC  H16R20607   4.057   2.557   8.825  0.9141 -1.2754 -1.1454
  180SLPC  H16S20608   4.199   2.646   8.778 -1.3178 -2.3914  1.8286
  180SLPC  C21720609   4.037   2.678   8.648  0.4416 -0.6005  0.5735
  180SLPC  H17R20610   4.092   2.766   8.608  0.2276 -1.1536 -1.0116
  180SLPC  H17S20611   3.931   2.713   8.649 -0.1668 -2.3300  0.5189
  180SLPC  C21820612   4.046   2.559   8.552  0.8185  0.1550 -0.2779
  180SLPC  H18R20613   4.003   2.579   8.452 -0.4848 -0.8470  0.0656
  180SLPC  H18S20614   4.001   2.467   8.595  0.6275  0.6609  0.6254
  180SLPC  H18T20615   4.154   2.534   8.541  0.4428 -1.5257 -0.3997
  180SLPC   C3320616   4.794   3.566  10.031  0.8951 -0.6748  0.1530
  180SLPC   H3X20617   4.773   3.537   9.926 -1.1645 -1.2470  0.6777
  180SLPC   H3Y20618   4.847   3.482  10.080  1.0520 -0.7986 -0.2279
  180SLPC   C3420619   4.875   3.704  10.040 -0.6278  0.0003  0.0839
  180SLPC   H4X20620   4.884   3.742  10.144 -1.3518  1.8602 -0.5084
  180SLPC   H4Y20621   4.820   3.780   9.980 -0.1414  0.2760 -0.0143
  180SLPC   C3520622   5.022   3.696   9.981  0.1688  0.3812 -0.1357
  180SLPC   H5X20623   5.074   3.630  10.053 -0.1359  0.2812 -0.0095
  180SLPC   H5Y20624   5.069   3.797   9.990  1.9586 -0.3837 -0.4045
  180SLPC   C3620625   5.029   3.661   9.832 -0.9611  0.0758  0.6516
  180SLPC   H6X20626   4.953   3.716   9.772 -0.6788 -1.4657 -1.2377
  180SLPC   H6Y20627   5.003   3.552   9.830  0.3044 -0.2717  2.0027
  180SLPC   C3720628   5.172   3.674   9.781  0.1748 -0.7124  0.0595
  180SLPC   H7X20629   5.238   3.604   9.837 -0.0658  0.1072  1.4077
  180SLPC   H7Y20630   5.213   3.774   9.806 -0.3751 -0.6306  0.6599
  180SLPC   C3820631   5.189   3.653   9.631 -0.0075  0.7626  0.2495
  180SLPC   H8X20632   5.144   3.556   9.602 -0.1139  0.6691  0.7200
  180SLPC   H8Y20633   5.299   3.646   9.613  0.0784  0.4854  0.8547
  180SLPC   C3920634   5.119   3.761   9.541 -0.5499 -1.0501  0.8091
  180SLPC   H9X20635   5.136   3.868   9.566  3.2462 -0.4678 -3.1386
  180SLPC   H9Y20636   5.009   3.745   9.550 -0.2761 -2.4953  2.0472
  180SLPC  C31020637   5.166   3.755   9.393 -0.2574 -0.1006 -0.1677
  180SLPC  H10X20638   5.084   3.795   9.330  0.6307  1.2681 -0.5001
  180SLPC  H10Y20639   5.183   3.648   9.367 -0.7650  0.2482 -2.0933
  180SLPC  C31120640   5.301   3.823   9.353 -1.0055  0.1299 -0.2621
  180SLPC  H11X20641   5.374   3.766   9.414  1.3366  3.1192 -0.0550
  180SLPC  H11Y20642   5.295   3.928   9.390 -1.0394  0.0627 -0.0762
  180SLPC  C31220643   5.341   3.813   9.211  0.5061  0.0693 -0.2645
  180SLPC  H12X20644   5.351   3.707   9.177 -3.2278  0.1607 -2.1531
  180SLPC  H12Y20645   5.441   3.856   9.192  1.1649 -1.6120 -0.8291
  180SLPC  C31320646   5.243   3.884   9.110 -0.0209 -0.0674 -0.1297
  180SLPC  H13X20647   5.241   3.987   9.150  0.3960 -1.1164  2.7611
  180SLPC  H13Y20648   5.138   3.848   9.117  0.5730 -1.6592  1.0313
  180SLPC  C31420649   5.289   3.883   8.965  0.1327 -0.0035  0.3881
  180SLPC  H14X20650   5.400   3.883   8.970  0.2632  3.1533 -0.6042
  180SLPC  H14Y20651   5.267   3.982   8.919 -1.4506 -1.0248 -1.1769
  180SLPC  C31520652   5.244   3.760   8.874 -0.1099  0.6323 -0.0688
  180SLPC  H15X20653   5.234   3.674   8.943  1.1019  0.6404  0.1383
  180SLPC  H15Y20654   5.308   3.739   8.786 -2.0681  1.6298 -1.8367
  180SLPC  C31620655   5.105   3.820   8.819  0.0987  0.8148  0.4501
  180SLPC  H16X20656   5.103   3.921   8.773  0.9033  2.1169  3.0793
  180SLPC  H16Y20657   5.039   3.829   8.908  0.2762  1.9170  0.4829
  180SLPC  C31720658   5.033   3.727   8.716 -0.4076 -0.2916  0.5603
  180SLPC  H17X20659   5.015   3.635   8.776 -1.8645 -0.6554 -0.3919
  180SLPC  H17Y20660   5.104   3.714   8.632 -0.7144  0.6536  0.1441
  180SLPC  C31820661   4.904   3.782   8.652  0.2907 -0.5809 -0.1626
  180SLPC  H18X20662   4.850   3.700   8.601 -1.4349 -0.0509  0.7096
  180SLPC  H18Y20663   4.931   3.867   8.585  0.2388 -0.9280 -0.6275
  180SLPC  H18Z20664   4.851   3.830   8.737 -0.9928 -0.0364 -1.2331
  181SLPC     N20665   0.678   4.176  10.865 -1.0539  0.1262  0.0090
  181SLPC   C1320666   0.806   4.117  10.915 -0.3980 -0.5507 -0.6272
  181SLPC  H13A20667   0.837   4.189  10.989 -0.1695 -1.7526  0.4606
  181SLPC  H13B20668   0.794   4.027  10.973  1.2221  0.2948  1.1034
  181SLPC  H13C20669   0.891   4.103  10.849 -0.8182  1.2156 -1.6036
  181SLPC   C1420670   0.580   4.160  10.974  0.0972 -0.0578 -0.6916
  181SLPC  H14A20671   0.479   4.192  10.953  0.0928  0.8201  0.5620
  181SLPC  H14B20672   0.575   4.059  11.011  3.0387 -0.1373 -0.2249
  181SLPC  H14C20673   0.612   4.213  11.063  1.1647 -0.0914 -1.0366
  181SLPC   C1520674   0.628   4.090  10.756 -0.0082  0.3982 -0.3468
  181SLPC  H15A20675   0.582   3.997  10.787  0.4970 -0.4964 -2.1352
  181SLPC  H15B20676   0.546   4.141  10.707 -2.1170 -3.3866 -1.1080
  181SLPC  H15C20677   0.695   4.068  10.674 -0.7427 -0.5813 -0.7032
  181SLPC   C1220678   0.708   4.320  10.819 -0.6873  0.7808 -0.1540
  181SLPC  H12A20679   0.770   4.312  10.731  1.1563  0.4312  1.1129
  181SLPC  H12B20680   0.771   4.364  10.895  0.4612 -1.8437  0.5241
  181SLPC   C1120681   0.586   4.408  10.793  0.3012 -0.2311 -0.1498
  181SLPC  H11A20682   0.519   4.359  10.719  1.1107 -1.0709 -0.3395
  181SLPC  H11B20683   0.623   4.501  10.745  1.6605  0.2641  1.7229
  181SLPC     P20684   0.583   4.551  11.016  0.1881  0.1054 -0.0369
  181SLPC   O1320685   0.497   4.567  11.136 -0.1950  0.4849 -0.1347
  181SLPC   O1420686   0.725   4.518  11.039  0.1603  0.5052 -0.2306
  181SLPC   O1220687   0.511   4.448  10.916  0.6241  0.2990 -0.6111
  181SLPC   O1120688   0.569   4.685  10.928  0.1334 -0.7680  0.4030
  181SLPC    C120689   0.442   4.745  10.902  0.1046  0.3134  0.2431
  181SLPC    HA20690   0.359   4.710  10.966  1.0723 -1.9289  0.3677
  181SLPC    HB20691   0.455   4.853  10.921  2.8203 -0.2037  1.8012
  181SLPC    C220692   0.402   4.733  10.752  0.8428  0.1676  0.1525
  181SLPC    HS20693   0.405   4.625  10.728 -0.8010 -0.8378  3.7748
  181SLPC   O2120694   0.495   4.824  10.696 -0.6255  0.6823  0.0980
  181SLPC   C2120695   0.572   4.774  10.598 -0.6758  0.4354  0.2020
  181SLPC   O2220696   0.574   4.656  10.559 -0.1090  0.2357 -0.1691
  181SLPC   C2220697   0.645   4.893  10.521  0.9395 -0.0920 -0.2687
  181SLPC   H2R20698   0.566   4.960  10.479 -0.3648  0.1901  2.4501
  181SLPC   H2S20699   0.703   4.945  10.600 -1.0617 -1.2585  2.0773
  181SLPC    C320700   0.256   4.779  10.718 -0.4277 -0.2625  0.5575
  181SLPC    HX20701   0.233   4.870  10.777 -1.7172 -1.4176  1.9059
  181SLPC    HY20702   0.186   4.705  10.762  1.4428 -1.7289  1.1789
  181SLPC   O3120703   0.244   4.810  10.574 -0.1467 -0.5297  0.6107
  181SLPC   C3120704   0.193   4.718  10.492  1.2432  0.2270 -0.5898
  181SLPC   O3220705   0.149   4.608  10.520 -0.9134  0.1206 -0.2232
  181SLPC   C3220706   0.180   4.786  10.355  1.8158 -0.3076  0.0072
  181SLPC   H2X20707   0.112   4.874  10.358  0.5139 -1.3258  1.1736
  181SLPC   H2Y20708   0.126   4.713  10.291  0.6732  0.1466  0.4271
  181SLPC   C2320709   0.738   4.842  10.411 -0.4298 -0.9362  0.7831
  181SLPC   H3R20710   0.807   4.761  10.442  1.4059  0.8087  1.4138
  181SLPC   H3S20711   0.799   4.925  10.371 -1.0189 -1.2335 -0.7905
  181SLPC   C2420712   0.653   4.799  10.289 -0.2298  0.5489 -0.0133
  181SLPC   H4R20713   0.595   4.891  10.265  0.3619  1.0052  0.2815
  181SLPC   H4S20714   0.582   4.718  10.315  1.4049 -1.0276 -0.2959
  181SLPC   C2520715   0.734   4.759  10.161  0.1899  0.0421  0.1452
  181SLPC   H5R20716   0.769   4.654  10.169 -1.8500 -0.8826 -1.8978
  181SLPC   H5S20717   0.820   4.827  10.147  0.3032 -0.4437 -1.7596
  181SLPC   C2620718   0.658   4.797  10.037 -0.4581  0.1733  0.6916
  181SLPC   H6R20719   0.644   4.907  10.036  2.5341  0.6350  0.6579
  181SLPC   H6S20720   0.566   4.734  10.039 -0.1437 -0.3397 -0.2287
  181SLPC   C2720721   0.742   4.758   9.907  0.6493  0.2713 -0.2020
  181SLPC   H7R20722   0.787   4.659   9.930  1.9748  0.7300 -0.6959
  181SLPC   H7S20723   0.831   4.823   9.892  0.2043  0.4048 -2.8110
  181SLPC   C2820724   0.656   4.757   9.782 -0.1390 -0.2228  0.3366
  181SLPC   H8R20725   0.648   4.861   9.746  3.1595 -0.4194 -1.3237
  181SLPC   H8S20726   0.560   4.709   9.813  0.6300 -1.9490  0.1812
  181SLPC   C2920727   0.729   4.685   9.675 -0.4368  0.2555 -0.4539
  181SLPC   H9R20728   0.829   4.713   9.639 -0.2024 -2.4934 -2.2277
  181SLPC  C21020729   0.686   4.578   9.604  0.4920  0.0214 -0.4509
  181SLPC  H10R20730   0.764   4.534   9.540 -0.2684  0.7476 -1.9503
  181SLPC  C21120731   0.558   4.506   9.626 -0.0762  0.1958 -0.1274
  181SLPC  H11R20732   0.501   4.533   9.718  1.9124  2.3362  0.5890
  181SLPC  H11S20733   0.579   4.398   9.642 -1.9617 -0.2889 -0.7441
  181SLPC  C21220734   0.481   4.513   9.499  0.2731  0.6239  0.3851
  181SLPC  H12R20735   0.482   4.611   9.448  0.7519  1.7894  2.5265
  181SLPC  C21320736   0.401   4.420   9.451  0.0557  0.1614  0.0284
  181SLPC  H13R20737   0.360   4.444   9.352  1.1696 -0.8619 -0.7053
  181SLPC  C21420738   0.378   4.283   9.492  0.0856 -0.1453 -0.5885
  181SLPC  H14R20739   0.359   4.292   9.601  1.1870 -1.0645 -0.2951
  181SLPC  H14S20740   0.470   4.221   9.483  1.5259  1.7127  0.5561
  181SLPC  C21520741   0.275   4.216   9.405  0.0235  0.7499  0.0148
  181SLPC  H15R20742   0.311   4.213   9.300 -0.1188 -0.0641 -0.0206
  181SLPC  H15S20743   0.173   4.260   9.411 -0.7223 -0.8912 -0.0820
  181SLPC  C21620744   0.265   4.068   9.450 -0.4983  0.3700  0.0146
  181SLPC  H16R20745   0.239   4.060   9.558  1.1520  0.7239  0.4704
  181SLPC  H16S20746   0.366   4.021   9.445 -0.5060  0.0021  2.1490
  181SLPC  C21720747   0.157   3.996   9.360  0.2940 -0.5604 -0.2817
  181SLPC  H17R20748   0.176   3.993   9.251 -1.3045 -0.1054 -0.5943
  181SLPC  H17S20749   0.066   4.055   9.384  0.2698 -0.7100  0.0012
  181SLPC  C21820750   0.127   3.852   9.405  0.2814  0.1028 -0.5887
  181SLPC  H18R20751   0.053   3.799   9.342  0.6228 -2.3001  0.9133
  181SLPC  H18S20752   0.083   3.848   9.506  0.6405 -0.3478 -0.4473
  181SLPC  H18T20753   0.222   3.794   9.400 -1.3063 -2.6055 -1.0893
  181SLPC   C3320754   0.313   4.810  10.289 -0.0475  0.1256 -0.1701
  181SLPC   H3X20755   0.370   4.715  10.297 -3.1632 -1.9811 -1.0788
  181SLPC   H3Y20756   0.371   4.892  10.335  0.3455  0.3122 -0.9671
  181SLPC   C3420757   0.304   4.836  10.141 -0.2321  0.1010  0.1217
  181SLPC   H4X20758   0.264   4.748  10.087 -0.1639 -0.3087  0.7324
  181SLPC   H4Y20759   0.409   4.848  10.105  0.3880  1.9750  2.2560
  181SLPC   C3520760   0.227   4.958  10.109  0.3051 -0.4802  0.4162
  181SLPC   H5X20761   0.272   5.044  10.163 -0.7846 -0.2067  0.9041
  181SLPC   H5Y20762   0.127   4.962  10.156 -0.3581 -1.4647 -0.8645
  181SLPC   C3620763   0.224   4.986   9.963 -0.1524  0.0827 -0.7056
  181SLPC   H6X20764   0.171   5.084   9.957 -1.2330 -0.2815  1.6716
  181SLPC   H6Y20765   0.170   4.908   9.905 -0.7147  0.3721 -0.5836
  181SLPC   C3720766   0.363   5.013   9.898 -0.3470  0.2671 -0.1546
  181SLPC   H7X20767   0.428   4.925   9.920 -0.1806 -0.0062 -1.6810
  181SLPC   H7Y20768   0.408   5.096   9.957  0.4138  0.0631 -0.4383
  181SLPC   C3820769   0.363   5.036   9.750  0.2559 -0.3935 -0.4888
  181SLPC   H8X20770   0.468   5.061   9.721  0.0822 -0.1332 -0.9059
  181SLPC   H8Y20771   0.322   5.139   9.746  0.2415 -0.2706  1.7548
  181SLPC   C3920772   0.274   4.945   9.667  0.1338  0.3475  0.3513
  181SLPC   H9X20773   0.171   4.927   9.704 -0.4695  0.0397 -1.3632
  181SLPC   H9Y20774   0.332   4.850   9.661  1.1358  0.8070  2.1945
  181SLPC  C31020775   0.257   4.991   9.522 -0.1614 -0.5549 -0.3144
  181SLPC  H10X20776   0.205   5.089   9.525  0.5215 -0.0836 -2.1855
  181SLPC  H10Y20777   0.198   4.916   9.465 -2.1904  1.8837 -1.6631
  181SLPC  C31120778   0.402   5.001   9.463  0.0500 -0.8157  0.2214
  181SLPC  H11X20779   0.479   4.957   9.530  2.2473  1.1412 -0.9087
  181SLPC  H11Y20780   0.411   5.111   9.457  3.0135 -1.0998 -3.5043
  181SLPC  C31220781   0.404   4.948   9.317  0.0227 -0.5740  0.5459
  181SLPC  H12X20782   0.326   4.981   9.245  0.1497 -1.9127 -0.2614
  181SLPC  H12Y20783   0.388   4.838   9.321 -1.1464 -0.4652 -0.5848
  181SLPC  C31320784   0.547   4.963   9.250 -0.3067 -0.0642  0.4063
  181SLPC  H13X20785   0.560   5.072   9.228 -1.4151 -0.4565 -2.7455
  181SLPC  H13Y20786   0.552   4.901   9.158 -1.2648  0.3961  0.0196
  181SLPC  C31420787   0.669   4.911   9.333  0.1364  0.1264  0.2650
  181SLPC  H14X20788   0.670   4.800   9.329 -0.1634  0.1247  0.1977
  181SLPC  H14Y20789   0.663   4.948   9.438  1.1298  0.0042  0.3746
  181SLPC  C31520790   0.799   4.959   9.264  0.6453 -0.3819 -0.0739
  181SLPC  H15X20791   0.799   5.069   9.247  0.2367 -0.4119 -0.2758
  181SLPC  H15Y20792   0.791   4.909   9.165 -4.2334 -0.5436  0.1568
  181SLPC  C31620793   0.932   4.923   9.322 -0.0194  0.7845  0.0965
  181SLPC  H16X20794   0.950   4.964   9.424 -1.1435 -0.7449  0.9475
  181SLPC  H16Y20795   1.011   4.958   9.252  1.3608 -1.5273  0.3967
  181SLPC  C31720796   0.946   4.771   9.341  0.2057 -0.3009 -0.6408
  181SLPC  H17X20797   0.939   4.712   9.247 -0.4529 -0.5357 -0.4482
  181SLPC  H17Y20798   0.861   4.734   9.402  1.3154 -0.7739  0.6872
  181SLPC  C31820799   1.087   4.727   9.397  0.8675 -0.3911  0.1856
  181SLPC  H18X20800   1.103   4.776   9.495 -1.4654  1.5378 -0.3142
  181SLPC  H18Y20801   1.170   4.771   9.338  1.6485 -1.2266  0.6321
  181SLPC  H18Z20802   1.098   4.617   9.402 -3.8722 -1.3134 -2.4637
  182SLPC     N20803   6.426   2.464  10.755 -0.1614  0.2753 -0.2776
  182SLPC   C1320804   6.564   2.499  10.815 -0.4555  0.3141 -0.2592
  182SLPC  H13A20805   6.564   2.558  10.905  2.2812 -2.0479  1.4767
  182SLPC  H13B20806   6.625   2.412  10.836  1.0316  1.8121  2.1368
  182SLPC  H13C20807   6.624   2.560  10.749  0.2468  0.5374  0.5674
  182SLPC   C1420808   6.370   2.592  10.704 -0.5218  0.1085 -0.2285
  182SLPC  H14A20809   6.442   2.652  10.651  0.0195  0.2564  0.6418
  182SLPC  H14B20810   6.288   2.567  10.639 -0.2259 -0.6209 -0.3395
  182SLPC  H14C20811   6.351   2.649  10.794 -1.1450 -0.6770  0.1590
  182SLPC   C1520812   6.333   2.410  10.859  0.5734  0.3193 -0.1231
  182SLPC  H15A20813   6.240   2.385  10.810  1.2250  0.3015 -1.3786
  182SLPC  H15B20814   6.374   2.320  10.903 -0.9307  0.3338  1.4344
  182SLPC  H15C20815   6.303   2.474  10.941  0.0163 -1.3837  1.0799
  182SLPC   C1220816   6.455   2.383  10.628 -0.1640 -0.8091 -0.5711
  182SLPC  H12A20817   6.532   2.307  10.633 -1.4959 -2.1830 -0.1792
  182SLPC  H12B20818   6.491   2.454  10.554 -0.3547 -2.0713 -1.9308
  182SLPC   C1120819   6.326   2.303  10.576  0.1654 -0.2175 -0.3382
  182SLPC  H11A20820   6.336   2.260  10.474 -1.6789  0.7905 -0.9878
  182SLPC  H11B20821   6.243   2.373  10.554 -1.2334 -1.0585  1.9247
  182SLPC     P20822   6.378   2.068  10.682  0.0650 -0.1682 -0.3229
  182SLPC   O1320823   6.516   2.087  10.634  0.0044 -0.0392  0.2940
  182SLPC   O1420824   6.359   2.039  10.824  0.0546  0.2193 -0.4643
  182SLPC   O1220825   6.283   2.191  10.656  0.2884 -0.2450 -0.2035
  182SLPC   O1120826   6.310   1.961  10.593 -0.2639 -0.0626 -0.0195
  182SLPC    C120827   6.173   1.926  10.609 -0.2908 -0.1711  0.3284
  182SLPC    HA20828   6.155   1.829  10.661 -0.9116 -1.8904 -2.8746
  182SLPC    HB20829   6.122   2.001  10.673  1.6281  0.6300  1.0056
  182SLPC    C220830   6.096   1.922  10.475  0.0032 -0.0099 -0.3404
  182SLPC    HS20831   5.989   1.911  10.502  0.5000  1.8399  2.9121
  182SLPC   O2120832   6.133   1.812  10.389 -0.5671 -0.5238 -0.3642
  182SLPC   C2120833   6.086   1.695  10.417 -0.4499 -0.9465  0.0994
  182SLPC   O2220834   6.014   1.669  10.504  0.9290  0.1434 -0.4653
  182SLPC   C2220835   6.172   1.591  10.337 -0.3689 -0.7590  0.0769
  182SLPC   H2R20836   6.168   1.625  10.231 -2.2454 -0.8913  0.0654
  182SLPC   H2S20837   6.277   1.579  10.371 -0.7020 -0.5300  1.2402
  182SLPC    C320838   6.102   2.064  10.409 -0.5065  0.2285  0.1648
  182SLPC    HX20839   6.209   2.092  10.400 -0.1544 -1.3894 -1.2649
  182SLPC    HY20840   6.060   2.142  10.476 -0.8024  1.1749 -1.0693
  182SLPC   O3120841   6.040   2.073  10.275  0.2587  0.3214 -0.0088
  182SLPC   C3120842   6.071   2.186  10.209  0.2896 -0.5501 -0.1129
  182SLPC   O3220843   6.161   2.260  10.241 -0.3100 -0.3156  0.1122
  182SLPC   C3220844   5.976   2.202  10.087 -0.0520 -0.4148  0.9951
  182SLPC   H2X20845   5.953   2.309  10.069 -1.1718 -1.0136 -1.7145
  182SLPC   H2Y20846   5.878   2.150  10.101 -1.1873  1.4511  0.4306
  182SLPC   C2320847   6.115   1.439  10.338  0.3904 -0.2431  0.4462
  182SLPC   H3R20848   6.010   1.446  10.303 -0.2140  0.2524  2.2690
  182SLPC   H3S20849   6.107   1.396  10.440 -0.2410  0.2939  0.6350
  182SLPC   C2420850   6.184   1.342  10.236 -0.0157  0.3159 -0.0947
  182SLPC   H4R20851   6.135   1.242  10.230 -0.3455  0.3446  1.6487
  182SLPC   H4S20852   6.282   1.319  10.283 -0.5024 -0.8148  0.4005
  182SLPC   C2520853   6.214   1.398  10.095  0.3254  0.0185  0.4667
  182SLPC   H5R20854   6.309   1.455  10.095 -0.1015  0.8256 -1.5401
  182SLPC   H5S20855   6.137   1.470  10.059  2.3875  1.4119 -1.3919
  182SLPC   C2620856   6.231   1.284   9.995 -0.3944 -0.2789 -0.4530
  182SLPC   H6R20857   6.131   1.235   9.995 -0.4159 -0.2541  0.9263
  182SLPC   H6S20858   6.294   1.200  10.031 -0.4453 -0.1132  0.0313
  182SLPC   C2720859   6.274   1.337   9.855 -0.4906  0.0576 -0.1922
  182SLPC   H7R20860   6.382   1.365   9.857  0.0448 -1.6952 -1.4673
  182SLPC   H7S20861   6.215   1.429   9.840 -0.0971  0.7382  2.1067
  182SLPC   C2820862   6.242   1.239   9.738 -0.7096 -0.6219 -0.0946
  182SLPC   H8R20863   6.277   1.276   9.639 -0.1280 -2.8660 -0.7682
  182SLPC   H8S20864   6.135   1.210   9.743 -0.9043  0.2467  3.8412
  182SLPC   C2920865   6.311   1.109   9.750  0.5232 -0.1351  0.2421
  182SLPC   H9R20866   6.297   1.067   9.851  0.9083  0.0358  0.3683
  182SLPC  C21020867   6.391   1.042   9.664 -0.3690  0.2587  0.7539
  182SLPC  H10R20868   6.421   0.942   9.698 -0.1912  0.1194  0.1897
  182SLPC  C21120869   6.443   1.070   9.522  0.7156 -0.5706 -0.1982
  182SLPC  H11R20870   6.435   1.176   9.490  1.8362 -0.3769  0.1424
  182SLPC  H11S20871   6.384   1.010   9.449 -2.5937  2.1340 -0.0049
  182SLPC  C21220872   6.586   1.032   9.506 -0.2328 -0.0356 -0.3333
  182SLPC  H12R20873   6.630   1.004   9.603 -0.2708 -0.9294 -0.5578
  182SLPC  C21320874   6.672   1.041   9.402  0.4377  0.7831  0.0773
  182SLPC  H13R20875   6.773   0.997   9.410 -0.1443 -0.5294  0.5177
  182SLPC  C21420876   6.622   1.078   9.266 -0.0249  0.2041  0.0974
  182SLPC  H14R20877   6.679   1.168   9.235 -1.4374  1.4618  1.0220
  182SLPC  H14S20878   6.513   1.093   9.276 -0.1645  0.8436 -1.8994
  182SLPC  C21520879   6.638   0.962   9.152  0.0760  0.1348 -0.0665
  182SLPC  H15R20880   6.593   0.872   9.199 -1.0220  0.7926  0.1698
  182SLPC  H15S20881   6.746   0.940   9.133  0.0250 -1.2525  1.0480
  182SLPC  C21620882   6.569   0.974   9.021 -0.0635  0.1063 -0.6910
  182SLPC  H16R20883   6.582   0.875   8.973  1.1771  0.8734 -2.0104
  182SLPC  H16S20884   6.629   1.055   8.975 -1.7216  2.6237  1.3426
  182SLPC  C21720885   6.421   1.012   9.024  0.3991 -0.3118  0.3821
  182SLPC  H17R20886   6.378   1.030   8.923  0.7333 -1.1357  0.0875
  182SLPC  H17S20887   6.415   1.114   9.069  0.0626 -0.9973  1.9618
  182SLPC  C21820888   6.339   0.906   9.092  0.0896  0.4365 -0.0649
  182SLPC  H18R20889   6.237   0.950   9.097 -0.5871 -0.9456 -1.0539
  182SLPC  H18S20890   6.371   0.880   9.195 -1.5125  0.9684  0.6041
  182SLPC  H18T20891   6.331   0.815   9.029  0.7886 -0.2114  0.7555
  182SLPC   C3320892   6.055   2.155   9.955 -0.6452  0.3969  0.5180
  182SLPC   H3X20893   6.074   2.047   9.972 -0.8766  0.3915  0.7584
  182SLPC   H3Y20894   6.153   2.206   9.949  0.1271 -0.8538  1.8624
  182SLPC   C3420895   5.964   2.157   9.835 -0.4198 -0.2453  0.4295
  182SLPC   H4X20896   5.971   2.265   9.810 -2.4940 -0.1297  0.1700
  182SLPC   H4Y20897   5.862   2.128   9.868 -0.3292  0.3264  1.2487
  182SLPC   C3520898   6.013   2.080   9.713  0.6303 -0.3600 -0.5406
  182SLPC   H5X20899   5.979   1.977   9.734  0.4266 -0.4004 -1.0368
  182SLPC   H5Y20900   6.124   2.076   9.709  0.6559 -1.1679  0.5082
  182SLPC   C3620901   5.952   2.115   9.583 -0.6477 -0.1019  0.7956
  182SLPC   H6X20902   5.843   2.100   9.568 -0.2570 -2.1098 -0.3474
  182SLPC   H6Y20903   5.980   2.042   9.505 -1.2146 -1.2507  1.6372
  182SLPC   C3720904   6.016   2.244   9.530 -0.1759 -0.1237 -0.1682
  182SLPC   H7X20905   6.126   2.236   9.542 -0.1911 -1.9589 -0.8710
  182SLPC   H7Y20906   5.985   2.326   9.597  1.9492  0.4196  0.2455
  182SLPC   C3820907   5.996   2.271   9.380  0.7006 -0.4314 -0.0636
  182SLPC   H8X20908   6.056   2.200   9.319 -0.0765  0.1787 -1.5659
  182SLPC   H8Y20909   6.042   2.370   9.362  0.7834 -0.7840 -1.9466
  182SLPC   C3920910   5.847   2.269   9.333 -0.7732  0.6515  0.0837
  182SLPC   H9X20911   5.785   2.314   9.413 -1.5081 -2.2430  1.2912
  182SLPC   H9Y20912   5.807   2.165   9.328  0.8335  0.0124 -0.4176
  182SLPC  C31020913   5.842   2.335   9.199  0.5080  0.1674 -0.1746
  182SLPC  H10X20914   5.916   2.280   9.138 -1.1251 -1.5511 -0.7257
  182SLPC  H10Y20915   5.872   2.441   9.190  1.0354  0.3396  2.7662
  182SLPC  C31120916   5.701   2.324   9.136  0.3952 -0.0090  0.2603
  182SLPC  H11X20917   5.626   2.376   9.200 -1.1148 -2.0346  0.2313
  182SLPC  H11Y20918   5.674   2.217   9.145 -1.2971  0.1356 -2.1345
  182SLPC  C31220919   5.686   2.365   8.993 -0.0121  0.0876 -0.3871
  182SLPC  H12X20920   5.742   2.296   8.926  1.6622 -0.3804  1.4090
  182SLPC  H12Y20921   5.732   2.464   8.973 -1.0155  1.3035  2.7501
  182SLPC  C31320922   5.526   2.372   8.960  0.0670  0.5712 -0.3549
  182SLPC  H13X20923   5.501   2.457   8.893  0.1391  0.8908  0.0193
  182SLPC  H13Y20924   5.465   2.399   9.049 -0.7143  0.6267 -0.8981
  182SLPC  C31420925   5.468   2.245   8.904  0.2672  0.5165  0.0844
  182SLPC  H14X20926   5.551   2.175   8.881  0.3539  0.2338  1.1992
  182SLPC  H14Y20927   5.401   2.274   8.821 -0.8767 -0.0066  0.7901
  182SLPC  C31520928   5.378   2.160   8.998  0.8409  0.1542 -0.2367
  182SLPC  H15X20929   5.289   2.226   9.012 -0.5716 -1.9778  1.6282
  182SLPC  H15Y20930   5.427   2.141   9.096  0.3817  0.9561  0.1617
  182SLPC  C31620931   5.336   2.023   8.940  0.5656 -0.6070  0.1447
  182SLPC  H16X20932   5.419   1.953   8.918  2.2884  1.4644 -0.1947
  182SLPC  H16Y20933   5.309   2.041   8.833 -0.5800 -0.4789  0.4360
  182SLPC  C31720934   5.232   1.954   9.023  0.4315 -0.4180 -0.5248
  182SLPC  H17X20935   5.133   2.005   9.025 -1.0913 -2.8412  5.2480
  182SLPC  H17Y20936   5.262   1.956   9.130 -2.5062  2.4082  0.4379
  182SLPC  C31820937   5.222   1.808   8.979  0.1016 -0.6323  0.1330
  182SLPC  H18X20938   5.324   1.765   8.986  0.3313 -0.1444 -0.1758
  182SLPC  H18Y20939   5.181   1.814   8.876  2.3247  1.1183 -0.7424
  182SLPC  H18Z20940   5.148   1.756   9.042 -0.7176  0.4451  0.0891
  183SLPC     N20941   6.800   0.951  11.265  0.0212  0.3905  0.1898
  183SLPC   C1320942   6.725   0.910  11.380 -0.4291 -0.1622 -0.1652
  183SLPC  H13A20943   6.771   0.830  11.436 -2.5885 -2.2508 -1.1892
  183SLPC  H13B20944   6.721   0.992  11.450  0.6066  0.5791 -0.9481
  183SLPC  H13C20945   6.623   0.881  11.359 -0.4293  0.3851 -0.9270
  183SLPC   C1420946   6.846   0.832  11.191 -0.0983 -0.0537  0.4688
  183SLPC  H14A20947   6.902   0.770  11.259 -0.7550 -1.7407 -0.4732
  183SLPC  H14B20948   6.770   0.767  11.151 -0.4405  1.5315 -1.6406
  183SLPC  H14C20949   6.903   0.860  11.104  0.2024  0.9413  0.9631
  183SLPC   C1520950   6.919   1.034  11.302  0.0953 -0.6603  0.1295
  183SLPC  H15A20951   6.969   1.000  11.391  0.1563 -2.0107 -0.3955
  183SLPC  H15B20952   6.988   1.035  11.219  0.1441  0.8371  0.1661
  183SLPC  H15C20953   6.898   1.140  11.306  0.5944 -0.5781  0.6859
  183SLPC   C1220954   6.701   1.033  11.178 -0.9706  0.1903  1.2224
  183SLPC  H12A20955   6.703   1.136  11.211 -0.6239 -0.0595  2.0238
  183SLPC  H12B20956   6.598   1.002  11.185 -0.6335 -1.3331  0.0407
  183SLPC   C1120957   6.719   1.057  11.023 -0.7585 -0.5706 -0.2875
  183SLPC  H11A20958   6.662   1.143  10.980 -1.0212 -0.4716  0.2528
  183SLPC  H11B20959   6.669   0.965  10.985 -0.4910  0.0633 -2.3019
  183SLPC     P20960   6.917   1.002  10.863  0.3574 -0.3931 -0.0611
  183SLPC   O1320961   7.053   1.063  10.839  0.4918  0.3599 -0.2981
  183SLPC   O1420962   6.902   0.854  10.872  0.0694 -0.0993 -0.6179
  183SLPC   O1220963   6.855   1.072  10.992  0.4888 -0.1727  0.0868
  183SLPC   O1120964   6.822   1.050  10.747  0.0206  0.3692  0.3394
  183SLPC    C120965   6.805   1.189  10.712  0.9130 -0.2334  0.2979
  183SLPC    HA20966   6.697   1.216  10.720  0.7219 -1.4073  2.1233
  183SLPC    HB20967   6.859   1.257  10.781 -0.7682  1.5762 -0.0722
  183SLPC    C220968   6.858   1.225  10.565 -0.2229  0.6457 -0.4440
  183SLPC    HS20969   6.893   1.331  10.572 -0.1721  0.5360  2.3551
  183SLPC   O2120970   6.748   1.198  10.477 -0.2889 -0.0372 -0.0620
  183SLPC   C2120971   6.697   1.292  10.412 -0.1209 -0.6103  0.4526
  183SLPC   O2220972   6.734   1.406  10.409 -0.1897  0.5831 -0.3964
  183SLPC   C2220973   6.569   1.246  10.340 -0.0372 -0.3022 -0.6361
  183SLPC   H2R20974   6.513   1.170  10.398 -1.7153  1.4506  0.1542
  183SLPC   H2S20975   6.496   1.329  10.333  1.2677  0.8458 -1.2641
  183SLPC    C320976   6.983   1.130  10.530  0.6069 -0.6826 -0.3411
  183SLPC    HX20977   6.945   1.030  10.560  1.7761 -1.7761 -2.3315
  183SLPC    HY20978   7.057   1.158  10.608 -0.2368 -1.8047  0.9231
  183SLPC   O3120979   7.025   1.143  10.390  0.2428 -0.1915 -0.3491
  183SLPC   C3120980   7.133   1.064  10.367  0.1203  0.5624  0.3910
  183SLPC   O3220981   7.187   0.989  10.446  0.6220  0.6576 -0.3527
  183SLPC   C3220982   7.169   1.079  10.217  0.3444  0.1084  0.0351
  183SLPC   H2X20983   7.280   1.078  10.206  0.3028  0.5860 -0.5129
  183SLPC   H2Y20984   7.136   1.183  10.193  0.1743  0.0633  0.0751
  183SLPC   C2320985   6.597   1.187  10.202  0.3113 -0.1780  0.1784
  183SLPC   H3R20986   6.507   1.138  10.161  1.3460  0.1012 -2.6753
  183SLPC   H3S20987   6.674   1.108  10.214 -0.8548 -1.2399  0.9449
  183SLPC   C2420988   6.633   1.295  10.101 -0.6686  0.5969 -0.7801
  183SLPC   H4R20989   6.737   1.325  10.127 -0.3959 -1.5465  0.8974
  183SLPC   H4S20990   6.565   1.383  10.108  0.5351  1.5111  0.0041
  183SLPC   C2520991   6.648   1.238   9.959  0.9492 -0.0812 -0.7839
  183SLPC   H5R20992   6.552   1.190   9.929  0.6688  0.3325 -0.5565
  183SLPC   H5S20993   6.722   1.155   9.966 -0.1477 -0.9903  1.4543
  183SLPC   C2620994   6.686   1.352   9.863  0.3217 -0.1457 -0.1009
  183SLPC   H6R20995   6.782   1.382   9.910 -0.0067 -0.4465  0.7919
  183SLPC   H6S20996   6.615   1.437   9.860  2.6625  1.9383 -0.2396
  183SLPC   C2720997   6.715   1.309   9.717 -0.1045  0.1133  0.1583
  183SLPC   H7R20998   6.639   1.230   9.701  0.1919 -0.5208  1.6687
  183SLPC   H7S20999   6.816   1.265   9.710 -0.1316 -0.2783  1.7831
  183SLPC   C2821000   6.706   1.422   9.621 -0.0664 -1.0115 -0.0063
  183SLPC   H8R21001   6.746   1.398   9.520 -0.2043  0.8302 -0.5348
  183SLPC   H8S21002   6.756   1.509   9.670 -3.2599  0.9335  0.1314
  183SLPC   C2921003   6.559   1.459   9.608 -0.0698  0.2129 -0.5062
  183SLPC   H9R21004   6.516   1.514   9.694 -1.1089 -0.3215 -0.6742
  183SLPC  C21021005   6.471   1.441   9.510 -0.1626 -0.8779  0.3688
  183SLPC  H10R21006   6.376   1.494   9.525  0.5132  0.0594  1.5058
  183SLPC  C21121007   6.517   1.391   9.371  0.3329 -0.2343  0.2200
  183SLPC  H11R21008   6.446   1.325   9.317 -1.5647  1.7100  0.2010
  183SLPC  H11S21009   6.608   1.329   9.389  2.4776  2.6375 -0.0727
  183SLPC  C21221010   6.560   1.501   9.276 -0.5847 -0.3170 -0.0626
  183SLPC  H12R21011   6.636   1.568   9.319 -1.1072 -1.0697  2.2015
  183SLPC  C21321012   6.533   1.510   9.148  0.6410 -0.3824  0.0769
  183SLPC  H13R21013   6.584   1.589   9.091 -1.4525 -0.1825 -1.6184
  183SLPC  C21421014   6.428   1.428   9.076  0.9898 -0.0131  0.5410
  183SLPC  H14R21015   6.348   1.396   9.146  0.8801 -0.3413  0.2654
  183SLPC  H14S21016   6.471   1.338   9.028 -0.7783 -0.7900  0.3220
  183SLPC  C21521017   6.359   1.505   8.956  0.2172  0.1110  0.1185
  183SLPC  H15R21018   6.306   1.438   8.885 -0.0437  2.7759 -2.4282
  183SLPC  H15S21019   6.439   1.548   8.891 -0.8580  0.6926 -0.8556
  183SLPC  C21621020   6.270   1.621   9.000  0.3160  0.6146 -0.0702
  183SLPC  H16R21021   6.332   1.706   9.034  0.0403  1.3872 -1.4315
  183SLPC  H16S21022   6.201   1.590   9.082 -0.5589  0.7280 -0.7411
  183SLPC  C21721023   6.186   1.683   8.888  0.0682  0.5877 -0.5926
  183SLPC  H17R21024   6.105   1.750   8.924 -1.1669 -0.5739 -1.1200
  183SLPC  H17S21025   6.127   1.593   8.859  0.8372 -0.8439  2.0055
  183SLPC  C21821026   6.264   1.751   8.772 -0.1467  0.2047 -0.4129
  183SLPC  H18R21027   6.304   1.849   8.807  2.1906 -0.9436  0.2817
  183SLPC  H18S21028   6.192   1.772   8.689  1.4632 -0.9805 -2.1899
  183SLPC  H18T21029   6.342   1.688   8.726 -0.4763 -0.4591 -0.0810
  183SLPC   C3321030   7.092   0.992  10.106  0.4538 -0.3330 -0.4833
  183SLPC   H3X21031   6.983   1.014  10.110  0.6012  0.4133 -0.4276
  183SLPC   H3Y21032   7.114   0.886  10.133  0.8212  0.1926  1.4815
  183SLPC   C3421033   7.144   1.025   9.970 -0.3140 -0.4386 -0.8463
  183SLPC   H4X21034   7.253   1.004   9.973 -0.5567 -1.7569  0.9336
  183SLPC   H4Y21035   7.119   1.132   9.955  0.1457  0.1290  1.8352
  183SLPC   C3521036   7.090   0.937   9.861 -0.2596 -0.0942  0.0444
  183SLPC   H5X21037   7.098   0.829   9.888  0.2343  0.2794  1.4500
  183SLPC   H5Y21038   7.147   0.959   9.768  0.3698  2.0519  0.8891
  183SLPC   C3621039   6.938   0.960   9.823 -0.1611 -0.4384  0.3790
  183SLPC   H6X21040   6.916   1.065   9.795 -1.4845 -1.0294 -0.8958
  183SLPC   H6Y21041   6.873   0.943   9.912 -2.1762 -1.7178 -1.2660
  183SLPC   C3721042   6.881   0.859   9.721  0.1857 -0.0882  0.7467
  183SLPC   H7X21043   6.771   0.867   9.707 -0.3661 -3.0570  2.4526
  183SLPC   H7Y21044   6.890   0.759   9.769  2.5919  0.4427  1.5207
  183SLPC   C3821045   6.947   0.858   9.584  0.0384  0.2086  0.4159
  183SLPC   H8X21046   7.057   0.846   9.584  0.0025 -0.2124 -0.6187
  183SLPC   H8Y21047   6.941   0.955   9.531  1.1946 -0.4472 -0.9957
  183SLPC   C3921048   6.882   0.748   9.493 -0.4651 -0.2676 -0.5336
  183SLPC   H9X21049   6.774   0.770   9.486 -0.5960 -0.9005 -0.5708
  183SLPC   H9Y21050   6.887   0.647   9.540  0.2204  0.9577  2.2308
  183SLPC  C31021051   6.957   0.738   9.357  0.5696 -0.6940  0.2678
  183SLPC  H10X21052   7.055   0.693   9.384  0.3018 -0.9520  0.8371
  183SLPC  H10Y21053   6.968   0.838   9.312 -1.5523  0.4912  2.1600
  183SLPC  C31121054   6.874   0.652   9.255  0.1868  0.3492 -0.1198
  183SLPC  H11X21055   6.768   0.684   9.239  0.0547 -0.7483 -1.7070
  183SLPC  H11Y21056   6.881   0.556   9.309 -0.4102  0.4633  0.1693
  183SLPC  C31221057   6.938   0.656   9.119  0.7921 -0.0735  0.0296
  183SLPC  H12X21058   7.048   0.659   9.130  0.8491 -1.9454  0.3581
  183SLPC  H12Y21059   6.911   0.754   9.075  0.8887 -1.2576 -2.9101
  183SLPC  C31321060   6.887   0.545   9.032  0.9185 -0.2439  0.0238
  183SLPC  H13X21061   6.857   0.456   9.090 -0.4729 -0.5583 -1.1212
  183SLPC  H13Y21062   6.962   0.518   8.954  1.0374  0.1328  0.0034
  183SLPC  C31421063   6.765   0.597   8.944 -0.2483 -0.9782 -0.1477
  183SLPC  H14X21064   6.684   0.638   9.008 -0.8469 -0.6428 -1.0976
  183SLPC  H14Y21065   6.729   0.505   8.892 -0.5848 -0.9192 -0.0243
  183SLPC  C31521066   6.805   0.704   8.840  0.7887 -0.3284 -0.1154
  183SLPC  H15X21067   6.813   0.801   8.893  3.8862 -1.0617  0.9307
  183SLPC  H15Y21068   6.713   0.715   8.778  0.8155 -1.5381 -0.3936
  183SLPC  C31621069   6.927   0.665   8.759 -0.0872 -0.5196 -0.4059
  183SLPC  H16X21070   6.922   0.559   8.727 -2.0660 -0.2404 -1.1753
  183SLPC  H16Y21071   7.020   0.677   8.818 -0.2825 -0.6790 -0.0617
  183SLPC  C31721072   6.938   0.763   8.637 -0.4196  0.2621 -0.0085
  183SLPC  H17X21073   6.926   0.870   8.665  1.6144  0.6441 -0.4031
  183SLPC  H17Y21074   6.863   0.737   8.559  0.3876 -0.3327 -0.6056
  183SLPC  C31821075   7.080   0.765   8.575  0.2961 -0.0012 -0.5614
  183SLPC  H18X21076   7.113   0.660   8.592 -1.8369 -0.4451  1.4511
  183SLPC  H18Y21077   7.153   0.829   8.628  1.0020 -1.8860  0.8492
  183SLPC  H18Z21078   7.083   0.795   8.468 -0.8867  1.3016 -0.2552
  184SLPC     N21079   3.230   3.856  10.758 -0.0391 -0.1063 -0.3511
  184SLPC   C1321080   3.371   3.858  10.703 -0.2889 -0.2051  0.7269
  184SLPC  H13A21081   3.400   3.767  10.654 -1.6083 -0.8844  1.1567
  184SLPC  H13B21082   3.379   3.935  10.627  0.6438 -1.2424 -0.2592
  184SLPC  H13C21083   3.435   3.868  10.789 -0.6254  0.7508  0.8829
  184SLPC   C1421084   3.207   3.975  10.853 -0.8193  0.1152  0.4684
  184SLPC  H14A21085   3.240   4.066  10.804 -0.7663  0.2770  0.7985
  184SLPC  H14B21086   3.104   3.992  10.882 -0.9219  0.0993  0.1209
  184SLPC  H14C21087   3.280   3.965  10.932  1.1410  2.9743 -0.7983
  184SLPC   C1521088   3.200   3.735  10.835  0.2614 -0.0008 -0.1038
  184SLPC  H15A21089   3.199   3.649  10.769  0.4232 -0.0702 -0.0168
  184SLPC  H15B21090   3.275   3.724  10.913 -0.2514 -0.8638  0.2830
  184SLPC  H15C21091   3.110   3.723  10.893 -0.5831 -1.9670 -1.6989
  184SLPC   C1221092   3.137   3.854  10.649 -0.3442 -0.1830  0.5794
  184SLPC  H12A21093   3.033   3.840  10.675 -0.0744 -1.1721  1.1752
  184SLPC  H12B21094   3.161   3.765  10.594 -0.4198  0.0101  0.2318
  184SLPC   C1121095   3.137   3.973  10.547  0.2257 -0.6325  0.6674
  184SLPC  H11A21096   3.042   3.950  10.494  1.1081 -2.8220 -0.0968
  184SLPC  H11B21097   3.226   3.976  10.481  0.6516  0.7151  1.2834
  184SLPC     P21098   3.215   4.227  10.568 -0.0652  0.2281  0.2517
  184SLPC   O1321099   3.183   4.341  10.659 -0.1565  0.6262 -0.1859
  184SLPC   O1421100   3.355   4.177  10.563  1.1366  0.5867  0.1642
  184SLPC   O1221101   3.127   4.108  10.605 -0.7369  0.4287  0.3980
  184SLPC   O1121102   3.167   4.270  10.425 -0.6091  0.2555 -0.3842
  184SLPC    C121103   3.254   4.323  10.325  0.8754 -0.1899  0.3128
  184SLPC    HA21104   3.198   4.412  10.287  1.3648  0.1271  0.3286
  184SLPC    HB21105   3.346   4.356  10.378 -0.2488 -0.2536  2.4126
  184SLPC    C221106   3.274   4.224  10.210 -0.5595 -0.1225  0.7160
  184SLPC    HS21107   3.332   4.140  10.254 -0.8068 -2.6042 -3.1995
  184SLPC   O2121108   3.336   4.294  10.102  0.3561  0.3370  0.0188
  184SLPC   C2121109   3.413   4.222  10.020  0.2258 -0.0819  0.1864
  184SLPC   O2221110   3.446   4.104  10.037 -0.6063  0.4594  0.3121
  184SLPC   C2221111   3.438   4.319   9.906 -0.2811 -0.2923 -0.5664
  184SLPC   H2R21112   3.335   4.352   9.880 -0.3909  1.2139  1.4608
  184SLPC   H2S21113   3.495   4.407   9.944  1.7827 -1.8359  0.0570
  184SLPC    C321114   3.137   4.168  10.151  0.0614 -1.2191 -0.2382
  184SLPC    HX21115   3.089   4.254  10.099  2.2882 -0.2036 -0.7405
  184SLPC    HY21116   3.068   4.147  10.235 -0.0397 -0.3993 -0.1047
  184SLPC   O3121117   3.161   4.061  10.066 -0.4490 -0.1935 -0.0439
  184SLPC   C3121118   3.172   3.939  10.125 -0.0507  0.5507 -1.3296
  184SLPC   O3221119   3.141   3.915  10.244  0.2416  0.1031 -0.2356
  184SLPC   C3221120   3.249   3.840  10.043  0.3072  0.0515  0.2209
  184SLPC   H2X21121   3.216   3.737  10.067 -1.0696  0.0213 -1.5979
  184SLPC   H2Y21122   3.357   3.856  10.064  0.9548 -0.7167 -2.1347
  184SLPC   C2321123   3.516   4.256   9.795  0.1923 -0.1530 -0.7423
  184SLPC   H3R21124   3.607   4.215   9.843  0.6798 -0.7443 -2.1296
  184SLPC   H3S21125   3.558   4.337   9.731 -0.6510  1.4865  0.6711
  184SLPC   C2421126   3.442   4.140   9.719  0.0566  0.2872  0.6834
  184SLPC   H4R21127   3.412   4.054   9.783 -2.3004  0.7975  0.3749
  184SLPC   H4S21128   3.511   4.093   9.645 -0.4666 -1.2367  1.1129
  184SLPC   C2521129   3.316   4.182   9.642  1.0814  0.9574  0.1181
  184SLPC   H5R21130   3.240   4.226   9.709  0.4007 -0.6553  0.4631
  184SLPC   H5S21131   3.265   4.091   9.602 -0.1529  1.2718  0.9107
  184SLPC   C2621132   3.357   4.271   9.528 -0.0755 -0.1471  0.2327
  184SLPC   H6R21133   3.441   4.224   9.472  0.3574  1.1302 -0.2106
  184SLPC   H6S21134   3.388   4.371   9.564  1.5870 -0.7519  0.5919
  184SLPC   C2721135   3.242   4.284   9.429 -0.2490  0.5506 -0.1030
  184SLPC   H7R21136   3.152   4.301   9.492 -0.9537 -0.7978 -0.6974
  184SLPC   H7S21137   3.234   4.185   9.379  2.4510  0.2541 -0.1100
  184SLPC   C2821138   3.280   4.399   9.327  0.1295  0.2177  0.8447
  184SLPC   H8R21139   3.381   4.377   9.286  0.6013  2.5084  0.6864
  184SLPC   H8S21140   3.288   4.497   9.378 -0.2516  0.5546  0.2710
  184SLPC   C2921141   3.172   4.404   9.222  0.0256  0.2618 -0.3234
  184SLPC   H9R21142   3.072   4.392   9.268  1.0652  1.3557  2.4578
  184SLPC  C21021143   3.184   4.427   9.086  0.3975 -0.0144  0.4646
  184SLPC  H10R21144   3.091   4.433   9.028  0.9994 -1.5764 -0.7357
  184SLPC  C21121145   3.311   4.450   9.019 -0.2729  0.4512 -0.2557
  184SLPC  H11R21146   3.377   4.495   9.096  0.6991  0.9641 -1.3487
  184SLPC  H11S21147   3.306   4.531   8.943  0.9977  0.1821 -0.6489
  184SLPC  C21221148   3.396   4.328   8.985  0.5128  0.2268  0.0972
  184SLPC  H12R21149   3.359   4.232   9.025  0.1699 -0.0981 -0.9662
  184SLPC  C21321150   3.510   4.338   8.912  0.1314 -0.0805 -0.2252
  184SLPC  H13R21151   3.567   4.245   8.899 -1.0962 -0.7118 -1.3407
  184SLPC  C21421152   3.566   4.467   8.856  0.6198  0.0452  0.2762
  184SLPC  H14R21153   3.657   4.507   8.905  1.6363 -0.2002 -1.3533
  184SLPC  H14S21154   3.491   4.547   8.871 -0.4090 -0.8724  0.1395
  184SLPC  C21521155   3.567   4.473   8.703  0.4204 -1.4267 -1.0241
  184SLPC  H15R21156   3.584   4.580   8.678  0.0549 -0.4576  2.3834
  184SLPC  H15S21157   3.462   4.447   8.679 -0.2012  0.0826 -0.1385
  184SLPC  C21621158   3.675   4.386   8.626  0.6713 -0.6382 -0.3084
  184SLPC  H16R21159   3.628   4.286   8.614  0.6257 -0.6199 -0.2790
  184SLPC  H16S21160   3.759   4.378   8.699 -1.1322 -0.1825  1.9313
  184SLPC  C21721161   3.718   4.464   8.501  0.3016 -0.4594  0.1062
  184SLPC  H17R21162   3.784   4.393   8.448 -1.2092 -0.8527 -1.3452
  184SLPC  H17S21163   3.761   4.560   8.535 -3.6399  1.5138  0.1582
  184SLPC  C21821164   3.611   4.507   8.403  1.1855 -1.1910  0.0537
  184SLPC  H18R21165   3.653   4.548   8.308  1.1138  0.3945  0.6756
  184SLPC  H18S21166   3.548   4.584   8.453  0.3932 -1.9575  0.2520
  184SLPC  H18T21167   3.543   4.423   8.378  0.3322 -0.3459 -0.5823
  184SLPC   C3321168   3.225   3.866   9.896 -0.2423  0.0252  0.1966
  184SLPC   H3X21169   3.247   3.973   9.878 -2.2897  0.5488  0.5037
  184SLPC   H3Y21170   3.118   3.854   9.869 -0.7368  0.3242  1.8707
  184SLPC   C3421171   3.302   3.757   9.817 -0.0376 -0.5034 -0.8440
  184SLPC   H4X21172   3.274   3.653   9.844 -1.5294  0.6480  2.5654
  184SLPC   H4Y21173   3.409   3.761   9.848 -0.0015 -0.8329 -0.9222
  184SLPC   C3521174   3.289   3.779   9.663 -0.2533 -0.5816  0.1588
  184SLPC   H5X21175   3.294   3.888   9.643  1.4790 -0.9142 -1.4706
  184SLPC   H5Y21176   3.186   3.749   9.633  0.5309 -2.1151 -1.1260
  184SLPC   C3621177   3.389   3.706   9.586 -0.0754  0.3449 -0.3777
  184SLPC   H6X21178   3.363   3.600   9.563  1.2604  0.2601 -1.7154
  184SLPC   H6Y21179   3.489   3.703   9.635  1.7224  0.1141 -3.7534
  184SLPC   C3721180   3.427   3.764   9.448 -0.4017 -0.1303  0.9134
  184SLPC   H7X21181   3.341   3.758   9.378 -0.9229  2.8804  1.1650
  184SLPC   H7Y21182   3.506   3.705   9.397 -1.0007  0.5792 -0.9066
  184SLPC   C3821183   3.466   3.907   9.446 -0.2052 -0.4300  0.0120
  184SLPC   H8X21184   3.534   3.923   9.531  1.4775  1.4203 -1.5929
  184SLPC   H8Y21185   3.372   3.966   9.458  0.4483  0.5979  0.1406
  184SLPC   C3921186   3.524   3.965   9.314  0.1983 -0.2211  0.2297
  184SLPC   H9X21187   3.620   3.909   9.307  1.1573  1.4650 -0.8429
  184SLPC   H9Y21188   3.545   4.074   9.320 -2.0435  0.1983  1.9145
  184SLPC  C31021189   3.437   3.939   9.190 -0.2248  0.5688  0.4388
  184SLPC  H10X21190   3.357   4.015   9.176 -0.8255 -0.0749  0.3403
  184SLPC  H10Y21191   3.396   3.836   9.188  1.2444 -0.0718  1.3843
  184SLPC  C31121192   3.518   3.947   9.056 -0.3272  0.2329 -0.3890
  184SLPC  H11X21193   3.617   3.897   9.059  0.3590  1.5840  0.0563
  184SLPC  H11Y21194   3.539   4.054   9.033  0.5990  0.2225  0.3891
  184SLPC  C31221195   3.448   3.884   8.936 -0.0261  1.0310 -0.2117
  184SLPC  H12X21196   3.340   3.907   8.948 -0.3866 -0.3291 -0.7345
  184SLPC  H12Y21197   3.477   3.777   8.939  1.0764  1.3076 -0.2798
  184SLPC  C31321198   3.487   3.949   8.797  0.3989  0.4063 -0.4524
  184SLPC  H13X21199   3.436   4.047   8.781 -0.1938 -0.0780 -1.7012
  184SLPC  H13Y21200   3.442   3.873   8.729 -1.8967  2.1522 -1.0251
  184SLPC  C31421201   3.646   3.958   8.772 -1.1805 -0.2933  0.6368
  184SLPC  H14X21202   3.690   3.862   8.807  0.9582  0.4810  0.2377
  184SLPC  H14Y21203   3.700   4.042   8.821 -1.1131  1.4289 -2.1873
  184SLPC  C31521204   3.690   3.981   8.627  0.1604 -0.3250  0.5183
  184SLPC  H15X21205   3.657   4.081   8.591  2.2763  0.4037  0.4378
  184SLPC  H15Y21206   3.636   3.902   8.571  2.7978 -0.0405 -2.7800
  184SLPC  C31621207   3.835   3.948   8.602  0.1093 -1.0679  0.6552
  184SLPC  H16X21208   3.863   3.846   8.636 -0.2944 -0.7540  2.0069
  184SLPC  H16Y21209   3.906   4.017   8.654  0.8318 -0.2830 -1.2654
  184SLPC  C31721210   3.884   3.962   8.452  0.5561 -0.3586  0.3675
  184SLPC  H17X21211   3.993   3.948   8.462  0.5113 -0.8404  0.2195
  184SLPC  H17Y21212   3.873   4.066   8.414 -1.4215 -0.4077  0.6571
  184SLPC  C31821213   3.817   3.868   8.352 -0.9526 -0.6518 -0.3769
  184SLPC  H18X21214   3.834   3.762   8.380  1.8014 -0.1585  0.0835
  184SLPC  H18Y21215   3.883   3.878   8.263 -0.6269  0.2568 -0.0464
  184SLPC  H18Z21216   3.712   3.886   8.319 -0.7217  0.1860 -0.6682
  185SLPC     N21217   5.724   0.069   6.098 -0.9547  0.1954  0.8086
  185SLPC   C1321218   5.855  -0.001   6.098 -0.2145  0.2006 -0.4707
  185SLPC  H13A21219   5.851  -0.097   6.048  0.8341 -0.6883  1.0478
  185SLPC  H13B21220   5.935   0.054   6.052 -0.8475  0.3666 -1.4070
  185SLPC  H13C21221   5.884  -0.022   6.200 -1.3747 -0.4753 -0.2599
  185SLPC   C1421222   5.607  -0.022   6.125 -0.2102  0.0671 -0.3178
  185SLPC  H14A21223   5.516   0.017   6.083 -0.9110  0.6584  1.6340
  185SLPC  H14B21224   5.608  -0.117   6.075 -1.8122  0.3634 -0.9473
  185SLPC  H14C21225   5.604  -0.044   6.231  0.1430  0.2792 -0.2597
  185SLPC   C1521226   5.700   0.116   5.957  0.2005  0.0516 -0.4424
  185SLPC  H15A21227   5.618   0.185   5.945  0.7921  1.0619  1.0375
  185SLPC  H15B21228   5.790   0.172   5.934  0.0767  0.2746 -0.3779
  185SLPC  H15C21229   5.695   0.033   5.888  0.5533 -0.1047 -0.2825
  185SLPC   C1221230   5.728   0.182   6.196 -0.1066  0.3508  0.1683
  185SLPC  H12A21231   5.634   0.235   6.186 -0.6923 -0.3788  1.5225
  185SLPC  H12B21232   5.808   0.247   6.164  2.8455 -2.7074  0.6629
  185SLPC   C1121233   5.743   0.158   6.345  0.4109 -0.0018 -0.1866
  185SLPC  H11A21234   5.765   0.251   6.401  4.4941 -0.6738 -0.3876
  185SLPC  H11B21235   5.833   0.095   6.362 -0.8593 -1.4898  1.5240
  185SLPC     P21236   5.501   0.195   6.422 -0.3906  0.0676 -0.1403
  185SLPC   O1321237   5.527   0.332   6.377 -0.3535 -0.8250  0.2226
  185SLPC   O1421238   5.384   0.131   6.356  0.3583  0.1526  0.1822
  185SLPC   O1221239   5.623   0.090   6.398 -0.2215 -0.4670 -0.2462
  185SLPC   O1121240   5.481   0.196   6.584  0.1535  0.3561  0.5537
  185SLPC    C121241   5.596   0.200   6.660 -0.0803  0.1096 -0.6969
  185SLPC    HA21242   5.631   0.100   6.693  0.3286  0.6210  0.4718
  185SLPC    HB21243   5.684   0.257   6.624  0.3711  2.4941  3.5278
  185SLPC    C221244   5.566   0.270   6.797 -0.2096  0.0162 -0.0537
  185SLPC    HS21245   5.662   0.272   6.852 -0.0191  0.1848 -0.3943
  185SLPC   O2121246   5.457   0.215   6.868  0.2833  0.3221 -0.2049
  185SLPC   C2121247   5.480   0.103   6.933  0.8545  0.3393  0.5772
  185SLPC   O2221248   5.588   0.045   6.944 -0.7040  0.3218 -0.0757
  185SLPC   C2221249   5.365   0.056   7.020  0.1227  0.3036  0.6665
  185SLPC   H2R21250   5.352   0.138   7.093  0.7320  0.8935  0.1284
  185SLPC   H2S21251   5.275   0.075   6.958 -0.3256  2.9163  1.9992
  185SLPC    C321252   5.525   0.415   6.763  0.0950 -0.2447 -0.2583
  185SLPC    HX21253   5.432   0.416   6.703  0.7159  2.0410 -1.2978
  185SLPC    HY21254   5.602   0.460   6.696  0.1024 -1.9794 -1.5021
  185SLPC   O3121255   5.502   0.504   6.879  0.0120 -0.4242  0.1353
  185SLPC   C3121256   5.617   0.546   6.929  0.1046 -0.7006  0.3410
  185SLPC   O3221257   5.727   0.514   6.895 -0.1549 -0.8725 -0.0181
  185SLPC   C3221258   5.595   0.645   7.041  0.0193 -0.6060 -0.4767
  185SLPC   H2X21259   5.486   0.668   7.041  0.2769  1.1622 -3.5573
  185SLPC   H2Y21260   5.637   0.744   7.013 -0.9778 -0.2151 -0.6283
  185SLPC   C2321261   5.381  -0.086   7.088 -0.4545  0.0315  0.4083
  185SLPC   H3R21262   5.482  -0.114   7.126 -1.2340 -4.2099 -0.1510
  185SLPC   H3S21263   5.358  -0.163   7.010  1.9786 -2.2515  1.7698
  185SLPC   C2421264   5.273  -0.107   7.196  0.1293 -1.0250 -0.3434
  185SLPC   H4R21265   5.245  -0.213   7.216  1.4082 -1.2735  0.2318
  185SLPC   H4S21266   5.179  -0.056   7.166  1.5683  1.9725 -0.1202
  185SLPC   C2521267   5.314  -0.041   7.332 -0.5797 -0.3364 -0.0194
  185SLPC   H5R21268   5.340   0.066   7.319  1.7853 -0.6172  1.7483
  185SLPC   H5S21269   5.394  -0.098   7.384 -0.0492  0.8054  0.4613
  185SLPC   C2621270   5.194  -0.051   7.434  0.2813 -0.2156  0.4864
  185SLPC   H6R21271   5.149  -0.153   7.433  0.7003 -0.4119 -0.5995
  185SLPC   H6S21272   5.115   0.024   7.413 -0.2293 -0.4871  1.3975
  185SLPC   C2721273   5.244  -0.019   7.584  0.1556  0.5605  0.0995
  185SLPC   H7R21274   5.265   0.089   7.604  0.7759  0.6078 -0.7378
  185SLPC   H7S21275   5.345  -0.065   7.589  0.2479  0.7273 -0.1598
  185SLPC   C2821276   5.139  -0.072   7.681  0.0508  0.0480  0.1817
  185SLPC   H8R21277   5.087  -0.160   7.638  1.5536  0.0468 -1.7531
  185SLPC   H8S21278   5.071   0.016   7.680  1.4966  1.3962 -4.2713
  185SLPC   C2921279   5.192  -0.102   7.818  0.4858 -0.0653  0.4611
  185SLPC   H9R21280   5.297  -0.073   7.835  0.7784  0.4433 -1.8955
  185SLPC  C21021281   5.121  -0.175   7.912 -0.5595  0.3045 -0.2858
  185SLPC  H10R21282   5.166  -0.190   8.011 -0.1061  2.1749 -0.1622
  185SLPC  C21121283   4.984  -0.229   7.885  0.1648  0.3724 -0.2741
  185SLPC  H11R21284   4.997  -0.339   7.882 -0.0485  0.3598 -1.5922
  185SLPC  H11S21285   4.932  -0.187   7.796  0.9422 -0.2421 -1.0370
  185SLPC  C21221286   4.885  -0.189   7.994 -0.7405  0.4899  0.4670
  185SLPC  H12R21287   4.854  -0.084   8.002 -0.4139  0.7634 -1.3548
  185SLPC  C21321288   4.826  -0.273   8.077  0.6619  0.1282  0.1796
  185SLPC  H13R21289   4.768  -0.223   8.156 -1.1680 -0.7715 -0.5405
  185SLPC  C21421290   4.837  -0.420   8.086  0.4325  0.2233  0.2281
  185SLPC  H14R21291   4.892  -0.461   8.174  2.1660 -0.9725 -1.3179
  185SLPC  H14S21292   4.901  -0.473   8.012  0.1298  0.5695 -0.2863
  185SLPC  C21521293   4.695  -0.484   8.079  0.9206  0.1385  0.0785
  185SLPC  H15R21294   4.714  -0.593   8.074 -0.8107 -0.1759 -0.3193
  185SLPC  H15S21295   4.658  -0.440   7.983  0.0461 -0.6312  0.0518
  185SLPC  C21621296   4.591  -0.445   8.182 -0.3621  0.4132 -0.5692
  185SLPC  H16R21297   4.568  -0.336   8.179 -1.1700  0.2778  0.1984
  185SLPC  H16S21298   4.636  -0.458   8.283  0.5902  1.9016 -0.7703
  185SLPC  C21721299   4.458  -0.527   8.182  0.2027  0.3993 -0.3507
  185SLPC  H17R21300   4.492  -0.632   8.190  1.4509  0.7953 -0.2004
  185SLPC  H17S21301   4.400  -0.512   8.088  0.9343  0.3100 -0.8239
  185SLPC  C21821302   4.359  -0.492   8.294 -0.0536  0.2382 -0.0262
  185SLPC  H18R21303   4.280  -0.569   8.299 -1.3692  1.3197 -2.4748
  185SLPC  H18S21304   4.311  -0.394   8.272 -0.8631 -0.7306 -2.9717
  185SLPC  H18T21305   4.401  -0.498   8.397 -0.2610 -0.5336  0.0151
  185SLPC   C3321306   5.646   0.592   7.170 -0.1424 -0.1684 -0.6312
  185SLPC   H3X21307   5.757   0.596   7.181 -0.3055  1.8116  0.9471
  185SLPC   H3Y21308   5.614   0.486   7.171 -4.0683  0.8331  1.6399
  185SLPC   C3421309   5.586   0.669   7.283  0.3946 -0.2705  0.0402
  185SLPC   H4X21310   5.475   0.662   7.277  0.2877 -3.1372  2.6301
  185SLPC   H4Y21311   5.625   0.773   7.277  1.3749 -0.6882 -0.9929
  185SLPC   C3521312   5.632   0.622   7.430  0.2073 -0.5446 -0.0330
  185SLPC   H5X21313   5.742   0.613   7.417  0.0151 -0.7306 -1.6921
  185SLPC   H5Y21314   5.596   0.518   7.434 -2.6191  0.3105 -1.0883
  185SLPC   C3621315   5.592   0.730   7.545 -0.8003 -0.6017 -1.3017
  185SLPC   H6X21316   5.484   0.753   7.537 -0.7919  0.3966  0.8275
  185SLPC   H6Y21317   5.647   0.826   7.538 -1.6813 -0.0102 -0.3606
  185SLPC   C3721318   5.618   0.694   7.693  0.3386 -0.1900 -0.4460
  185SLPC   H7X21319   5.627   0.793   7.744  0.1280 -0.8265  0.8709
  185SLPC   H7Y21320   5.713   0.638   7.694  0.5849  0.0577 -3.2593
  185SLPC   C3821321   5.505   0.626   7.770 -0.0343  0.1526  0.0521
  185SLPC   H8X21322   5.480   0.542   7.702 -1.1963  0.3613  0.2018
  185SLPC   H8Y21323   5.420   0.695   7.794  1.7075  1.7919  1.9701
  185SLPC   C3921324   5.559   0.568   7.895 -0.0940  0.7618 -0.5310
  185SLPC   H9X21325   5.587   0.656   7.957  0.5177  0.4652 -0.3802
  185SLPC   H9Y21326   5.650   0.505   7.886 -0.6565 -0.3243  0.9889
  185SLPC  C31021327   5.442   0.488   7.969  0.0328  0.4729  0.0811
  185SLPC  H10X21328   5.445   0.392   7.913  1.9685  0.4205  0.2089
  185SLPC  H10Y21329   5.340   0.529   7.954 -0.3016 -0.8122 -1.4996
  185SLPC  C31121330   5.451   0.477   8.120 -0.6423 -0.4053 -0.1500
  185SLPC  H11X21331   5.436   0.579   8.161  0.7174  0.4422 -1.6439
  185SLPC  H11Y21332   5.549   0.442   8.159 -1.3989 -0.3954  1.8922
  185SLPC  C31221333   5.350   0.383   8.186  0.8152 -0.4793  0.1292
  185SLPC  H12X21334   5.354   0.276   8.160  1.7184 -0.8426  1.6900
  185SLPC  H12Y21335   5.253   0.409   8.136  2.3055 -0.5628 -3.0577
  185SLPC  C31321336   5.348   0.392   8.339  0.8672 -0.3394 -0.0468
  185SLPC  H13X21337   5.260   0.339   8.383 -1.9929  3.3688 -0.8063
  185SLPC  H13Y21338   5.333   0.499   8.365 -0.0355 -0.1242 -1.3319
  185SLPC  C31421339   5.472   0.340   8.408  0.3767 -0.1543  0.2760
  185SLPC  H14X21340   5.562   0.389   8.366  0.0494  1.9073  1.8276
  185SLPC  H14Y21341   5.477   0.232   8.384 -1.4742 -1.1814  3.7930
  185SLPC  C31521342   5.486   0.361   8.558 -0.2407 -0.2360 -0.4436
  185SLPC  H15X21343   5.431   0.278   8.607  1.6067 -0.4081  1.4858
  185SLPC  H15Y21344   5.437   0.455   8.592  2.4991  0.3966  2.1815
  185SLPC  C31621345   5.629   0.351   8.606  0.6277  0.4181  0.0858
  185SLPC  H16X21346   5.694   0.433   8.570  0.7565 -0.0875 -0.8573
  185SLPC  H16Y21347   5.669   0.251   8.579 -1.6537 -1.0301  1.6993
  185SLPC  C31721348   5.649   0.335   8.755  0.4032  0.0447 -0.1247
  185SLPC  H17X21349   5.584   0.246   8.773  0.7897 -0.3509 -0.6301
  185SLPC  H17Y21350   5.607   0.418   8.816  0.4752 -0.5237  0.7159
  185SLPC  C31821351   5.792   0.296   8.792  0.0199  0.1765  0.1309
  185SLPC  H18X21352   5.866   0.379   8.791  2.0656 -1.5310  1.0832
  185SLPC  H18Y21353   5.836   0.212   8.735  1.6140  0.5319  0.7811
  185SLPC  H18Z21354   5.788   0.260   8.897  0.1484  0.5499  0.2658
  186SLPC     N21355   2.495   4.841   5.920  0.1548  0.1842 -0.3710
  186SLPC   C1321356   2.599   4.738   5.882  1.2759  0.1563 -0.0927
  186SLPC  H13A21357   2.599   4.654   5.949  0.9914  0.4424  0.2736
  186SLPC  H13B21358   2.578   4.704   5.782 -0.0889  0.8963 -0.0713
  186SLPC  H13C21359   2.694   4.786   5.864  1.3352 -0.0624 -0.3666
  186SLPC   C1421360   2.361   4.771   5.929  0.5187 -0.5757 -0.0295
  186SLPC  H14A21361   2.338   4.737   5.830 -0.0167  1.0886 -0.5045
  186SLPC  H14B21362   2.364   4.683   5.993 -4.0053 -2.7801 -2.3805
  186SLPC  H14C21363   2.281   4.834   5.966  0.5709 -0.5342  0.0136
  186SLPC   C1521364   2.498   4.946   5.810 -0.7581  0.7686 -0.2616
  186SLPC  H15A21365   2.464   4.900   5.719  0.5459 -1.8691  0.4743
  186SLPC  H15B21366   2.439   5.026   5.851 -0.6255  0.5054  0.4701
  186SLPC  H15C21367   2.599   4.985   5.803 -1.7881  3.9437  0.8814
  186SLPC   C1221368   2.534   4.903   6.051  0.2582 -0.1198 -0.2945
  186SLPC  H12A21369   2.630   4.952   6.047 -0.3353  1.0596 -0.4848
  186SLPC  H12B21370   2.552   4.816   6.113 -1.0276 -1.7589 -2.0886
  186SLPC   C1121371   2.437   5.003   6.110  0.4613 -0.2969  0.1620
  186SLPC  H11A21372   2.449   5.010   6.221  1.6836  0.0362  0.0276
  186SLPC  H11B21373   2.336   4.958   6.097 -0.7798  2.5908 -1.1441
  186SLPC     P21374   2.559   5.226   6.062 -0.3122  0.0904 -0.1017
  186SLPC   O1321375   2.687   5.171   6.010 -0.5592 -0.3682 -0.6199
  186SLPC   O1421376   2.515   5.356   6.010 -0.0444 -0.8908 -0.4775
  186SLPC   O1221377   2.443   5.125   6.035 -0.8586 -0.1544  0.3095
  186SLPC   O1121378   2.573   5.222   6.219 -0.3487  0.1093 -0.5028
  186SLPC    C121379   2.692   5.195   6.299 -0.3622 -0.1316 -0.2787
  186SLPC    HA21380   2.780   5.185   6.233  0.0636 -1.0157  0.3981
  186SLPC    HB21381   2.711   5.278   6.371 -0.8856 -0.4666  0.2670
  186SLPC    C221382   2.682   5.065   6.377 -0.1072 -0.1843 -0.4102
  186SLPC    HS21383   2.667   4.984   6.302 -1.6509 -1.3013  1.0390
  186SLPC   O2121384   2.565   5.065   6.464 -0.0948  0.1131 -0.6523
  186SLPC   C2121385   2.511   4.939   6.490 -0.1843 -0.6216 -0.1686
  186SLPC   O2221386   2.558   4.837   6.456 -0.0309  0.6112 -0.3468
  186SLPC   C2221387   2.380   4.968   6.569  0.1936  0.7170 -0.2905
  186SLPC   H2R21388   2.379   5.071   6.610 -2.1181  0.2865  0.9129
  186SLPC   H2S21389   2.297   4.959   6.495  1.2548 -0.3839 -1.4022
  186SLPC    C321390   2.816   5.037   6.457 -1.2854  0.6269 -0.0340
  186SLPC    HX21391   2.830   5.109   6.540 -1.4972 -0.5834  1.0804
  186SLPC    HY21392   2.901   5.049   6.386 -0.2405 -0.1660  1.0332
  186SLPC   O3121393   2.822   4.907   6.530  0.4427 -0.1622 -0.2331
  186SLPC   C3121394   2.864   4.806   6.460  0.1092  0.2019 -0.1128
  186SLPC   O3221395   2.930   4.799   6.356  0.0215 -0.2714  0.0897
  186SLPC   C3221396   2.816   4.676   6.529  0.0199 -0.5781  0.1136
  186SLPC   H2X21397   2.719   4.649   6.482  0.6492  0.7731 -2.0887
  186SLPC   H2Y21398   2.775   4.700   6.629 -0.6319  1.0689 -0.5134
  186SLPC   C2321399   2.376   4.869   6.690  0.6398  0.0967 -0.0353
  186SLPC   H3R21400   2.473   4.880   6.742  0.6027 -0.4248  0.1467
  186SLPC   H3S21401   2.366   4.763   6.660  1.1159 -0.0825  0.4319
  186SLPC   C2421402   2.256   4.907   6.786 -0.1082 -0.9166  0.4384
  186SLPC   H4R21403   2.152   4.897   6.749 -0.7027 -1.9999  2.2719
  186SLPC   H4S21404   2.271   5.014   6.810 -2.8593  0.4340 -3.0290
  186SLPC   C2521405   2.262   4.821   6.905  0.1201 -0.2830 -0.4568
  186SLPC   H5R21406   2.370   4.800   6.921  0.9455  1.4452 -3.2069
  186SLPC   H5S21407   2.213   4.723   6.886 -0.8597  0.5990 -2.7068
  186SLPC   C2621408   2.209   4.888   7.034 -0.3471  0.1194 -0.6280
  186SLPC   H6R21409   2.099   4.903   7.025 -0.6739 -0.4656  1.5985
  186SLPC   H6S21410   2.261   4.986   7.044 -1.0200  0.4909 -0.6731
  186SLPC   C2721411   2.242   4.809   7.161 -0.0422 -0.5294  0.1065
  186SLPC   H7R21412   2.350   4.786   7.160 -0.1491 -1.0980  0.8677
  186SLPC   H7S21413   2.200   4.708   7.139  0.8012 -0.4895 -1.9431
  186SLPC   C2821414   2.195   4.864   7.290 -0.0675  0.0996 -0.7430
  186SLPC   H8R21415   2.092   4.903   7.277 -0.1219  1.1222  2.1959
  186SLPC   H8S21416   2.252   4.955   7.317  1.0533 -0.8467  0.1579
  186SLPC   C2921417   2.197   4.766   7.402  0.1116  0.2758 -0.6546
  186SLPC   H9R21418   2.117   4.692   7.417 -0.0816  0.6472  0.2385
  186SLPC  C21021419   2.299   4.766   7.497  0.5063 -0.0515  0.4902
  186SLPC  H10R21420   2.303   4.689   7.576  0.8315 -0.7753 -0.2188
  186SLPC  C21121421   2.419   4.866   7.499 -0.2970  0.2640 -0.3413
  186SLPC  H11R21422   2.380   4.958   7.548 -2.2991 -1.6671  1.8678
  186SLPC  H11S21423   2.449   4.889   7.394  2.2587  2.0989  0.6581
  186SLPC  C21221424   2.547   4.834   7.577 -0.5691  0.4972 -0.5472
  186SLPC  H12R21425   2.638   4.829   7.516  0.0619  0.2875  0.3970
  186SLPC  C21321426   2.559   4.793   7.705  0.2123  1.1546 -0.0297
  186SLPC  H13R21427   2.659   4.776   7.749 -0.4932  0.2342  1.2750
  186SLPC  C21421428   2.449   4.784   7.808 -0.1332 -0.0833 -0.2023
  186SLPC  H14R21429   2.354   4.831   7.775 -0.9733 -1.4305  0.2250
  186SLPC  H14S21430   2.476   4.838   7.902  0.2001 -2.5760  1.2273
  186SLPC  C21521431   2.407   4.647   7.861 -0.3767 -0.8100 -0.0407
  186SLPC  H15R21432   2.333   4.598   7.793 -0.7348  0.8542 -0.8951
  186SLPC  H15S21433   2.369   4.665   7.964 -0.7734  1.2072 -0.4993
  186SLPC  C21621434   2.534   4.555   7.873 -0.2807  0.2674  0.2267
  186SLPC  H16R21435   2.620   4.620   7.899 -0.9167  1.7155 -1.1026
  186SLPC  H16S21436   2.555   4.512   7.772 -1.4846 -2.1372  0.9367
  186SLPC  C21721437   2.526   4.468   7.988 -0.6113  0.3296  0.1399
  186SLPC  H17R21438   2.428   4.415   7.993  0.7637 -2.3966  0.0545
  186SLPC  H17S21439   2.543   4.529   8.080  3.0258  0.9587 -0.8005
  186SLPC  C21821440   2.630   4.352   7.979  0.3340  0.4156  0.1509
  186SLPC  H18R21441   2.733   4.382   7.952  0.4077  0.1102  0.0882
  186SLPC  H18S21442   2.593   4.277   7.906 -3.1837  1.9159  0.1924
  186SLPC  H18T21443   2.623   4.291   8.072 -1.0340 -0.4547 -0.4873
  186SLPC   C3321444   2.919   4.561   6.539  0.4459  0.6273 -0.2356
  186SLPC   H3X21445   2.983   4.568   6.448  0.3958 -2.5067 -0.6213
  186SLPC   H3Y21446   2.865   4.464   6.546  0.2180  0.7388 -0.4228
  186SLPC   C3421447   3.018   4.576   6.662 -0.0290  0.1112  0.4527
  186SLPC   H4X21448   2.965   4.593   6.758 -0.0356 -1.2684  0.7053
  186SLPC   H4Y21449   3.094   4.656   6.644 -0.7851  0.6124 -0.5859
  186SLPC   C3521450   3.103   4.447   6.673 -0.1172 -0.6284  0.5869
  186SLPC   H5X21451   3.147   4.420   6.574  1.6800 -1.4653  1.5659
  186SLPC   H5Y21452   3.039   4.360   6.701  0.8508 -1.1957  1.1087
  186SLPC   C3621453   3.228   4.444   6.769  0.2106 -0.1090 -0.2043
  186SLPC   H6X21454   3.302   4.524   6.744  1.6507 -1.0750  0.8356
  186SLPC   H6Y21455   3.286   4.352   6.745 -0.3322 -0.2237 -1.1090
  186SLPC   C3721456   3.199   4.461   6.920 -0.1304  0.2478  0.2631
  186SLPC   H7X21457   3.115   4.533   6.927 -1.8575 -1.6926  0.6996
  186SLPC   H7Y21458   3.283   4.512   6.970  0.4620 -1.1659  0.7674
  186SLPC   C3821459   3.173   4.337   7.009 -0.4070  0.7231 -0.0567
  186SLPC   H8X21460   3.272   4.291   7.026 -0.9884 -0.8520 -0.6903
  186SLPC   H8Y21461   3.119   4.272   6.936 -0.3761 -1.9221  2.1027
  186SLPC   C3921462   3.085   4.355   7.132  0.2353 -0.4810  0.3383
  186SLPC   H9X21463   2.978   4.372   7.107 -0.0790 -0.5119  1.5822
  186SLPC   H9Y21464   3.132   4.446   7.175  0.7388 -0.5330 -0.0865
  186SLPC  C31021465   3.085   4.234   7.224  0.3318  0.2548  0.3260
  186SLPC  H10X21466   3.185   4.187   7.232  0.0553 -0.3335  0.3996
  186SLPC  H10Y21467   3.019   4.150   7.193  0.8415  0.2324 -0.7216
  186SLPC  C31121468   3.045   4.267   7.366 -0.2048  0.3245 -0.0958
  186SLPC  H11X21469   2.965   4.344   7.368  2.1547  2.9652 -0.5360
  186SLPC  H11Y21470   3.133   4.319   7.411  0.9849 -2.0659  0.5112
  186SLPC  C31221471   3.022   4.139   7.455  0.1031 -0.1278  0.8486
  186SLPC  H12X21472   3.108   4.068   7.449  0.9415  0.9121  0.2064
  186SLPC  H12Y21473   2.937   4.090   7.403  1.2219  1.2100 -2.5020
  186SLPC  C31321474   3.000   4.167   7.603  0.0007 -0.1748 -0.2480
  186SLPC  H13X21475   2.924   4.248   7.607  0.9097  0.8213 -2.0237
  186SLPC  H13Y21476   3.091   4.215   7.644 -0.2621  0.2833 -0.1944
  186SLPC  C31421477   2.941   4.049   7.681 -0.2141 -0.4717  0.1397
  186SLPC  H14X21478   3.007   3.962   7.666 -1.0294 -1.0984  0.1255
  186SLPC  H14Y21479   2.844   4.019   7.634 -0.1397 -3.0117  1.4486
  186SLPC  C31521480   2.902   4.084   7.821  0.3552  0.2302  0.0267
  186SLPC  H15X21481   2.823   4.162   7.821  0.6356  0.5216  0.7264
  186SLPC  H15Y21482   2.982   4.133   7.881  0.3879 -0.7111  0.7822
  186SLPC  C31621483   2.854   3.965   7.903 -0.4500 -0.2179 -0.0765
  186SLPC  H16X21484   2.748   3.946   7.873 -0.8986  2.6742 -0.6354
  186SLPC  H16Y21485   2.851   3.988   8.011 -0.7869  0.7952 -0.2943
  186SLPC  C31721486   2.929   3.832   7.883  0.1691 -0.6567  0.0317
  186SLPC  H17X21487   3.039   3.843   7.900  0.4465 -0.7071 -1.5721
  186SLPC  H17Y21488   2.923   3.807   7.775 -0.9067 -0.5434  0.0587
  186SLPC  C31821489   2.879   3.712   7.966 -0.9394 -0.4408 -0.3209
  186SLPC  H18X21490   2.893   3.612   7.920  0.7529  0.1048 -1.0728
  186SLPC  H18Y21491   2.770   3.728   7.972 -1.2758 -2.2339 -1.0713
  186SLPC  H18Z21492   2.923   3.714   8.068 -0.3747  0.6769 -0.5625
  187SLPC     N21493   0.359   6.712   6.144 -0.0089 -0.6275 -0.2666
  187SLPC   C1321494   0.244   6.640   6.209 -0.6485 -0.5347  0.2910
  187SLPC  H13A21495   0.267   6.579   6.296 -0.0110 -0.5969  0.0818
  187SLPC  H13B21496   0.176   6.715   6.245  0.1957 -0.3857  1.6592
  187SLPC  H13C21497   0.184   6.586   6.137 -1.6853  0.8926  0.0360
  187SLPC   C1421498   0.305   6.809   6.043 -0.3123  0.2804 -0.4235
  187SLPC  H14A21499   0.389   6.864   6.003 -1.0423  1.0232 -0.9746
  187SLPC  H14B21500   0.264   6.767   5.952  0.7625  0.3589 -0.9544
  187SLPC  H14C21501   0.237   6.888   6.071 -0.0740 -0.0408  1.1260
  187SLPC   C1521502   0.447   6.620   6.069  0.1440  0.2505 -0.3730
  187SLPC  H15A21503   0.398   6.571   5.987 -2.0834 -0.8098  1.4791
  187SLPC  H15B21504   0.528   6.677   6.024 -0.3697 -0.1414 -1.8307
  187SLPC  H15C21505   0.480   6.549   6.144 -2.3258 -0.4376  0.1670
  187SLPC   C1221506   0.442   6.793   6.249 -0.0624  0.5256 -0.5594
  187SLPC  H12A21507   0.540   6.811   6.208  1.3466 -1.1653  1.7977
  187SLPC  H12B21508   0.449   6.742   6.344  0.9077  0.0083 -0.8938
  187SLPC   C1121509   0.390   6.930   6.296 -0.3349  0.3621 -0.2823
  187SLPC  H11A21510   0.371   7.003   6.214  1.7352 -0.9452 -2.0362
  187SLPC  H11B21511   0.478   6.972   6.348 -0.1226 -1.9837  1.4266
  187SLPC     P21512   0.295   6.867   6.529 -0.0263 -0.0417 -0.2741
  187SLPC   O1321513   0.302   6.985   6.619 -0.1448 -0.5611  0.7087
  187SLPC   O1421514   0.186   6.769   6.565 -0.0688 -0.1602 -0.0575
  187SLPC   O1221515   0.275   6.910   6.381 -0.3287  0.3179 -0.4874
  187SLPC   O1121516   0.429   6.779   6.536  0.3735 -0.2221  0.1301
  187SLPC    C121517   0.548   6.806   6.616  0.1887  0.6033 -0.0274
  187SLPC    HA21518   0.631   6.755   6.562 -0.4925 -0.0197 -0.5160
  187SLPC    HB21519   0.580   6.911   6.632  2.3322  0.0110 -0.0892
  187SLPC    C221520   0.540   6.740   6.759  0.2435  0.0907  0.2196
  187SLPC    HS21521   0.441   6.763   6.803 -0.0437 -1.9227  0.7293
  187SLPC   O2121522   0.641   6.789   6.848 -0.0250 -0.0716  0.3953
  187SLPC   C2121523   0.630   6.911   6.895 -0.5920  0.4361 -0.0917
  187SLPC   O2221524   0.540   6.990   6.877 -0.1262  0.1113 -0.5285
  187SLPC   C2221525   0.743   6.932   6.995  0.9307  0.7083  0.3742
  187SLPC   H2R21526   0.722   6.859   7.076  2.8425  1.3447  1.5046
  187SLPC   H2S21527   0.844   6.917   6.952  0.4132 -1.8438 -0.1370
  187SLPC    C321528   0.536   6.588   6.756  0.3336 -0.2598  0.1038
  187SLPC    HX21529   0.624   6.537   6.711 -0.4915 -1.4368 -0.2328
  187SLPC    HY21530   0.450   6.566   6.690 -0.3731  3.0387 -0.2393
  187SLPC   O3121531   0.525   6.535   6.893  0.2300  0.3981  0.3281
  187SLPC   C3121532   0.443   6.437   6.913  0.8714  0.4226  0.1182
  187SLPC   O3221533   0.359   6.395   6.827  0.5138  0.2674  0.2553
  187SLPC   C3221534   0.442   6.397   7.065  0.4088 -0.1733  0.4927
  187SLPC   H2X21535   0.423   6.494   7.117  2.1742  0.9036 -0.7721
  187SLPC   H2Y21536   0.543   6.368   7.101 -0.4197 -2.3435  1.2153
  187SLPC   C2321537   0.740   7.076   7.065  0.1661  0.3389 -0.0472
  187SLPC   H3R21538   0.639   7.095   7.108 -0.2073 -0.8368 -0.3724
  187SLPC   H3S21539   0.739   7.149   6.981 -3.3429 -0.2472 -0.6756
  187SLPC   C2421540   0.841   7.091   7.176 -0.1204  0.3475  0.5749
  187SLPC   H4R21541   0.841   7.199   7.201 -0.6887  0.0246  2.0582
  187SLPC   H4S21542   0.943   7.071   7.136 -1.4337 -2.1516 -1.8989
  187SLPC   C2521543   0.801   7.008   7.301  0.5762  0.7839 -0.1728
  187SLPC   H5R21544   0.803   6.899   7.280 -1.9760  0.1831  2.1048
  187SLPC   H5S21545   0.698   7.040   7.331 -0.3514 -1.1964 -1.0808
  187SLPC   C2621546   0.898   7.034   7.413  0.0242  0.0044 -0.0394
  187SLPC   H6R21547   0.898   7.145   7.420 -1.6378  0.1370 -1.5077
  187SLPC   H6S21548   1.004   7.009   7.392  0.2926  2.8976 -2.9537
  187SLPC   C2721549   0.859   6.964   7.543  0.4749  0.5181 -0.5159
  187SLPC   H7R21550   0.802   6.873   7.514  2.5404 -1.3356  0.9166
  187SLPC   H7S21551   0.787   7.033   7.592 -1.8417 -1.7494 -0.4904
  187SLPC   C2821552   0.978   6.929   7.637  0.3976  0.9463 -0.2113
  187SLPC   H8R21553   1.051   6.863   7.585 -1.2581 -1.5745  0.4715
  187SLPC   H8S21554   0.930   6.872   7.720  1.1839  0.5577 -0.0159
  187SLPC   C2921555   1.047   7.042   7.702 -1.1747  0.2955 -0.4367
  187SLPC   H9R21556   1.085   7.117   7.631  0.2461  2.5103  2.4509
  187SLPC  C21021557   1.064   7.068   7.835  0.4146 -0.7717  0.1203
  187SLPC  H10R21558   1.132   7.149   7.864 -0.3609 -0.2805  0.5957
  187SLPC  C21121559   1.021   6.971   7.935  0.0018 -0.2706  0.8449
  187SLPC  H11R21560   1.102   6.960   8.011 -0.9277  0.2811  1.9504
  187SLPC  H11S21561   1.021   6.868   7.893  1.4836  0.7424 -1.8671
  187SLPC  C21221562   0.895   7.010   8.002 -0.1176 -0.1915  0.3256
  187SLPC  H12R21563   0.807   7.005   7.937 -0.2374  3.2909  0.0211
  187SLPC  C21321564   0.871   7.058   8.122 -0.0194  0.5866  0.8023
  187SLPC  H13R21565   0.766   7.080   8.145 -0.2520  0.5350 -0.1925
  187SLPC  C21421566   0.973   7.084   8.231 -0.1800 -0.8308  0.5706
  187SLPC  H14R21567   1.073   7.053   8.195  0.8735 -0.5389  3.0304
  187SLPC  H14S21568   0.950   7.014   8.315 -1.1313 -0.4980  0.5920
  187SLPC  C21521569   0.972   7.231   8.273 -0.1501 -0.3783 -0.3512
  187SLPC  H15R21570   1.010   7.291   8.187  0.3308  1.0938  0.8572
  187SLPC  H15S21571   1.047   7.248   8.353 -0.7641  0.2358  0.0896
  187SLPC  C21621572   0.839   7.291   8.318  0.0656 -0.1106 -0.0976
  187SLPC  H16R21573   0.768   7.282   8.233 -0.3868 -1.9957  0.4404
  187SLPC  H16S21574   0.852   7.400   8.338 -0.8049 -0.0680  0.3125
  187SLPC  C21721575   0.784   7.225   8.444  0.3163  0.6309  0.1446
  187SLPC  H17R21576   0.861   7.221   8.524 -0.8148 -2.4071  1.2194
  187SLPC  H17S21577   0.768   7.116   8.432  0.1475  0.5785  0.8265
  187SLPC  C21821578   0.654   7.285   8.501  0.2003 -0.8925 -0.5369
  187SLPC  H18R21579   0.673   7.371   8.568 -1.4331 -0.4004 -0.6427
  187SLPC  H18S21580   0.605   7.209   8.565  1.0195 -0.3151  0.8137
  187SLPC  H18T21581   0.581   7.317   8.423 -2.7582 -1.2228  1.9292
  187SLPC   C3321582   0.339   6.299   7.098  0.5701 -0.0691 -0.0723
  187SLPC   H3X21583   0.366   6.197   7.062 -1.7993 -1.6789  2.2867
  187SLPC   H3Y21584   0.242   6.319   7.047  0.8512  0.0049 -0.5855
  187SLPC   C3421585   0.305   6.295   7.247  0.2288 -0.5473 -0.1183
  187SLPC   H4X21586   0.205   6.252   7.269  0.8509 -1.4429  1.0462
  187SLPC   H4Y21587   0.306   6.398   7.288 -0.7772 -1.0071  1.1306
  187SLPC   C3521588   0.405   6.221   7.333 -0.0897  0.2462 -0.3649
  187SLPC   H5X21589   0.501   6.234   7.279 -0.9284 -0.2733 -2.0478
  187SLPC   H5Y21590   0.367   6.116   7.330 -3.1977  1.1767  1.6899
  187SLPC   C3621591   0.400   6.258   7.485 -0.5693  0.2059  0.6060
  187SLPC   H6X21592   0.301   6.231   7.528  0.0093 -0.5841  1.4887
  187SLPC   H6Y21593   0.416   6.366   7.502  0.6448  0.3400 -1.1400
  187SLPC   C3721594   0.503   6.187   7.573 -0.2242  0.0117  0.5091
  187SLPC   H7X21595   0.487   6.077   7.565 -1.2312  0.2827 -2.0033
  187SLPC   H7Y21596   0.607   6.193   7.535 -0.6166 -1.6929 -0.9791
  187SLPC   C3821597   0.496   6.225   7.723 -0.4349 -0.4784  0.4665
  187SLPC   H8X21598   0.393   6.200   7.758  0.1114 -1.0380  1.7025
  187SLPC   H8Y21599   0.497   6.335   7.738  0.1856 -0.1463 -1.6637
  187SLPC   C3921600   0.602   6.154   7.818  0.2985  0.2575  0.1000
  187SLPC   H9X21601   0.701   6.193   7.785 -0.2811  0.4701 -1.4373
  187SLPC   H9Y21602   0.613   6.046   7.791  0.6581 -0.0428  1.3852
  187SLPC  C31021603   0.578   6.178   7.971 -0.1463  0.1583  0.0275
  187SLPC  H10X21604   0.515   6.098   8.015  1.4593 -1.5094 -0.6066
  187SLPC  H10Y21605   0.523   6.275   7.978 -2.7500 -1.3331  2.1856
  187SLPC  C31121606   0.696   6.182   8.068 -0.0641 -1.0158  0.4627
  187SLPC  H11X21607   0.779   6.247   8.032  0.1313 -0.0265  2.5567
  187SLPC  H11Y21608   0.752   6.088   8.087  2.9894  0.7628  1.0547
  187SLPC  C31221609   0.661   6.253   8.198 -0.7782  0.4965  0.7119
  187SLPC  H12X21610   0.558   6.229   8.233 -1.4880  1.9988 -0.2387
  187SLPC  H12Y21611   0.653   6.362   8.180 -0.5654  0.1995 -1.5469
  187SLPC  C31321612   0.772   6.235   8.314  0.5840 -0.1127  0.5188
  187SLPC  H13X21613   0.862   6.285   8.272  0.5308 -1.8422 -1.8105
  187SLPC  H13Y21614   0.787   6.126   8.327  2.3977  0.1645  1.0704
  187SLPC  C31421615   0.727   6.301   8.437  0.2525 -0.2431  0.0146
  187SLPC  H14X21616   0.631   6.254   8.468 -0.1639  1.5898  1.6696
  187SLPC  H14Y21617   0.691   6.404   8.416  3.2355  0.9561  0.2663
  187SLPC  C31521618   0.837   6.301   8.546  0.2257 -0.7945 -0.0658
  187SLPC  H15X21619   0.913   6.374   8.510 -0.1446  0.6960  2.0094
  187SLPC  H15Y21620   0.883   6.201   8.562 -1.6389 -1.5514  0.7837
  187SLPC  C31621621   0.786   6.357   8.678 -0.2412  0.2223  0.7079
  187SLPC  H16X21622   0.711   6.435   8.657 -0.3855 -0.3816 -1.2721
  187SLPC  H16Y21623   0.874   6.405   8.727  1.1143  0.6122 -1.9115
  187SLPC  C31721624   0.727   6.249   8.769  0.0159  0.0857  0.2248
  187SLPC  H17X21625   0.790   6.158   8.756 -0.9317 -0.7757  1.3341
  187SLPC  H17Y21626   0.628   6.214   8.733 -0.0426 -2.8784  2.7801
  187SLPC  C31821627   0.721   6.284   8.911 -0.2932  0.2801 -0.4908
  187SLPC  H18X21628   0.818   6.319   8.951 -1.3549  0.8028  1.8098
  187SLPC  H18Y21629   0.690   6.200   8.976 -1.9496  0.1207 -1.4180
  187SLPC  H18Z21630   0.651   6.368   8.931  1.9345  1.6737  2.1982
  188SLPC     N21631   0.825   0.624   6.570  0.1221 -0.1280 -0.2506
  188SLPC   C1321632   0.751   0.623   6.436  0.0170 -0.7512  0.1212
  188SLPC  H13A21633   0.644   0.618   6.447  0.0321 -0.3706  0.4366
  188SLPC  H13B21634   0.759   0.718   6.386 -0.9235 -0.9041 -0.3419
  188SLPC  H13C21635   0.791   0.550   6.366  0.8955  1.2145 -1.5388
  188SLPC   C1421636   0.798   0.500   6.649 -0.1316 -0.0632  0.6825
  188SLPC  H14A21637   0.693   0.481   6.666 -0.0772 -0.8513  0.1761
  188SLPC  H14B21638   0.849   0.415   6.607  1.1606  0.4419  1.1769
  188SLPC  H14C21639   0.839   0.511   6.748 -0.6682  1.2485  0.7867
  188SLPC   C1521640   0.779   0.745   6.651 -0.6749  0.3538 -0.3452
  188SLPC  H15A21641   0.671   0.745   6.650 -0.6865  1.1192 -1.9259
  188SLPC  H15B21642   0.820   0.743   6.751  0.3996 -2.3566 -0.7630
  188SLPC  H15C21643   0.809   0.838   6.605 -0.0279  0.4555  0.2641
  188SLPC   C1221644   0.973   0.638   6.549 -0.7268 -0.2622 -0.2670
  188SLPC  H12A21645   1.033   0.648   6.639 -1.0874 -1.8446  0.1856
  188SLPC  H12B21646   0.995   0.717   6.479 -0.6815  0.0713  0.1165
  188SLPC   C1121647   1.054   0.512   6.490 -0.5684 -0.2872 -0.2149
  188SLPC  H11A21648   1.064   0.437   6.571  1.9995 -1.0091 -1.1094
  188SLPC  H11B21649   1.154   0.557   6.473 -0.2980 -0.1249  1.6671
  188SLPC     P21650   0.983   0.300   6.350  0.3610  0.3536  0.2527
  188SLPC   O1321651   0.860   0.277   6.271 -0.1053  0.1670 -0.5399
  188SLPC   O1421652   1.102   0.258   6.284 -0.4853  0.6355 -0.3789
  188SLPC   O1221653   0.996   0.452   6.371  0.0412 -0.1042  0.2617
  188SLPC   O1121654   0.972   0.237   6.488  0.5372 -0.4792  0.1938
  188SLPC    C121655   0.976   0.093   6.502 -0.4123 -0.6185 -0.2089
  188SLPC    HA21656   0.875   0.051   6.487 -0.8271  0.6820 -1.3140
  188SLPC    HB21657   1.051   0.056   6.428 -0.4331 -0.0448 -0.5285
  188SLPC    C221658   1.023   0.043   6.635  0.5193 -0.2882 -0.1271
  188SLPC    HS21659   0.941   0.065   6.707 -1.2298  0.0474 -2.1143
  188SLPC   O2121660   1.142   0.108   6.673 -0.2419 -0.4261  0.0112
  188SLPC   C2121661   1.135   0.229   6.732  0.0956 -0.7340  0.0016
  188SLPC   O2221662   1.041   0.276   6.782 -0.1082  0.1043 -0.2051
  188SLPC   C2221663   1.273   0.304   6.738 -0.1101 -0.0276 -0.1683
  188SLPC   H2R21664   1.348   0.222   6.747  0.6059  0.2984 -2.4782
  188SLPC   H2S21665   1.297   0.354   6.642 -0.9825  2.1966  0.7112
  188SLPC    C321666   1.053  -0.109   6.635  0.4519  0.5741  0.3251
  188SLPC    HX21667   1.125  -0.131   6.553  0.8433 -1.2174  1.1017
  188SLPC    HY21668   0.962  -0.169   6.617 -0.1423  1.7285 -0.6374
  188SLPC   O3121669   1.105  -0.157   6.757 -0.4794 -0.2387 -0.2554
  188SLPC   C3121670   1.238  -0.146   6.784 -0.5249  0.0524  0.3977
  188SLPC   O3221671   1.323  -0.124   6.697 -1.2255  0.2708  0.2687
  188SLPC   C3221672   1.272  -0.155   6.933  0.0009 -0.4819  0.1407
  188SLPC   H2X21673   1.381  -0.136   6.935  0.3786 -2.4147 -0.3510
  188SLPC   H2Y21674   1.265  -0.263   6.960 -1.0359 -0.4437  0.0614
  188SLPC   C2321675   1.258   0.414   6.843  0.5817 -0.3923 -0.0906
  188SLPC   H3R21676   1.221   0.366   6.936  0.2980  0.7311  0.3825
  188SLPC   H3S21677   1.177   0.485   6.816 -0.8444 -2.2028 -0.8755
  188SLPC   C2421678   1.393   0.475   6.880 -0.7519 -0.2442  0.8227
  188SLPC   H4R21679   1.416   0.555   6.806  1.5663 -1.4382  0.1741
  188SLPC   H4S21680   1.473   0.399   6.867 -0.2326  0.0648  2.0659
  188SLPC   C2521681   1.396   0.531   7.031 -0.5469  0.7789  0.0187
  188SLPC   H5R21682   1.301   0.587   7.046 -0.0475  2.1680 -1.5973
  188SLPC   H5S21683   1.470   0.614   7.038  0.0280  0.1699  1.3834
  188SLPC   C2621684   1.419   0.431   7.144 -0.1265 -0.5314  0.2305
  188SLPC   H6R21685   1.517   0.382   7.122 -0.6571 -2.7353  2.4024
  188SLPC   H6S21686   1.340   0.353   7.143  1.0671 -1.8093 -1.6696
  188SLPC   C2721687   1.435   0.513   7.272  0.0570 -0.1152  0.0442
  188SLPC   H7R21688   1.357   0.590   7.284  1.4402  1.0656  2.0663
  188SLPC   H7S21689   1.534   0.563   7.265  0.5488 -1.0565  0.1115
  188SLPC   C2821690   1.449   0.421   7.397  0.0885 -0.0620  0.0594
  188SLPC   H8R21691   1.533   0.352   7.378  0.2883  0.0385  0.5597
  188SLPC   H8S21692   1.357   0.359   7.406 -0.2896  0.5681  0.7207
  188SLPC   C2921693   1.469   0.515   7.521  0.3269 -0.7571  0.3572
  188SLPC   H9R21694   1.471   0.624   7.506  0.8113 -0.5879  1.5182
  188SLPC  C21021695   1.474   0.468   7.646  0.3550  0.2412 -0.7264
  188SLPC  H10R21696   1.478   0.539   7.731  1.2716  1.0224 -1.3982
  188SLPC  C21121697   1.464   0.323   7.682 -0.2399  0.1470 -0.3729
  188SLPC  H11R21698   1.492   0.257   7.598  0.3342  0.8675 -0.7586
  188SLPC  H11S21699   1.354   0.309   7.696 -0.1363 -0.6034 -0.2718
  188SLPC  C21221700   1.558   0.288   7.793  0.0451  0.8531 -0.3598
  188SLPC  H12R21701   1.641   0.224   7.762 -0.4512  0.4358 -0.8443
  188SLPC  C21321702   1.548   0.326   7.922 -0.1929  0.4077 -0.1767
  188SLPC  H13R21703   1.628   0.298   7.992 -1.0532 -0.5010  0.4786
  188SLPC  C21421704   1.444   0.410   7.995 -0.6300 -0.6863  0.7535
  188SLPC  H14R21705   1.378   0.454   7.917 -0.0945 -2.6398 -0.8920
  188SLPC  H14S21706   1.499   0.496   8.037  0.4236 -1.9294  2.0029
  188SLPC  C21521707   1.372   0.333   8.103 -0.0987 -0.2322  0.6142
  188SLPC  H15R21708   1.333   0.241   8.054  1.1454  0.3443 -1.6147
  188SLPC  H15S21709   1.285   0.397   8.126  0.3917  2.4054 -3.7252
  188SLPC  C21621710   1.461   0.289   8.222 -0.0129 -0.6049 -0.1766
  188SLPC  H16R21711   1.508   0.378   8.270  0.2191 -1.7656  1.8254
  188SLPC  H16S21712   1.551   0.237   8.185  0.1036  0.8932 -2.1766
  188SLPC  C21721713   1.381   0.208   8.323 -1.5750  0.1238  0.1568
  188SLPC  H17R21714   1.310   0.139   8.274 -1.3158  0.0611 -0.1359
  188SLPC  H17S21715   1.317   0.275   8.384 -1.0007 -0.0683  0.9924
  188SLPC  C21821716   1.474   0.121   8.410  0.5188  0.7755  0.0123
  188SLPC  H18R21717   1.535   0.063   8.338  0.8926  1.7583 -0.4897
  188SLPC  H18S21718   1.411   0.059   8.477  0.3423  1.9445  0.9669
  188SLPC  H18T21719   1.540   0.194   8.463  0.6216  1.8388 -1.5315
  188SLPC   C3321720   1.201  -0.055   7.031 -0.1960 -0.6879  0.6432
  188SLPC   H3X21721   1.092  -0.076   7.026 -0.1164 -1.0195  0.1942
  188SLPC   H3Y21722   1.236   0.045   6.997  1.2697 -0.8625  1.5398
  188SLPC   C3421723   1.251  -0.067   7.172 -0.0249  0.2055  0.3801
  188SLPC   H4X21724   1.361  -0.071   7.158 -0.0518  0.9644 -0.0771
  188SLPC   H4Y21725   1.226  -0.168   7.213  0.0361  0.3634  0.8151
  188SLPC   C3521726   1.211   0.041   7.262  0.0170 -0.4829 -0.7732
  188SLPC   H5X21727   1.101   0.044   7.278 -0.0948  0.6626 -1.6282
  188SLPC   H5Y21728   1.246   0.140   7.226  0.1723  0.2251  1.1857
  188SLPC   C3621729   1.276   0.039   7.405 -0.5532 -0.3932  0.2065
  188SLPC   H6X21730   1.235   0.125   7.462 -1.3411 -0.6599  0.0529
  188SLPC   H6Y21731   1.384   0.058   7.389 -0.5586 -0.6099 -0.0794
  188SLPC   C3721732   1.276  -0.106   7.465  0.3979 -0.5035  0.3338
  188SLPC   H7X21733   1.343  -0.173   7.407 -0.5824 -2.7212  1.6387
  188SLPC   H7Y21734   1.174  -0.148   7.459 -1.0576  2.9274 -3.0369
  188SLPC   C3821735   1.326  -0.109   7.612  0.3688  0.0214 -0.3905
  188SLPC   H8X21736   1.246  -0.068   7.678  0.1555 -1.0280  0.0130
  188SLPC   H8Y21737   1.417  -0.046   7.621  0.0718  0.3704  0.3138
  188SLPC   C3921738   1.367  -0.249   7.656  0.0623  0.3765  0.2651
  188SLPC   H9X21739   1.444  -0.291   7.588 -1.3533 -0.8688 -0.6488
  188SLPC   H9Y21740   1.281  -0.319   7.648 -0.2517  0.8742 -0.7925
  188SLPC  C31021741   1.435  -0.255   7.794  0.4817 -0.2841 -0.3618
  188SLPC  H10X21742   1.351  -0.208   7.849 -0.0583  2.5362 -3.2620
  188SLPC  H10Y21743   1.519  -0.184   7.801  0.3854 -0.0848 -1.0995
  188SLPC  C31121744   1.473  -0.395   7.849 -0.2204 -0.8273 -0.1192
  188SLPC  H11X21745   1.564  -0.412   7.789  0.1093 -0.5451  0.2929
  188SLPC  H11Y21746   1.399  -0.475   7.825 -0.4100 -0.8162  0.4094
  188SLPC  C31221747   1.482  -0.392   8.002  0.3879 -0.6020  0.7288
  188SLPC  H12X21748   1.385  -0.382   8.054  0.4068 -0.1668  0.6819
  188SLPC  H12Y21749   1.547  -0.305   8.027 -1.8357  2.1653 -2.3344
  188SLPC  C31321750   1.550  -0.522   8.055  0.3001  0.2158  0.2825
  188SLPC  H13X21751   1.638  -0.540   7.991 -0.5405 -1.0295 -0.5683
  188SLPC  H13Y21752   1.484  -0.611   8.053 -0.6446  0.8749  0.9933
  188SLPC  C31421753   1.589  -0.502   8.210 -0.1147 -0.4308  0.0969
  188SLPC  H14X21754   1.495  -0.474   8.262 -0.1228 -0.6055  0.1780
  188SLPC  H14Y21755   1.660  -0.417   8.220 -1.3622  0.5346  1.2585
  188SLPC  C31521756   1.641  -0.636   8.270  0.4926  0.0390  0.6522
  188SLPC  H15X21757   1.731  -0.660   8.209  0.8535  1.3134  0.6673
  188SLPC  H15Y21758   1.570  -0.716   8.239  0.9432  1.0163 -3.4380
  188SLPC  C31621759   1.681  -0.634   8.421  0.5712  0.0739  0.0707
  188SLPC  H16X21760   1.586  -0.608   8.473  1.4153  2.2655  0.6345
  188SLPC  H16Y21761   1.758  -0.554   8.436  0.3384 -0.0029  1.9002
  188SLPC  C31721762   1.754  -0.763   8.468  0.8674 -0.6210  1.0057
  188SLPC  H17X21763   1.843  -0.735   8.528 -0.1715 -2.5118  3.6114
  188SLPC  H17Y21764   1.811  -0.821   8.392  1.3923 -0.6057  1.3886
  188SLPC  C31821765   1.680  -0.852   8.564 -0.1674  0.5005 -0.2742
  188SLPC  H18X21766   1.643  -0.805   8.657  1.7323  1.2831  0.1327
  188SLPC  H18Y21767   1.751  -0.932   8.593  0.3374  1.4473  1.2133
  188SLPC  H18Z21768   1.596  -0.908   8.517  1.3430 -1.5329 -0.6576
  189SLPC     N21769   5.664   3.728   5.876 -0.8417 -0.2777 -0.0257
  189SLPC   C1321770   5.657   3.827   5.985  0.5605 -0.0118  0.7771
  189SLPC  H13A21771   5.749   3.880   6.004  1.5794 -1.5269  0.2435
  189SLPC  H13B21772   5.580   3.895   5.952  0.1017 -1.6704 -1.9083
  189SLPC  H13C21773   5.622   3.785   6.078 -0.4870 -3.6204 -1.0456
  189SLPC   C1421774   5.702   3.795   5.747 -0.1929  0.0631  0.7214
  189SLPC  H14A21775   5.625   3.870   5.739  1.1523  1.5652  1.2384
  189SLPC  H14B21776   5.800   3.840   5.759  0.7388 -1.4393 -0.8759
  189SLPC  H14C21777   5.701   3.722   5.667  3.2355 -0.8328  1.3091
  189SLPC   C1521778   5.535   3.651   5.869  0.2294  0.7323  0.3524
  189SLPC  H15A21779   5.444   3.708   5.856  0.0622  0.3157 -0.3129
  189SLPC  H15B21780   5.540   3.568   5.800 -1.6846 -0.6748  1.7608
  189SLPC  H15C21781   5.512   3.593   5.958 -2.1113 -0.6881 -1.0496
  189SLPC   C1221782   5.774   3.629   5.912 -0.0476 -0.8835 -0.1192
  189SLPC  H12A21783   5.858   3.687   5.948 -0.7123  1.5331 -2.1701
  189SLPC  H12B21784   5.814   3.591   5.820  1.0906  0.2913 -0.1541
  189SLPC   C1121785   5.744   3.511   6.005  0.4928 -0.3219 -0.2239
  189SLPC  H11A21786   5.839   3.454   6.016  2.2758  2.5332  0.2908
  189SLPC  H11B21787   5.661   3.447   5.968  0.8827 -1.0850  0.1940
  189SLPC     P21788   5.817   3.606   6.231  0.4145  0.1777  0.1534
  189SLPC   O1321789   5.927   3.670   6.163  0.1765  0.5113  0.2557
  189SLPC   O1421790   5.758   3.687   6.344  0.1787 -0.0117 -0.5767
  189SLPC   O1221791   5.702   3.563   6.132  0.2873  0.1848 -0.0255
  189SLPC   O1121792   5.875   3.474   6.288 -0.5507  0.7648  0.2085
  189SLPC    C121793   5.798   3.362   6.341 -0.1255  0.3069  0.3838
  189SLPC    HA21794   5.695   3.387   6.309  0.2906  0.0818 -1.1941
  189SLPC    HB21795   5.836   3.266   6.301 -0.2265  0.5779 -0.3907
  189SLPC    C221796   5.825   3.367   6.496  0.4501 -0.3104  0.1947
  189SLPC    HS21797   5.819   3.265   6.539  0.1097  0.9601  3.4084
  189SLPC   O2121798   5.722   3.454   6.556  0.6189  0.1515  0.4120
  189SLPC   C2121799   5.606   3.389   6.599  0.8766  0.4929 -0.0361
  189SLPC   O2221800   5.590   3.269   6.597 -0.0727 -0.4929  0.1998
  189SLPC   C2221801   5.507   3.494   6.655 -0.2690  0.1031  0.1273
  189SLPC   H2R21802   5.500   3.582   6.588 -1.0016 -0.1524 -0.1424
  189SLPC   H2S21803   5.407   3.448   6.643 -0.5737  0.7853  0.0671
  189SLPC    C321804   5.967   3.412   6.535 -0.1578 -0.2404  0.4912
  189SLPC    HX21805   5.977   3.517   6.500 -1.2146 -0.7473 -1.4702
  189SLPC    HY21806   6.027   3.346   6.469  0.2258  0.8970 -0.3285
  189SLPC   O3121807   6.005   3.395   6.677 -0.1055 -0.1890  0.2251
  189SLPC   C3121808   5.973   3.504   6.748 -1.4635  0.4815 -0.0272
  189SLPC   O3221809   5.928   3.605   6.707  0.3622 -0.4686  0.0991
  189SLPC   C3221810   6.000   3.484   6.900  0.4069 -0.5330  1.0345
  189SLPC   H2X21811   5.948   3.567   6.953  0.5330  0.9143 -0.9905
  189SLPC   H2Y21812   6.109   3.500   6.911  0.1880  1.4622  0.7329
  189SLPC   C2321813   5.538   3.526   6.800 -0.8070  0.1659  0.6004
  189SLPC   H3R21814   5.506   3.632   6.815  0.2766  0.6064 -0.0543
  189SLPC   H3S21815   5.644   3.549   6.821 -0.7070  0.1672  0.1163
  189SLPC   C2421816   5.476   3.431   6.904 -0.2744 -0.4836 -0.4948
  189SLPC   H4R21817   5.499   3.325   6.879 -0.3634 -1.0279  1.5367
  189SLPC   H4S21818   5.366   3.431   6.887 -0.2295  0.7539 -0.8813
  189SLPC   C2521819   5.521   3.458   7.049  0.1089 -0.3640 -0.5625
  189SLPC   H5R21820   5.631   3.473   7.059 -0.1581  2.8416 -1.2366
  189SLPC   H5S21821   5.497   3.368   7.110  0.7650 -0.1032  0.0866
  189SLPC   C2621822   5.461   3.580   7.123  0.7264  0.1330 -0.8858
  189SLPC   H6R21823   5.350   3.568   7.128  0.6353  1.2556  1.3354
  189SLPC   H6S21824   5.491   3.668   7.063  1.4985  0.4260 -0.0837
  189SLPC   C2721825   5.509   3.587   7.275  0.2013  0.1149 -0.2215
  189SLPC   H7R21826   5.618   3.610   7.271  0.3990 -0.3148  1.8087
  189SLPC   H7S21827   5.486   3.497   7.336  2.8423  1.3423  2.9149
  189SLPC   C2821828   5.453   3.707   7.351  0.8722  0.5836 -0.0628
  189SLPC   H8R21829   5.461   3.797   7.285  0.9442  0.4978 -0.1711
  189SLPC   H8S21830   5.519   3.718   7.440  2.5146 -0.0838 -1.1427
  189SLPC   C2921831   5.312   3.692   7.400  0.2075 -0.0619 -0.5295
  189SLPC   H9R21832   5.233   3.692   7.324 -0.8452 -0.0937  0.5368
  189SLPC  C21021833   5.277   3.677   7.526 -0.5630 -0.3486 -0.7140
  189SLPC  H10R21834   5.170   3.678   7.550 -0.7651  0.9708 -1.5825
  189SLPC  C21121835   5.363   3.642   7.647  0.1895 -0.7280 -0.3300
  189SLPC  H11R21836   5.312   3.640   7.746  2.4205  2.0598  1.0286
  189SLPC  H11S21837   5.435   3.724   7.669 -1.1725  0.2519  0.6895
  189SLPC  C21221838   5.446   3.519   7.628 -0.3183  0.3426  0.0679
  189SLPC  H12R21839   5.505   3.499   7.537 -0.4770 -0.2797  0.0963
  189SLPC  C21321840   5.451   3.418   7.717 -0.4239 -0.1547 -0.0897
  189SLPC  H13R21841   5.502   3.322   7.700 -1.2797 -0.8339  1.0269
  189SLPC  C21421842   5.384   3.409   7.857 -0.3434  0.4082  0.2184
  189SLPC  H14R21843   5.322   3.318   7.867 -0.3891  0.5877  1.8478
  189SLPC  H14S21844   5.321   3.500   7.866 -0.2984  0.6816 -1.8169
  189SLPC  C21521845   5.476   3.415   7.983 -0.1427 -0.0904 -0.7096
  189SLPC  H15R21846   5.547   3.498   7.967  0.0653 -0.3197 -0.9941
  189SLPC  H15S21847   5.532   3.321   8.003 -2.0064 -1.2907 -0.9156
  189SLPC  C21621848   5.389   3.433   8.111 -0.5834 -0.4275 -0.2233
  189SLPC  H16R21849   5.285   3.394   8.104  0.3458 -3.1890  0.0277
  189SLPC  H16S21850   5.378   3.542   8.126  2.8120  0.7019 -4.0330
  189SLPC  C21721851   5.455   3.377   8.228  0.2068  0.5895  0.2133
  189SLPC  H17R21852   5.562   3.407   8.233  0.1851  0.5695  0.8488
  189SLPC  H17S21853   5.455   3.266   8.221  2.3844  0.3803  2.2180
  189SLPC  C21821854   5.391   3.412   8.364  0.1060  0.3710  0.1685
  189SLPC  H18R21855   5.421   3.338   8.441 -0.2375  1.6378  1.5677
  189SLPC  H18S21856   5.280   3.417   8.364 -0.2861 -4.2899 -1.4060
  189SLPC  H18T21857   5.421   3.512   8.403 -0.7130  0.6712  0.0695
  189SLPC   C3321858   5.951   3.343   6.952 -0.1403 -0.9449  0.3430
  189SLPC   H3X21859   5.958   3.273   6.866 -1.5483  0.8015 -1.2949
  189SLPC   H3Y21860   5.849   3.345   6.996  0.1730  0.1819  1.0647
  189SLPC   C3421861   6.041   3.300   7.073  0.0673  0.2038 -0.0366
  189SLPC   H4X21862   6.146   3.321   7.044  0.4998 -0.3776  1.0614
  189SLPC   H4Y21863   6.013   3.192   7.080 -1.5463  0.6597  0.9115
  189SLPC   C3521864   6.012   3.375   7.199  0.3561 -0.2414 -0.7500
  189SLPC   H5X21865   5.903   3.369   7.215  0.4254  2.1856  1.4717
  189SLPC   H5Y21866   6.048   3.479   7.182 -0.4148  0.0280 -0.7597
  189SLPC   C3621867   6.086   3.316   7.327  0.1733  0.7700  0.2367
  189SLPC   H6X21868   6.171   3.379   7.360  1.6491 -1.3804  0.7928
  189SLPC   H6Y21869   6.142   3.226   7.293 -0.6428  0.6842 -0.9290
  189SLPC   C3721870   6.003   3.267   7.444  0.2756  0.5127 -0.0937
  189SLPC   H7X21871   5.939   3.193   7.393  1.0389 -1.3816  1.5900
  189SLPC   H7Y21872   5.960   3.358   7.491 -0.4619  0.4433 -0.6214
  189SLPC   C3821873   6.083   3.180   7.543  0.5241 -0.0088 -0.4060
  189SLPC   H8X21874   6.161   3.231   7.603 -0.3933 -0.2532  1.0298
  189SLPC   H8Y21875   6.125   3.086   7.501  3.1641  0.3611  1.2022
  189SLPC   C3921876   5.985   3.132   7.653 -0.5034 -0.5069 -0.8793
  189SLPC   H9X21877   5.887   3.096   7.614  0.1714 -0.9727 -2.2113
  189SLPC   H9Y21878   5.968   3.216   7.724 -0.3780 -1.3671  0.1931
  189SLPC  C31021879   6.046   3.014   7.739  0.0477 -0.0374  0.1555
  189SLPC  H10X21880   6.146   3.046   7.775  0.0858 -0.5691  0.5466
  189SLPC  H10Y21881   6.053   2.925   7.672 -0.3470  1.1877 -1.5822
  189SLPC  C31121882   5.945   2.989   7.852  0.0245  0.4431  0.2704
  189SLPC  H11X21883   5.851   2.939   7.819  0.3857  0.4627 -0.8319
  189SLPC  H11Y21884   5.907   3.087   7.889 -1.0649  0.3441 -0.5312
  189SLPC  C31221885   6.004   2.904   7.964 -0.4514  0.8550  0.5231
  189SLPC  H12X21886   6.100   2.952   7.991 -0.4898  0.0884  2.1858
  189SLPC  H12Y21887   6.022   2.804   7.919 -1.0320  1.3010 -0.7581
  189SLPC  C31321888   5.921   2.897   8.092  0.2352 -0.2687  0.0970
  189SLPC  H13X21889   5.818   2.862   8.068 -0.0449  0.6062 -0.0023
  189SLPC  H13Y21890   5.917   3.004   8.120 -2.6156 -0.4588  0.7040
  189SLPC  C31421891   5.978   2.825   8.221 -0.5349  0.4099  0.6601
  189SLPC  H14X21892   6.073   2.876   8.245 -0.1058  1.2128 -2.3032
  189SLPC  H14Y21893   6.003   2.719   8.198 -1.3890  0.3355  0.0046
  189SLPC  C31521894   5.870   2.829   8.333 -0.1640 -0.6303  0.1754
  189SLPC  H15X21895   5.780   2.766   8.313 -0.4353  0.0307 -0.7423
  189SLPC  H15Y21896   5.837   2.934   8.348  0.2793 -0.4864  0.1554
  189SLPC  C31621897   5.931   2.782   8.461  0.5290 -0.6363  0.3716
  189SLPC  H16X21898   6.015   2.852   8.479 -0.8964  1.3792 -0.3743
  189SLPC  H16Y21899   5.970   2.681   8.437  1.3403 -0.2512  0.0143
  189SLPC  C31721900   5.843   2.782   8.578 -0.2483 -0.0973 -0.1772
  189SLPC  H17X21901   5.751   2.729   8.546  0.4539  0.2878 -3.1016
  189SLPC  H17Y21902   5.805   2.884   8.602  2.1087  0.7532  0.1945
  189SLPC  C31821903   5.908   2.719   8.703  0.4820  0.2470  0.0947
  189SLPC  H18X21904   5.950   2.619   8.680 -0.3344 -0.3162  0.9362
  189SLPC  H18Y21905   5.824   2.696   8.772 -0.0016 -1.6634 -1.0735
  189SLPC  H18Z21906   5.984   2.786   8.748 -1.0486  1.7162  0.5944
  190SLPC     N21907   5.727   1.747   6.194  0.2063 -0.9599 -0.3562
  190SLPC   C1321908   5.692   1.618   6.262 -0.4257  0.3979 -0.1625
  190SLPC  H13A21909   5.592   1.621   6.303 -1.8554 -2.7253 -2.9214
  190SLPC  H13B21910   5.697   1.529   6.201  0.7560 -2.0065  3.1241
  190SLPC  H13C21911   5.765   1.600   6.340 -0.3448 -1.4051 -0.6009
  190SLPC   C1421912   5.631   1.773   6.081  0.0885 -0.2524  0.4817
  190SLPC  H14A21913   5.525   1.770   6.101  0.2397  2.3183  2.1423
  190SLPC  H14B21914   5.656   1.867   6.034  1.8697 -1.7363 -1.7394
  190SLPC  H14C21915   5.644   1.703   5.999  0.7936  1.3820 -0.8666
  190SLPC   C1521916   5.862   1.746   6.132 -0.3488 -0.4509 -0.1891
  190SLPC  H15A21917   5.885   1.656   6.076  3.7169  0.6578 -0.6453
  190SLPC  H15B21918   5.880   1.827   6.063 -0.1840  0.8910  1.3749
  190SLPC  H15C21919   5.935   1.744   6.212 -0.6977 -1.0345  0.1228
  190SLPC   C1221920   5.713   1.869   6.288  1.1831  0.6734 -0.1929
  190SLPC  H12A21921   5.611   1.871   6.325  1.5546 -1.9705  1.2157
  190SLPC  H12B21922   5.728   1.966   6.243  0.2585  0.7199 -0.4336
  190SLPC   C1121923   5.806   1.888   6.416 -0.3169 -0.5837 -0.8943
  190SLPC  H11A21924   5.809   1.794   6.474  0.1395  0.3353  0.6325
  190SLPC  H11B21925   5.770   1.967   6.486  1.5115 -0.5125  0.0259
  190SLPC     P21926   5.976   2.068   6.318 -0.2985 -0.1965  0.6346
  190SLPC   O1321927   6.120   2.062   6.290  0.2087  0.0518  0.2201
  190SLPC   O1421928   5.876   2.109   6.215 -0.9266  0.4971  0.5898
  190SLPC   O1221929   5.937   1.923   6.380 -0.1280 -0.7560  0.1745
  190SLPC   O1121930   5.952   2.164   6.433  0.5881  0.4768 -0.2447
  190SLPC    C121931   6.014   2.133   6.558 -0.6880 -0.6854  0.0829
  190SLPC    HA21932   5.946   2.059   6.605  1.4023 -2.3564  0.6434
  190SLPC    HB21933   6.113   2.083   6.550 -0.2190 -0.2952  2.5839
  190SLPC    C221934   6.036   2.260   6.647 -0.9150 -0.6110  1.1371
  190SLPC    HS21935   5.935   2.306   6.649  0.3205  2.2791  1.1082
  190SLPC   O2121936   6.140   2.346   6.586  0.3564 -0.3453  0.4035
  190SLPC   C2121937   6.116   2.473   6.617  0.4512 -0.1765  0.8870
  190SLPC   O2221938   6.030   2.517   6.688 -0.3679 -0.1689 -0.3577
  190SLPC   C2221939   6.233   2.563   6.561  0.3246  0.1774 -0.2840
  190SLPC   H2R21940   6.237   2.535   6.453 -1.3548 -3.2263  0.3726
  190SLPC   H2S21941   6.209   2.669   6.580 -0.5566 -0.0135 -0.2876
  190SLPC    C321942   6.058   2.215   6.792 -0.3617  0.5748 -0.1324
  190SLPC    HX21943   6.069   2.303   6.859 -0.5355 -0.5155  1.3964
  190SLPC    HY21944   6.155   2.159   6.789 -1.4779 -1.4359 -0.4813
  190SLPC   O3121945   5.955   2.126   6.842 -0.2235 -0.1374  0.2654
  190SLPC   C3121946   5.849   2.191   6.898  0.4054  0.4933  0.0715
  190SLPC   O3221947   5.843   2.311   6.914  0.0530  0.0043  0.8137
  190SLPC   C3221948   5.747   2.086   6.951 -0.1902  0.0998 -0.1223
  190SLPC   H2X21949   5.741   2.001   6.879 -1.2717  1.5726 -1.8525
  190SLPC   H2Y21950   5.645   2.132   6.946 -0.3843 -0.4233 -1.2461
  190SLPC   C2321951   6.362   2.537   6.639  0.7151 -0.1679 -0.9280
  190SLPC   H3R21952   6.441   2.571   6.568 -0.0244  1.3243 -1.0798
  190SLPC   H3S21953   6.394   2.431   6.652 -2.4964 -0.9418  2.0928
  190SLPC   C2421954   6.362   2.610   6.774 -0.1844 -0.1574 -0.6558
  190SLPC   H4R21955   6.306   2.546   6.845  1.5424 -2.0737 -0.9392
  190SLPC   H4S21956   6.315   2.711   6.764  0.2797 -0.0101 -1.4539
  190SLPC   C2521957   6.504   2.618   6.836 -0.8637  0.1037  0.5111
  190SLPC   H5R21958   6.572   2.661   6.759 -0.3941  0.7055  1.2407
  190SLPC   H5S21959   6.548   2.516   6.839 -3.5557 -1.5263 -4.1827
  190SLPC   C2621960   6.522   2.702   6.959 -0.2221 -0.1896 -0.1956
  190SLPC   H6R21961   6.445   2.664   7.030  0.3535  2.8298  2.2341
  190SLPC   H6S21962   6.490   2.808   6.950 -1.0463 -0.4550 -0.5133
  190SLPC   C2721963   6.656   2.703   7.026 -0.3052  0.3801 -0.4246
  190SLPC   H7R21964   6.723   2.749   6.949 -0.9955 -0.9056 -1.8554
  190SLPC   H7S21965   6.693   2.601   7.050 -0.9448 -0.3362 -2.2970
  190SLPC   C2821966   6.662   2.787   7.162  0.1202  0.5342 -0.1348
  190SLPC   H8R21967   6.597   2.726   7.228 -1.5356  0.3126 -1.8822
  190SLPC   H8S21968   6.605   2.882   7.149 -2.1267 -0.4413  1.7970
  190SLPC   C2921969   6.804   2.821   7.210 -0.1068  0.4893 -0.4895
  190SLPC   H9R21970   6.865   2.880   7.140  0.4934 -1.5574 -1.7612
  190SLPC  C21021971   6.855   2.780   7.328 -0.1502  0.0692 -0.5057
  190SLPC  H10R21972   6.952   2.825   7.355 -0.8022  2.8769 -2.4436
  190SLPC  C21121973   6.777   2.694   7.431  0.6614 -0.0238 -0.6011
  190SLPC  H11R21974   6.701   2.630   7.381  1.1899 -0.2029 -1.1907
  190SLPC  H11S21975   6.723   2.765   7.497  1.0567 -0.2440 -0.0344
  190SLPC  C21221976   6.885   2.617   7.511 -0.5515  0.2602 -1.3119
  190SLPC  H12R21977   6.956   2.561   7.449  1.0533 -0.7088  1.2547
  190SLPC  C21321978   6.909   2.612   7.645 -0.0701 -0.1248  0.8322
  190SLPC  H13R21979   6.997   2.549   7.664  0.3286 -0.6744 -2.2771
  190SLPC  C21421980   6.829   2.670   7.755 -0.5302 -0.1183  0.2550
  190SLPC  H14R21981   6.751   2.742   7.724  0.9284  1.0674 -0.7880
  190SLPC  H14S21982   6.902   2.710   7.829  0.6690 -3.1897  0.9272
  190SLPC  C21521983   6.740   2.560   7.832  0.4801 -0.6430  0.5151
  190SLPC  H15R21984   6.683   2.492   7.765 -1.7991  0.6357  1.0656
  190SLPC  H15S21985   6.654   2.610   7.881  1.2504  0.1770  1.0513
  190SLPC  C21621986   6.821   2.474   7.935  0.2628 -0.0251  0.8394
  190SLPC  H16R21987   6.878   2.408   7.867  0.0393  1.1265 -0.5368
  190SLPC  H16S21988   6.747   2.416   7.994 -1.7517  0.8292 -0.7042
  190SLPC  C21721989   6.909   2.547   8.032 -0.2775  0.3999 -0.2326
  190SLPC  H17R21990   6.994   2.602   7.987  0.5972  0.3487  1.2960
  190SLPC  H17S21991   6.956   2.477   8.104 -0.2114  0.4797 -0.1989
  190SLPC  C21821992   6.835   2.648   8.123  0.1530  0.3105  0.6204
  190SLPC  H18R21993   6.905   2.719   8.173 -0.6096  3.1868 -2.0781
  190SLPC  H18S21994   6.757   2.609   8.192  0.4621  0.9679  1.3580
  190SLPC  H18T21995   6.790   2.722   8.054  0.5926 -0.4251 -0.4803
  190SLPC   C3321996   5.764   2.041   7.094  0.2005 -0.1396  0.0815
  190SLPC   H3X21997   5.854   1.976   7.102 -1.1123 -1.8566  1.6385
  190SLPC   H3Y21998   5.681   1.971   7.118 -1.0764  1.4543  0.5159
  190SLPC   C3421999   5.764   2.158   7.197 -0.1451  0.2238 -0.1815
  190SLPC   H4X22000   5.665   2.206   7.185 -0.6308 -1.0097 -1.2044
  190SLPC   H4Y22001   5.846   2.230   7.174  2.4113 -2.9375 -1.6805
  190SLPC   C3522002   5.781   2.122   7.346 -0.3250 -0.9227  0.7960
  190SLPC   H5X22003   5.714   2.039   7.377  0.6014 -1.6060  0.9939
  190SLPC   H5Y22004   5.758   2.216   7.402 -0.5537 -0.2939 -0.3221
  190SLPC   C3622005   5.920   2.076   7.378 -0.3288  0.2684  0.1907
  190SLPC   H6X22006   5.983   2.164   7.351  0.5512 -0.9005 -1.7127
  190SLPC   H6Y22007   5.947   1.988   7.317 -1.1688  1.2894 -1.7262
  190SLPC   C3722008   5.941   2.030   7.521 -0.0318  0.3129  0.2931
  190SLPC   H7X22009   5.911   2.116   7.585  1.4873  0.9417  0.2021
  190SLPC   H7Y22010   6.049   2.016   7.538  0.0575 -0.0729 -0.5317
  190SLPC   C3822011   5.863   1.899   7.548 -0.2983 -0.2223  0.6095
  190SLPC   H8X22012   5.886   1.825   7.468  0.6620  0.2771  0.4051
  190SLPC   H8Y22013   5.754   1.918   7.559  0.0493  2.3309  0.3000
  190SLPC   C3922014   5.910   1.837   7.683  0.6700  0.6406  0.4335
  190SLPC   H9X22015   5.868   1.908   7.758  2.3001 -2.2251  4.4604
  190SLPC   H9Y22016   6.020   1.824   7.688  0.6338 -0.1548 -0.5531
  190SLPC  C31022017   5.858   1.692   7.699  0.2344 -0.2355 -0.9167
  190SLPC  H10X22018   5.891   1.629   7.613 -1.3619 -3.7900  0.8405
  190SLPC  H10Y22019   5.748   1.679   7.697 -0.1364  2.1903  0.5218
  190SLPC  C31122020   5.904   1.615   7.823 -0.0192 -0.1043  0.3724
  190SLPC  H11X22021   6.011   1.638   7.840  0.4719 -1.0056 -1.3254
  190SLPC  H11Y22022   5.907   1.504   7.810  0.1908 -0.0472 -0.0580
  190SLPC  C31222023   5.816   1.650   7.947  0.0248 -0.2163 -0.7990
  190SLPC  H12X22024   5.713   1.618   7.921 -1.7236  2.7162  1.7678
  190SLPC  H12Y22025   5.817   1.760   7.966  1.9266 -0.4029  0.5007
  190SLPC  C31322026   5.860   1.577   8.074 -0.2224  0.2440  0.1229
  190SLPC  H13X22027   5.966   1.604   8.093 -0.4531 -0.2297  2.3477
  190SLPC  H13Y22028   5.852   1.471   8.041  0.5476 -0.2246  1.3451
  190SLPC  C31422029   5.781   1.600   8.208 -0.7740  0.6767 -0.4151
  190SLPC  H14X22030   5.673   1.589   8.180 -0.8996  0.9282 -0.0300
  190SLPC  H14Y22031   5.800   1.704   8.239 -1.0225  0.7311 -0.4417
  190SLPC  C31522032   5.803   1.501   8.329  0.7247 -0.4773  0.4999
  190SLPC  H15X22033   5.740   1.542   8.411 -0.1999 -0.5797 -0.1478
  190SLPC  H15Y22034   5.913   1.497   8.347  0.7792 -1.4565  0.0245
  190SLPC  C31622035   5.750   1.360   8.289  0.4012 -0.2708  0.1546
  190SLPC  H16X22036   5.802   1.322   8.199  1.0867 -1.5538  1.0512
  190SLPC  H16Y22037   5.640   1.356   8.275  0.1026 -0.3208  2.2021
  190SLPC  C31722038   5.774   1.256   8.402  0.0343  0.2057  0.1130
  190SLPC  H17X22039   5.759   1.156   8.357 -0.0415  0.7517 -1.1240
  190SLPC  H17Y22040   5.700   1.261   8.485  1.4083  0.4516  1.3511
  190SLPC  C31822041   5.916   1.262   8.463  0.6483  0.0289  0.3926
  190SLPC  H18X22042   5.928   1.165   8.515  1.2795 -0.0738  0.0589
  190SLPC  H18Y22043   5.920   1.343   8.539  0.6665  0.4659 -0.0699
  190SLPC  H18Z22044   5.999   1.271   8.390  1.9563  1.5356  1.9810
  191SLPC     N22045   3.759   5.960   5.854  0.1205  0.7949  0.3739
  191SLPC   C1322046   3.664   5.849   5.809  0.4996  0.1173 -0.6783
  191SLPC  H13A22047   3.573   5.841   5.866  0.2715  1.4840 -0.7991
  191SLPC  H13B22048   3.631   5.876   5.710 -1.1599 -0.9885 -0.4695
  191SLPC  H13C22049   3.714   5.754   5.815  4.2882  1.8888 -1.1986
  191SLPC   C1422050   3.688   6.085   5.830 -0.1532 -0.1383  0.0150
  191SLPC  H14A22051   3.618   6.079   5.748 -0.7539 -2.8842  0.6199
  191SLPC  H14B22052   3.633   6.113   5.919 -0.3881  0.0250 -0.1807
  191SLPC  H14C22053   3.757   6.165   5.810  2.5526 -3.0128 -3.4466
  191SLPC   C1522054   3.874   5.938   5.760  0.2319 -0.3502  0.1633
  191SLPC  H15A22055   3.952   5.870   5.791  0.9909 -0.0162 -0.9877
  191SLPC  H15B22056   3.831   5.926   5.662  0.4482 -1.4562  0.1957
  191SLPC  H15C22057   3.932   6.029   5.759 -1.9935  1.1823  1.1090
  191SLPC   C1222058   3.801   5.960   6.001 -0.1277  0.2016  0.0404
  191SLPC  H12A22059   3.714   5.969   6.065  0.9255  1.9010  1.3393
  191SLPC  H12B22060   3.868   6.044   6.014  2.0790 -1.3343 -0.7737
  191SLPC   C1122061   3.857   5.832   6.065 -0.5401 -0.3738 -0.3255
  191SLPC  H11A22062   3.789   5.744   6.052 -0.8860 -0.6230  2.6194
  191SLPC  H11B22063   3.858   5.839   6.175 -1.0636 -1.6520 -0.2191
  191SLPC     P22064   4.061   5.673   6.013 -0.5536 -0.2233  0.1023
  191SLPC   O1322065   3.984   5.583   5.925 -0.3230 -0.2532 -0.2896
  191SLPC   O1422066   4.205   5.686   5.980 -0.2688  0.1341 -0.0637
  191SLPC   O1222067   3.990   5.817   6.009  0.0816 -0.2361  0.4419
  191SLPC   O1122068   4.056   5.638   6.169 -0.5691 -1.0038  0.3525
  191SLPC    C122069   3.967   5.541   6.216  0.2538  0.5724  0.2529
  191SLPC    HA22070   3.861   5.562   6.190  0.2492 -1.6616 -1.9487
  191SLPC    HB22071   3.995   5.446   6.166  0.0234 -0.0641  1.3016
  191SLPC    C222072   3.988   5.514   6.367  0.5143 -0.3676 -0.0634
  191SLPC    HS22073   3.971   5.610   6.421 -0.0714  0.3136 -1.4035
  191SLPC   O2122074   4.126   5.466   6.388 -0.5194 -0.7744 -0.2596
  191SLPC   C2122075   4.183   5.508   6.505  0.0616 -0.7561 -0.1319
  191SLPC   O2222076   4.128   5.592   6.582  0.0245  0.0838  0.2356
  191SLPC   C2222077   4.313   5.438   6.540 -0.5614 -0.3320  0.1732
  191SLPC   H2R22078   4.277   5.335   6.558 -1.0146  0.0340  1.4615
  191SLPC   H2S22079   4.378   5.442   6.450 -1.6955  1.7641 -0.6201
  191SLPC    C322080   3.892   5.414   6.428 -0.3647  0.0472 -1.2730
  191SLPC    HX22081   3.909   5.308   6.398  0.4062 -0.6287  1.2977
  191SLPC    HY22082   3.790   5.439   6.393 -0.4479  1.8808  0.1292
  191SLPC   O3122083   3.890   5.414   6.574  0.7495 -0.0096  0.2800
  191SLPC   C3122084   3.931   5.312   6.645  0.5160  0.1174  0.1800
  191SLPC   O3222085   3.968   5.207   6.594  0.2360 -0.2808  0.1950
  191SLPC   C3222086   3.924   5.349   6.795 -0.5626  0.8053  0.0798
  191SLPC   H2X22087   3.837   5.292   6.835  0.2150 -0.0191  0.6344
  191SLPC   H2Y22088   3.912   5.459   6.804 -1.4500  0.7109  0.1687
  191SLPC   C2322089   4.375   5.499   6.664  1.0576 -0.6440 -0.3585
  191SLPC   H3R22090   4.302   5.499   6.748  1.3402  0.9309 -0.0784
  191SLPC   H3S22091   4.401   5.605   6.642  1.9723 -1.0162 -1.1312
  191SLPC   C2422092   4.507   5.424   6.700  0.3007 -0.0700 -0.7126
  191SLPC   H4R22093   4.575   5.428   6.612  0.7124 -1.8848 -0.5265
  191SLPC   H4S22094   4.477   5.323   6.737 -0.5954 -0.5717 -2.6954
  191SLPC   C2522095   4.581   5.485   6.820  0.0303 -0.2070 -0.1580
  191SLPC   H5R22096   4.511   5.482   6.906 -0.1821  1.3880 -0.2447
  191SLPC   H5S22097   4.607   5.591   6.795  0.7220 -0.3027  0.1138
  191SLPC   C2622098   4.703   5.412   6.851 -0.0026 -0.4313 -0.2918
  191SLPC   H6R22099   4.772   5.439   6.769 -0.0555 -0.4154 -0.3314
  191SLPC   H6S22100   4.694   5.301   6.852  2.9907 -0.7544  1.0594
  191SLPC   C2722101   4.759   5.450   6.990 -0.1028 -0.7943 -0.0323
  191SLPC   H7R22102   4.729   5.553   7.018  2.2708 -0.0048 -0.1596
  191SLPC   H7S22103   4.870   5.459   6.986 -0.2319  1.9382  0.4924
  191SLPC   C2822104   4.703   5.369   7.116  0.0916 -0.0602  0.1304
  191SLPC   H8R22105   4.596   5.386   7.142 -0.2074 -0.5614 -0.7409
  191SLPC   H8S22106   4.759   5.400   7.207  1.2189 -2.7242  0.4273
  191SLPC   C2922107   4.723   5.219   7.099  0.4029 -0.3018  0.3905
  191SLPC   H9R22108   4.730   5.177   6.998  1.6570  1.4219 -0.2926
  191SLPC  C21022109   4.753   5.135   7.205 -0.4312 -0.1680 -0.0357
  191SLPC  H10R22110   4.762   5.027   7.184 -2.1614 -0.4594  0.5803
  191SLPC  C21122111   4.768   5.187   7.350  0.1219 -0.1543 -0.4794
  191SLPC  H11R22112   4.683   5.249   7.384 -0.8777 -0.7767 -1.7347
  191SLPC  H11S22113   4.856   5.255   7.346 -1.0995  1.6969  1.8370
  191SLPC  C21222114   4.777   5.078   7.460  0.1244 -0.4321 -0.1322
  191SLPC  H12R22115   4.701   4.999   7.456  0.0649 -0.3496 -0.7257
  191SLPC  C21322116   4.871   5.089   7.560 -0.6647  0.0167 -0.1945
  191SLPC  H13R22117   4.874   5.006   7.633 -1.3790 -0.6023 -0.8491
  191SLPC  C21422118   4.966   5.198   7.587 -0.2334 -0.2663 -0.0548
  191SLPC  H14R22119   4.907   5.266   7.652 -1.7971 -1.5879 -0.0273
  191SLPC  H14S22120   4.997   5.250   7.494  2.6075 -0.6884  0.5686
  191SLPC  C21522121   5.097   5.156   7.657 -0.2226 -0.6457  0.5531
  191SLPC  H15R22122   5.175   5.235   7.666  0.9439 -1.8382  1.1945
  191SLPC  H15S22123   5.148   5.074   7.602  2.4222  0.7001  0.7918
  191SLPC  C21622124   5.077   5.085   7.789 -0.2486 -0.8929 -0.1141
  191SLPC  H16R22125   5.001   5.005   7.794  0.3670 -1.4361  0.9113
  191SLPC  H16S22126   5.037   5.160   7.860  2.1260  1.1032 -0.7235
  191SLPC  C21722127   5.211   5.031   7.838  0.7632 -0.3784  0.5206
  191SLPC  H17R22128   5.290   5.108   7.850  1.7532 -1.4061  0.8408
  191SLPC  H17S22129   5.253   4.964   7.759 -0.3245 -0.7400  0.2253
  191SLPC  C21822130   5.194   4.947   7.973 -0.2486 -0.0505 -0.7374
  191SLPC  H18R22131   5.155   5.008   8.057 -3.9406 -1.5844 -1.1539
  191SLPC  H18S22132   5.296   4.912   7.998  0.1950  1.2334 -0.6829
  191SLPC  H18T22133   5.130   4.858   7.954  0.1741 -0.6061  0.3680
  191SLPC   C3322134   4.058   5.307   6.869  0.1149 -0.4772  0.6237
  191SLPC   H3X22135   4.145   5.343   6.810 -0.3362  0.5659  0.5854
  191SLPC   H3Y22136   4.072   5.197   6.870  0.9192 -0.4066 -0.8603
  191SLPC   C3422137   4.065   5.359   7.009 -0.2830  1.0445  0.9059
  191SLPC   H4X22138   3.975   5.331   7.068 -0.1130 -1.7314 -0.0099
  191SLPC   H4Y22139   4.061   5.470   7.007  2.6874  1.2693  2.5241
  191SLPC   C3522140   4.188   5.321   7.092  0.2379  0.6667 -0.1682
  191SLPC   H5X22141   4.204   5.396   7.173  0.5824  1.0649 -0.5971
  191SLPC   H5Y22142   4.280   5.323   7.029  1.5353 -0.1807  1.6240
  191SLPC   C3622143   4.169   5.181   7.161 -0.2534  0.0687 -0.6017
  191SLPC   H6X22144   4.152   5.114   7.074  0.7377 -0.5694 -0.3253
  191SLPC   H6Y22145   4.073   5.191   7.216  0.8812  2.2520  1.1722
  191SLPC   C3722146   4.282   5.130   7.248  0.2137  0.1581 -0.8527
  191SLPC   H7X22147   4.379   5.146   7.197  2.3801 -0.8862  2.5612
  191SLPC   H7Y22148   4.269   5.025   7.280  1.7409  0.6484  1.7430
  191SLPC   C3822149   4.276   5.205   7.390  0.5169  0.0213 -0.3245
  191SLPC   H8X22150   4.185   5.176   7.446 -0.4365  1.4831 -1.0339
  191SLPC   H8Y22151   4.284   5.316   7.390  1.5803 -0.0445  0.2536
  191SLPC   C3922152   4.393   5.153   7.482 -0.2509 -0.3439  0.8277
  191SLPC   H9X22153   4.480   5.218   7.456  1.5584 -3.2046 -0.7744
  191SLPC   H9Y22154   4.435   5.053   7.458  1.1160 -0.4074  3.1457
  191SLPC  C31022155   4.367   5.155   7.631 -0.2598 -1.4883  0.0245
  191SLPC  H10X22156   4.368   5.263   7.655  0.1056 -1.0364 -1.8233
  191SLPC  H10Y22157   4.466   5.134   7.676  0.3398  1.5437  0.3170
  191SLPC  C31122158   4.254   5.076   7.685 -0.5386  0.3211  1.1619
  191SLPC  H11X22159   4.240   4.979   7.633 -0.5775  1.0876 -0.3224
  191SLPC  H11Y22160   4.158   5.132   7.677 -1.3210 -1.2322 -1.5127
  191SLPC  C31222161   4.268   5.055   7.840  0.0600 -0.0031  0.0681
  191SLPC  H12X22162   4.284   5.155   7.884 -0.7287 -0.5177  1.5776
  191SLPC  H12Y22163   4.360   4.996   7.858 -0.6820 -1.7386 -1.4720
  191SLPC  C31322164   4.144   4.992   7.903 -0.0428 -0.4491  0.1742
  191SLPC  H13X22165   4.143   4.884   7.877 -1.7206 -0.0418 -1.6673
  191SLPC  H13Y22166   4.061   5.051   7.859  1.2227  3.1710  2.2296
  191SLPC  C31422167   4.140   5.007   8.063  0.3914 -0.5918 -0.0869
  191SLPC  H14X22168   4.030   5.004   8.077  0.2984 -0.3734 -0.7326
  191SLPC  H14Y22169   4.181   5.103   8.101 -1.0626 -0.6919  1.8808
  191SLPC  C31522170   4.215   4.905   8.138 -0.3376  0.6576 -0.2212
  191SLPC  H15X22171   4.295   4.954   8.197 -1.9290  1.6752  1.1705
  191SLPC  H15Y22172   4.248   4.821   8.073 -1.1733  0.5139 -0.4714
  191SLPC  C31622173   4.138   4.829   8.254 -0.0167 -0.4075 -0.1516
  191SLPC  H16X22174   4.098   4.902   8.328 -0.0432  0.6588 -1.1965
  191SLPC  H16Y22175   4.215   4.764   8.301  0.1779  0.1037  0.2480
  191SLPC  C31722176   4.025   4.736   8.203  0.4618  0.3505  0.4977
  191SLPC  H17X22177   4.062   4.659   8.131 -0.0817  1.0706 -0.5845
  191SLPC  H17Y22178   3.954   4.801   8.147  1.7416  0.4932 -1.0208
  191SLPC  C31822179   3.955   4.658   8.312  0.2785 -0.1790  0.3065
  191SLPC  H18X22180   3.917   4.730   8.388  1.9292  3.0165 -1.6793
  191SLPC  H18Y22181   4.028   4.605   8.377  0.2289  1.7795  2.0758
  191SLPC  H18Z22182   3.873   4.591   8.278  0.1093  0.8935 -1.5095
  192SLPC     N22183   0.458   5.415   6.017 -0.0385 -0.0359  0.9515
  192SLPC   C1322184   0.476   5.519   6.117  0.2898  0.9214  0.0198
  192SLPC  H13A22185   0.446   5.492   6.217  1.3136  2.7215  0.8607
  192SLPC  H13B22186   0.581   5.538   6.135  0.7614 -1.8053  0.6047
  192SLPC  H13C22187   0.416   5.606   6.093 -1.4486 -0.3619 -0.4797
  192SLPC   C1422188   0.491   5.480   5.881 -0.2438  0.8241 -0.1340
  192SLPC  H14A22189   0.434   5.571   5.870 -1.0872  0.2227 -0.8849
  192SLPC  H14B22190   0.596   5.506   5.883  0.3144 -1.1206 -1.3373
  192SLPC  H14C22191   0.464   5.408   5.806 -1.0344  2.3252 -1.3585
  192SLPC   C1522192   0.316   5.368   6.021 -0.1635  0.4391  0.0488
  192SLPC  H15A22193   0.293   5.325   6.117  2.1714  2.4232  1.6077
  192SLPC  H15B22194   0.249   5.445   5.987 -0.5706  0.3595  0.6607
  192SLPC  H15C22195   0.315   5.291   5.945  0.2350  1.0096 -0.5467
  192SLPC   C1222196   0.542   5.296   6.049 -0.1973  0.2066  0.9957
  192SLPC  H12A22197   0.535   5.212   5.982 -1.4501  1.6628 -0.7916
  192SLPC  H12B22198   0.485   5.255   6.132  0.9259  0.2256  1.8069
  192SLPC   C1122199   0.686   5.313   6.105 -0.6956 -0.0272  0.6616
  192SLPC  H11A22200   0.741   5.395   6.053  0.4930 -1.7309 -0.8835
  192SLPC  H11B22201   0.746   5.221   6.092 -0.6152  0.2206 -1.0149
  192SLPC     P22202   0.694   5.266   6.357 -0.3282 -0.0519 -0.3739
  192SLPC   O1322203   0.698   5.357   6.476 -0.2547 -1.0755 -0.2496
  192SLPC   O1422204   0.581   5.172   6.336 -0.8069 -0.2463  0.8091
  192SLPC   O1222205   0.685   5.363   6.237 -0.1484  0.5156 -0.2900
  192SLPC   O1122206   0.839   5.204   6.331  0.1762  0.3656  0.4135
  192SLPC    C122207   0.950   5.288   6.330  0.4155  0.2469  0.5846
  192SLPC    HA22208   1.011   5.276   6.238  0.8039  0.2889  0.8360
  192SLPC    HB22209   0.915   5.393   6.335  0.3541  0.2101  0.9945
  192SLPC    C222210   1.056   5.257   6.449  0.3587 -0.0430  0.2262
  192SLPC    HS22211   1.144   5.323   6.438  0.3963  0.0788  1.1260
  192SLPC   O2122212   1.088   5.119   6.443 -0.0350  0.5536  0.5086
  192SLPC   C2122213   1.195   5.080   6.516  0.9027  0.2356 -0.3277
  192SLPC   O2222214   1.284   5.155   6.554 -0.5640 -0.3380  0.4572
  192SLPC   C2222215   1.206   4.927   6.524 -0.2652  0.5974  0.0930
  192SLPC   H2R22216   1.105   4.890   6.553  1.0638 -0.8949  3.2421
  192SLPC   H2S22217   1.221   4.905   6.416 -1.4829  3.7040 -0.8294
  192SLPC    C322218   1.000   5.297   6.588 -0.0750 -0.1339 -0.4741
  192SLPC    HX22219   0.897   5.255   6.594 -0.1509 -0.1806 -1.7830
  192SLPC    HY22220   0.980   5.406   6.580 -3.3033 -0.5794  0.1448
  192SLPC   O3122221   1.082   5.244   6.699 -0.4347 -0.2692  0.0684
  192SLPC   C3122222   1.169   5.337   6.750  0.4297 -0.0536  0.4580
  192SLPC   O3222223   1.184   5.452   6.711  0.2823  0.6475  0.4230
  192SLPC   C3222224   1.250   5.279   6.870 -0.0119  0.3439  0.2164
  192SLPC   H2X22225   1.347   5.332   6.879  0.0360  0.2564  0.2129
  192SLPC   H2Y22226   1.258   5.168   6.860  0.7842  0.2972  1.2300
  192SLPC   C2322227   1.292   4.877   6.643 -0.0420  0.2790  0.0881
  192SLPC   H3R22228   1.269   4.927   6.739  0.0818  0.2059  0.1573
  192SLPC   H3S22229   1.398   4.907   6.626  0.1406  0.5551  1.5980
  192SLPC   C2422230   1.293   4.719   6.662  0.1288  0.2275 -0.3679
  192SLPC   H4R22231   1.326   4.681   6.563 -1.5198 -2.7769  0.1284
  192SLPC   H4S22232   1.195   4.678   6.694  0.8285 -1.3056 -0.1240
  192SLPC   C2522233   1.402   4.669   6.758 -0.7045 -0.1355  0.5053
  192SLPC   H5R22234   1.499   4.720   6.740 -0.8113 -0.1719 -0.2145
  192SLPC   H5S22235   1.428   4.563   6.740  1.5820  0.4017  0.3169
  192SLPC   C2622236   1.379   4.698   6.909  0.0719 -0.3774 -0.0411
  192SLPC   H6R22237   1.285   4.649   6.942  0.6581 -1.8724 -0.4819
  192SLPC   H6S22238   1.368   4.808   6.920 -0.3082 -0.4883  0.7840
  192SLPC   C2722239   1.473   4.629   7.004  0.2027  0.6863  0.3998
  192SLPC   H7R22240   1.576   4.663   6.983 -0.8484  3.9187 -0.0346
  192SLPC   H7S22241   1.469   4.519   6.988  1.4918  0.7344 -0.3409
  192SLPC   C2822242   1.445   4.667   7.152 -0.7434  0.6301  0.8456
  192SLPC   H8R22243   1.519   4.612   7.215  0.9644  1.8960  0.0348
  192SLPC   H8S22244   1.342   4.633   7.174 -0.5437 -0.4602  0.2022
  192SLPC   C2922245   1.484   4.808   7.187 -0.3902 -0.1994  0.0752
  192SLPC   H9R22246   1.571   4.851   7.135  1.2701 -1.0572  1.9957
  192SLPC  C21022247   1.404   4.884   7.258  0.3010 -0.1443 -0.0286
  192SLPC  H10R22248   1.455   4.975   7.293  1.4236 -0.6391 -0.3344
  192SLPC  C21122249   1.265   4.848   7.318 -0.0772  1.3405 -0.1965
  192SLPC  H11R22250   1.208   4.798   7.237  1.0042 -1.8337  0.8320
  192SLPC  H11S22251   1.196   4.935   7.326 -1.5976  0.3919 -2.0356
  192SLPC  C21222252   1.274   4.752   7.433  0.0875  0.2546 -0.3979
  192SLPC  H12R22253   1.364   4.688   7.439 -0.5204 -0.4754  1.8778
  192SLPC  C21322254   1.194   4.766   7.544 -0.2597 -0.2308  0.0511
  192SLPC  H13R22255   1.214   4.704   7.633  0.5670  0.0070  0.0437
  192SLPC  C21422256   1.091   4.869   7.575  0.3587  0.0749 -0.1598
  192SLPC  H14R22257   1.052   4.894   7.474  2.4086  1.5082 -0.6607
  192SLPC  H14S22258   1.138   4.957   7.624 -0.0874  0.2584 -0.0539
  192SLPC  C21522259   0.997   4.821   7.681 -0.3521  0.0958 -0.2120
  192SLPC  H15R22260   0.941   4.729   7.656 -0.7754  0.5980 -1.1599
  192SLPC  H15S22261   0.924   4.902   7.700  0.4502  0.5669  0.9953
  192SLPC  C21622262   1.066   4.814   7.819 -0.0018  0.5730  0.5126
  192SLPC  H16R22263   1.090   4.918   7.851 -1.2928  1.3192 -0.8157
  192SLPC  H16S22264   1.162   4.759   7.819 -0.1828  0.2447  1.2598
  192SLPC  C21722265   0.978   4.737   7.913  0.0723 -0.4471 -0.3592
  192SLPC  H17R22266   0.889   4.803   7.925  0.7726  0.2854  0.9686
  192SLPC  H17S22267   0.947   4.639   7.869 -1.7781 -0.0669 -0.0094
  192SLPC  C21822268   1.044   4.730   8.056 -0.2609  0.2413 -0.1117
  192SLPC  H18R22269   0.977   4.689   8.134 -0.5734  2.0970  0.6482
  192SLPC  H18S22270   1.052   4.830   8.104 -1.3919  0.5907 -0.6335
  192SLPC  H18T22271   1.137   4.669   8.049 -0.6679 -0.3159 -0.8741
  192SLPC   C3322272   1.166   5.297   7.001  0.1995 -0.2570  0.6040
  192SLPC   H3X22273   1.073   5.237   6.989  0.2450  0.0144 -1.4320
  192SLPC   H3Y22274   1.132   5.400   7.027  0.9345 -0.5059  2.7410
  192SLPC   C3422275   1.247   5.249   7.118  0.5235  0.6283  0.3965
  192SLPC   H4X22276   1.338   5.310   7.135  1.4293  0.1735 -2.2778
  192SLPC   H4Y22277   1.278   5.146   7.088  0.2013  1.2604 -2.3812
  192SLPC   C3522278   1.167   5.240   7.248  0.2376  0.1526  0.0005
  192SLPC   H5X22279   1.102   5.152   7.229  1.1702 -0.0970 -2.3141
  192SLPC   H5Y22280   1.108   5.334   7.254 -0.8188 -0.4633 -0.3406
  192SLPC   C3622281   1.257   5.239   7.366  0.7034  0.5161  0.0773
  192SLPC   H6X22282   1.328   5.323   7.378  1.3739  0.1401 -1.1058
  192SLPC   H6Y22283   1.323   5.150   7.357 -0.8747 -1.1308  3.1319
  192SLPC   C3722284   1.183   5.235   7.493  0.1081 -0.9650 -0.0551
  192SLPC   H7X22285   1.105   5.158   7.474 -3.3012  1.8349  1.3027
  192SLPC   H7Y22286   1.124   5.329   7.499 -0.1639 -1.1276 -0.1697
  192SLPC   C3822287   1.275   5.212   7.618  0.5807 -0.3053  0.1819
  192SLPC   H8X22288   1.346   5.297   7.611  0.2424  0.0388  0.8879
  192SLPC   H8Y22289   1.326   5.119   7.584 -1.1390 -0.4153 -2.3872
  192SLPC   C3922290   1.201   5.198   7.754 -0.0430  0.1664  0.2832
  192SLPC   H9X22291   1.126   5.116   7.747 -0.0098 -0.1649  2.7759
  192SLPC   H9Y22292   1.140   5.290   7.766  0.9411  0.9447 -0.5035
  192SLPC  C31022293   1.284   5.160   7.878 -0.3053 -0.0309 -0.0434
  192SLPC  H10X22294   1.348   5.246   7.906 -2.5713  1.1591  1.7881
  192SLPC  H10Y22295   1.334   5.061   7.865 -2.3081 -0.8735 -1.8081
  192SLPC  C31122296   1.199   5.146   8.004  0.0615  0.3529 -0.2503
  192SLPC  H11X22297   1.113   5.079   7.984 -0.3705  1.1692 -1.2518
  192SLPC  H11Y22298   1.159   5.249   8.022  0.2581  0.6453 -1.4243
  192SLPC  C31222299   1.275   5.095   8.130 -0.7518 -0.2170  0.2908
  192SLPC  H12X22300   1.344   5.011   8.104  0.5737  0.7578  0.5634
  192SLPC  H12Y22301   1.196   5.058   8.198 -0.8039 -1.0869 -0.2209
  192SLPC  C31322302   1.349   5.195   8.223  0.5206  0.4314  0.0705
  192SLPC  H13X22303   1.269   5.262   8.258 -0.6294  0.0457 -1.6891
  192SLPC  H13Y22304   1.418   5.259   8.163  0.0252  1.8893  1.0133
  192SLPC  C31422305   1.409   5.117   8.340  0.9087 -0.7556  0.4264
  192SLPC  H14X22306   1.470   5.039   8.289  0.0585 -1.8534  1.0465
  192SLPC  H14Y22307   1.330   5.063   8.396 -0.1409 -2.2817 -2.2877
  192SLPC  C31522308   1.501   5.205   8.432 -0.5410  0.0169 -0.7638
  192SLPC  H15X22309   1.449   5.302   8.446  0.7482  0.6368 -0.0541
  192SLPC  H15Y22310   1.589   5.222   8.366  1.0609 -2.0579  0.6783
  192SLPC  C31622311   1.547   5.141   8.562 -0.3711 -0.3599 -0.1942
  192SLPC  H16X22312   1.615   5.215   8.609 -0.8095  0.1691 -0.3843
  192SLPC  H16Y22313   1.607   5.049   8.544 -0.9323 -0.9550  0.8703
  192SLPC  C31722314   1.436   5.103   8.661  0.1281 -0.0198 -0.6497
  192SLPC  H17X22315   1.386   5.017   8.612 -1.7388  1.7025 -1.9082
  192SLPC  H17Y22316   1.363   5.186   8.668  0.4133  0.3307 -1.6736
  192SLPC  C31822317   1.487   5.058   8.801 -0.6627 -0.7682  0.2217
  192SLPC  H18X22318   1.536   5.149   8.843 -1.5671 -0.4025  0.5132
  192SLPC  H18Y22319   1.556   4.975   8.778  1.0367  0.4518  0.7416
  192SLPC  H18Z22320   1.407   5.024   8.871 -0.6807 -0.6702  0.2491
  193SOD    SOD22321   5.983   6.236  17.301 -0.1692 -0.0394 -0.1623
  194SOD    SOD22322   0.037   3.384   6.533 -0.5308 -0.1754  0.2519
  195SOD    SOD22323   4.401   3.331  11.461 -0.1029  0.6288 -0.1682
  196SOD    SOD22324   0.480   0.388   2.371 -0.0341  0.2908  0.2797
  197SOD    SOD22325   1.446   6.538   6.536  0.0540 -0.0011 -0.1717
  198SOD    SOD22326   3.008   2.942  13.446 -0.1511  0.6958 -0.4193
  199SOD    SOD22327   0.111   4.355  12.005 -0.2549 -0.1841 -0.0292
  200SOD    SOD22328   3.575   1.097   5.422 -0.4194 -0.5323 -0.0031
  201SOD    SOD22329   5.320   3.101   5.258 -0.6420 -0.1395 -0.0888
  202SOD    SOD22330   0.612   1.111  12.499 -0.0904 -0.2218  0.4330
  203SOD    SOD22331   0.166   4.979   1.682 -0.1762 -0.0681  0.0122
  204SOD    SOD22332   2.527   4.817  11.135 -0.3866 -0.0599 -0.1650
  205SOD    SOD22333   3.239   2.895   1.537  0.2782 -0.0093 -0.2608
  206SOD    SOD22334   5.287   2.281   0.857 -0.0325 -0.0177  0.1931
  207SOD    SOD22335   5.057   6.451  11.783  0.4196 -0.0791 -0.1640
  208SOD    SOD22336   3.142   6.048  14.790 -0.0317  0.6129  0.1997
  209SOD    SOD22337   1.130   4.956   1.286  0.2416 -0.1880 -0.3708
  210SOD    SOD22338   6.084   0.464   0.701  0.3735 -0.0409 -0.1928
  211SOD    SOD22339   3.605   1.056  14.629  0.0425 -0.1074 -0.0069
  212SOD    SOD22340   6.791   6.332   6.012 -0.3027 -0.1088  0.1744
  213SOD    SOD22341   0.126   1.327   2.671 -0.8293 -0.5418 -0.1265
  214SOD    SOD22342   2.210   4.674  12.500  0.0319 -0.1093 -0.0097
  215SOD    SOD22343   4.426   5.558  16.795  0.2203  0.5722 -0.1031
  216SOD    SOD22344   3.970   1.289  10.991  0.2104  0.1558 -0.0974
  217SOD    SOD22345   2.659   0.434  16.285  0.2662  0.1948  0.0769
  218SOD    SOD22346   2.901   6.016  16.467 -0.3501  0.2238  0.0043
  219SOD    SOD22347   5.140   1.779   3.857 -0.1485 -0.3348 -0.1014
  220SOD    SOD22348   3.350   5.113  12.905  0.1202 -0.4729  0.3164
  221SOD    SOD22349   0.993   2.659   4.852 -0.1119  0.1357 -0.1131
  222SOD    SOD22350   2.784   1.710   5.839 -0.4020 -0.2562 -0.2694
  223SOD    SOD22351   4.463   6.596  14.656  0.0566  0.3232 -0.0062
  224SOD    SOD22352   4.107   2.726  10.627 -0.1321  0.5156  0.0105
  225SOD    SOD22353   4.277   2.642  13.008  0.5870  0.0385  0.6439
  226SOD    SOD22354   3.951   2.338   6.178  0.1639 -0.3547  0.1131
  227SOD    SOD22355   5.071   6.399   6.107 -0.1895  0.2397  0.4230
  228SOD    SOD22356   3.938   6.679  10.771  0.2959 -0.0375 -0.3251
  229SOD    SOD22357   1.175   0.658   6.065  0.0421 -0.3588  0.0423
  230SOD    SOD22358   2.096   0.256   1.174  0.3874 -0.4561 -0.3095
  231SOD    SOD22359   1.588   3.674   2.194  0.0515 -0.4428  0.0044
  232SOD    SOD22360   5.516   2.292  11.513  0.3479  0.0238 -0.3512
  233SOD    SOD22361   0.423   1.171  10.865  0.1068  0.6069 -0.1324
  234SOD    SOD22362   5.839   1.170  11.892  0.4523  0.3172 -0.3057
  235SOD    SOD22363   4.038   3.456  14.575  0.7576 -0.1277 -0.1013
  236SOD    SOD22364   3.277   6.783   3.201  0.2896 -0.3238 -0.3073
  237SOD    SOD22365   1.505   2.377  10.569  0.0103 -0.2205  0.2788
  238SOD    SOD22366   4.058   1.612  11.833 -0.1276 -0.5534  0.4056
  239SOD    SOD22367   3.599   0.274   1.558 -0.2325 -0.2983 -0.4864
  240SOD    SOD22368   2.251   5.753  14.404  0.5916  0.2344 -0.4169
  241SOD    SOD22369   2.095   1.301   4.043  0.4295 -0.8380  0.4718
  242SOD    SOD22370   5.282   5.149   5.613  0.1468 -0.3913 -0.1850
  243SOD    SOD22371   4.838   5.719  16.239 -0.1399 -0.0978  0.0902
  244SOD    SOD22372   3.689   1.695  13.496 -0.3499  0.0427  0.1237
  245SOD    SOD22373   6.676   3.611  14.996  0.4704  0.1960 -0.9127
  246SOD    SOD22374   0.085   6.616   4.662  0.3309 -0.5135 -0.6879
  247SOD    SOD22375   6.724   3.826   0.709 -0.0821 -0.7197  0.1065
  248SOD    SOD22376   2.912   6.294  17.214 -0.5617  0.3956 -0.4289
  249SOD    SOD22377   2.414   0.943   2.496  0.4977  0.2167  0.2435
  250SOD    SOD22378   6.558   2.184  13.970  0.1866 -0.0734 -0.3383
  251SOD    SOD22379   5.563   6.697   5.607  0.5468  0.3471  0.0877
  252SOD    SOD22380   4.348   5.317  15.149 -0.2380 -0.1043 -0.3200
  253SOD    SOD22381   0.194   3.076   4.819 -0.1824 -0.4154  0.0636
  254SOD    SOD22382   4.758   0.234   0.870 -0.5269 -0.3502  0.5196
  255SOD    SOD22383   1.805   0.454   4.269 -0.0125  0.0680 -0.1658
  256SOD    SOD22384   5.616   4.768   2.271  0.1274 -0.1538  0.3339
  257SOD    SOD22385   1.690   0.537   4.848 -0.0510 -0.2369  0.3016
  258SOD    SOD22386   2.672   0.201  12.896  0.0659 -0.1709  0.4032
  259SOD    SOD22387   0.986   5.662  13.925 -0.2298  0.3426  0.0392
  260SOD    SOD22388   6.796   6.337   1.448 -0.2415  0.1996 -0.1313
  261SOD    SOD22389   6.600   4.924  14.199  0.0876 -0.0010 -0.6697
  262SOD    SOD22390   1.401   3.727  12.606 -0.2335  0.0788  0.3961
  263SOD    SOD22391   4.779   2.338  12.809 -0.5990 -0.4169  0.0189
  264SOD    SOD22392   3.527   2.236   1.763 -0.0784  0.4179 -0.3705
  265SOD    SOD22393   5.693   3.153   5.740  0.2009 -0.2698  0.5111
  266CLA    CLA22394   3.393   3.731  11.356  0.1117 -0.0846 -0.3259
  267CLA    CLA22395   4.212   2.135   4.499 -0.2488  0.0840  0.2007
  268CLA    CLA22396   0.510   0.661  12.813 -0.2824  0.5179  0.0398
  269CLA    CLA22397   3.092   2.386   1.505  0.3054 -0.4807  0.1976
  270CLA    CLA22398   1.898   3.021  16.233 -0.1324  0.3297 -0.2977
  271CLA    CLA22399   4.793   0.736  14.345  0.2279  0.0320  0.3302
  272CLA    CLA22400   2.567   5.509  14.737 -0.2988  0.0660 -0.0928
  273CLA    CLA22401   1.998   6.003  15.233  0.1041  0.2305  0.3309
  274CLA    CLA22402   0.682   4.957   1.058 -0.8971 -0.2384  0.0098
  275CLA    CLA22403   3.152   4.789  11.915  0.0710  0.1593 -0.1081
  276CLA    CLA22404   0.715   5.190  14.534 -0.0140 -0.0112  0.4972
  277CLA    CLA22405   3.406   6.759   3.690 -0.3363 -0.2430 -0.0122
  278CLA    CLA22406   3.374   5.918   2.911 -0.0564 -0.2634  0.0844
  279CLA    CLA22407   5.180   2.024  15.093 -0.2265 -0.1891  0.0033
  280CLA    CLA22408   2.453   3.934   4.113  0.0404 -0.0445 -0.0017
  281CLA    CLA22409   5.429   1.765   5.618 -0.1023  0.3712 -0.1337
  282CLA    CLA22410   0.946   1.953  13.257 -0.0895 -0.0090 -0.1285
  283CLA    CLA22411   5.293   6.028   4.904 -0.3005  0.5183 -0.3601
  284CLA    CLA22412   5.828   5.291  14.549  0.1119 -0.3976 -0.3979
  285CLA    CLA22413   6.699   4.823  13.441 -0.0645 -0.1619 -0.0620
  286CLA    CLA22414   5.142   2.247  13.094  0.3053  0.1378  0.1591
  287CLA    CLA22415   4.736   4.762  15.139  0.1570 -0.1144  0.5224
  288CLA    CLA22416   1.911   1.239  13.622 -0.0617 -0.2699  0.3524
  289CLA    CLA22417   0.947   4.350  14.428  0.6133 -0.3507 -0.4562
  290CLA    CLA22418   6.624   6.345   1.938 -0.3376 -0.2566  0.0157
  291CLA    CLA22419   0.881   5.744   0.005 -0.2539  0.1673  0.0323
  292CLA    CLA22420   5.388   0.557  12.379  0.1406  0.1858  0.1365
  293CLA    CLA22421   0.811   1.500   0.126  0.1807  0.1320  0.1117
  294CLA    CLA22422   4.014   5.542  16.399  0.0362  0.4175  0.0006
  295CLA    CLA22423   6.497   5.032   3.561  0.5097 -0.2902 -0.0031
  296CLA    CLA22424   1.130   5.850   3.938 -0.0171 -0.4948  0.3394
  297CLA    CLA22425   1.840   2.925  14.005 -0.2726  0.1237  0.2419
  298CLA    CLA22426   2.559   1.642  14.801 -0.1284 -0.1299  0.2984
  299CLA    CLA22427   2.239   6.141   2.342 -0.2949  0.3230 -0.1035
  300CLA    CLA22428   4.773   5.244  13.146 -0.1238 -0.4487  0.1160
  301CLA    CLA22429   5.542   4.417   4.386 -0.0315  0.0544 -0.1685
  302CLA    CLA22430   5.657   1.683  11.884  0.4944  0.2391  0.1729
  303CLA    CLA22431   2.281   5.527   5.107 -0.4861 -0.0563  0.0115
  304CLA    CLA22432   4.991   4.586   1.207  0.1778  0.0476 -0.0970
  305CLA    CLA22433   6.616   3.397   1.000 -0.1024  0.2174 -0.1260
  306CLA    CLA22434   2.438   1.197   1.086 -0.1979  0.2645 -0.2665
  307CLA    CLA22435   3.795   5.380   0.567 -0.2777  0.3557  0.1167
  308CLA    CLA22436   0.446   0.020  17.239 -0.5108  0.2757  0.0631
  309CLA    CLA22437   2.806   3.379  12.025 -0.1805  0.2621 -0.1089
  310CLA    CLA22438   4.007   1.668   1.407 -0.0308 -0.0158 -0.1836
  311CLA    CLA22439   2.751   6.368  14.411  0.2721 -0.0978  0.3084
  312CLA    CLA22440   1.104   5.785   3.453  0.4477 -0.1206 -0.1704
  313CLA    CLA22441   5.305   0.216   0.754 -0.2548  0.1179 -0.2202
  314CLA    CLA22442   6.377   6.676  14.882  0.1033  0.0158 -0.4512
  315CLA    CLA22443   5.999   2.957   4.304 -0.0564  0.0762 -0.1447
  316CLA    CLA22444   0.835   0.605   3.528 -0.0352 -0.2570 -0.0135
  317CLA    CLA22445   1.468   4.139   5.536  0.0424 -0.0830  0.1173
  318CLA    CLA22446   3.690   1.221   0.340  0.0336  0.1253  0.0175
  319TIP3   OH222447   2.915   4.062  15.039 -0.6987  0.1352 -0.3318
  319TIP3    H122448   2.930   4.038  15.130 -0.0083 -0.7882 -0.6707
  319TIP3    H222449   2.975   4.007  14.989 -0.7506  0.9395 -1.3212
  320TIP3   OH222450   3.516   3.788   5.445 -0.2710 -0.7391  0.1765
  320TIP3    H122451   3.423   3.801   5.462 -0.2256  0.8770 -0.6272
  320TIP3    H222452   3.532   3.833   5.362  1.4709  0.0779  0.9028
  321TIP3   OH222453   1.197   6.498   1.602 -0.0794  0.0231 -0.0918
  321TIP3    H122454   1.204   6.570   1.665  0.2307 -1.5636  1.8083
  321TIP3    H222455   1.270   6.511   1.542  0.7286  0.6279  0.9792
  322TIP3   OH222456   6.268   3.349  15.245 -0.0351 -0.4728  0.1872
  322TIP3    H122457   6.201   3.403  15.203 -2.4839 -2.6258  1.0344
  322TIP3    H222458   6.305   3.297  15.173 -2.1197 -2.0171  0.1084
  323TIP3   OH222459   6.270   5.860   0.021  0.3022  0.1672 -0.3578
  323TIP3    H122460   6.343   5.836  -0.036  0.6435  0.6399 -0.1286
  323TIP3    H222461   6.307   5.924   0.082  0.1348 -0.8728  0.8786
  324TIP3   OH222462   3.519   4.873   0.979  0.6123 -0.4602 -0.5773
  324TIP3    H122463   3.538   4.899   0.889  0.2145  0.6262 -0.3657
  324TIP3    H222464   3.592   4.908   1.030  0.9915 -1.3304 -0.5010
  325TIP3   OH222465   2.414   2.522  14.064  0.0534 -0.7017 -0.7101
  325TIP3    H122466   2.401   2.428  14.073  2.0240 -0.9021  0.7216
  325TIP3    H222467   2.401   2.557  14.152 -1.2559  0.4945 -1.3297
  326TIP3   OH222468   4.533   2.007   1.210  0.5075 -0.0300 -0.0230
  326TIP3    H122469   4.579   1.976   1.131  0.6420  0.7937 -0.2804
  326TIP3    H222470   4.602   2.026   1.272  0.5252  0.9831 -0.3271
  327TIP3   OH222471   3.146   6.320   1.771  0.4450 -0.0650 -0.8870
  327TIP3    H122472   3.124   6.255   1.838  1.4240 -0.9929 -1.4232
  327TIP3    H222473   3.153   6.403   1.818 -0.0469 -0.4932 -0.0432
  328TIP3   OH222474   3.270   0.370   4.584  0.1941 -0.1583 -0.2757
  328TIP3    H122475   3.280   0.412   4.670 -2.9196  0.4203 -0.0818
  328TIP3    H222476   3.225   0.436   4.531  1.8804 -0.5880 -2.3599
  329TIP3   OH222477   0.249   1.593  15.929 -0.3103  0.1573 -0.0409
  329TIP3    H122478   0.232   1.508  15.886 -0.3761 -0.2409  0.7594
  329TIP3    H222479   0.216   1.658  15.867 -0.1891 -0.4013 -0.7014
  330TIP3   OH222480   2.793   2.952  15.012 -0.9017 -0.2492  0.8982
  330TIP3    H122481   2.882   2.922  14.990 -1.1108 -1.1859  1.2980
  330TIP3    H222482   2.743   2.872  15.027 -2.0020  0.2492  0.0086
  331TIP3   OH222483   3.819   5.915   5.419 -0.1492  0.4668 -0.2791
  331TIP3    H122484   3.823   5.823   5.449  0.5265 -0.0277 -1.8007
  331TIP3    H222485   3.812   5.909   5.324  1.2257  1.9969 -0.5249
  332TIP3   OH222486   3.752   4.274   1.292 -0.2317  1.0199 -0.0428
  332TIP3    H122487   3.714   4.285   1.205 -1.7268  1.2042  0.6005
  332TIP3    H222488   3.739   4.181   1.312  0.0107  1.0005  0.0240
  333TIP3   OH222489   6.003   0.037  15.870  0.2800 -0.8656  0.1670
  333TIP3    H122490   6.070   0.102  15.849 -0.5609 -0.2426 -0.6975
  333TIP3    H222491   5.975   0.059  15.960  0.9639 -0.9039  0.3912
  334TIP3   OH222492   3.762   1.477   1.311  0.0356 -0.2447  0.6327
  334TIP3    H122493   3.845   1.526   1.309 -0.6802  1.0029  0.0463
  334TIP3    H222494   3.765   1.420   1.235  0.4619 -0.3860  0.7555
  335TIP3   OH222495   4.478   2.491   3.969 -0.0662 -0.0129  0.1457
  335TIP3    H122496   4.420   2.529   3.904  0.0695  1.9015  1.0641
  335TIP3    H222497   4.475   2.397   3.952 -0.4229  0.3643 -2.2632
  336TIP3   OH222498   6.204   2.451  12.514 -0.3045 -0.9316 -0.2017
  336TIP3    H122499   6.131   2.465  12.574  0.3783  2.8749 -0.0026
  336TIP3    H222500   6.163   2.428  12.430 -1.7070  0.2968  0.1214
  337TIP3   OH222501   2.056   0.338  13.955  0.7861  0.1175 -0.6875
  337TIP3    H122502   1.990   0.402  13.981  0.9857  0.2023 -0.3772
  337TIP3    H222503   2.073   0.287  14.035  0.9102 -0.0654 -0.8297
  338TIP3   OH222504   4.447   1.482   6.465  0.0189 -0.6415  0.1363
  338TIP3    H122505   4.540   1.483   6.489  0.9773 -1.2204 -2.9873
  338TIP3    H222506   4.423   1.574   6.460  0.8872 -0.4305 -0.4295
  339TIP3   OH222507   1.629   3.076   6.000 -0.2975 -0.1125  0.3001
  339TIP3    H122508   1.589   3.071   6.087  0.0705 -1.0288  0.4344
  339TIP3    H222509   1.673   3.161   5.998 -0.8014  0.1691  0.7848
  340TIP3   OH222510   1.852   2.282  13.040 -0.3055 -0.3779  0.1884
  340TIP3    H122511   1.827   2.333  12.963  0.5540  0.9771  0.7736
  340TIP3    H222512   1.863   2.347  13.109  2.9278 -1.0195  0.4444
  341TIP3   OH222513   1.582   2.615   3.587 -0.2775 -0.6392 -0.1118
  341TIP3    H122514   1.665   2.597   3.631  0.3384 -0.9555 -1.3420
  341TIP3    H222515   1.524   2.646   3.656  0.6687 -1.0333  0.8854
  342TIP3   OH222516   5.407   6.752   6.628  0.0884  0.0008 -0.4284
  342TIP3    H122517   5.419   6.846   6.640 -2.1545  0.3836 -0.7897
  342TIP3    H222518   5.331   6.744   6.571 -0.2277 -2.0420  0.1802
  343TIP3   OH222519   6.715   4.443  12.682  0.1164  0.3279 -0.4476
  343TIP3    H122520   6.649   4.417  12.745  1.1955 -1.2231  0.1189
  343TIP3    H222521   6.739   4.362  12.637  0.7246  1.0690 -1.5194
  344TIP3   OH222522   2.566   0.057   0.168  0.2797  0.2677  0.2315
  344TIP3    H122523   2.611  -0.015   0.211  1.2230  1.9558  2.2605
  344TIP3    H222524   2.637   0.110   0.131 -0.0534  2.0462  1.9694
  345TIP3   OH222525   3.603   2.865  15.607  0.0072 -0.1958 -0.2510
  345TIP3    H122526   3.661   2.820  15.668 -0.5912  0.4949  0.8906
  345TIP3    H222527   3.592   2.953  15.646 -0.5995  0.1742 -1.2226
  346TIP3   OH222528   4.860   6.563  11.708 -0.0608  0.1606  0.5747
  346TIP3    H122529   4.909   6.637  11.672 -1.0884  0.3964 -0.3905
  346TIP3    H222530   4.768   6.587  11.696 -0.4549 -1.9064 -1.2080
  347TIP3   OH222531   2.839   4.821   6.085  0.3617 -0.0084 -0.5729
  347TIP3    H122532   2.879   4.831   6.171 -0.5243 -0.6217 -0.0704
  347TIP3    H222533   2.880   4.744   6.048 -0.0530 -0.4149 -0.2132
  348TIP3   OH222534   3.495   6.017   6.121  0.1675  0.1360 -0.5231
  348TIP3    H122535   3.528   5.931   6.146  1.3970  0.2316 -1.6742
  348TIP3    H222536   3.402   6.003   6.103  0.2883 -0.8935 -0.4009
  349TIP3   OH222537   3.302   2.857  16.307 -0.1158 -0.0454 -0.3932
  349TIP3    H122538   3.215   2.895  16.293  0.5689  1.0518 -1.9883
  349TIP3    H222539   3.309   2.790  16.240 -1.8328 -4.2796  3.1917
  350TIP3   OH222540   1.870   3.900  15.382 -0.4927 -0.1826  0.0989
  350TIP3    H122541   1.844   3.842  15.310 -0.2195  0.8157 -0.8204
  350TIP3    H222542   1.963   3.880  15.397  0.2744  1.6417 -1.8372
  351TIP3   OH222543   5.195   1.438  12.432  0.2400  0.3981  0.0249
  351TIP3    H122544   5.141   1.369  12.472 -3.7339  2.2268 -1.6183
  351TIP3    H222545   5.170   1.518  12.479  0.2230  1.5895 -1.8917
  352TIP3   OH222546   2.910   6.631   4.727  0.0024  0.0236  0.2581
  352TIP3    H122547   2.846   6.560   4.722  0.9865 -0.8591 -0.1031
  352TIP3    H222548   2.917   6.663   4.637 -0.9068  1.0316  0.5226
  353TIP3   OH222549   5.804   3.476  11.191  0.3404  0.3441 -0.0611
  353TIP3    H122550   5.855   3.425  11.253  0.7412  1.1159  0.2587
  353TIP3    H222551   5.827   3.567  11.209  0.0156  0.6187 -0.9437
  354TIP3   OH222552   5.063   1.902   4.184 -0.4118  0.1329  0.0348
  354TIP3    H122553   5.158   1.910   4.185 -0.2363 -1.6405  0.3257
  354TIP3    H222554   5.040   1.909   4.091  0.2628 -1.6355 -0.3108
  355TIP3   OH222555   1.548   1.737  15.623 -0.6225  0.0374  0.3226
  355TIP3    H122556   1.468   1.744  15.571 -1.4309  1.1865  1.6557
  355TIP3    H222557   1.564   1.643  15.629 -0.9424 -0.1534 -1.2929
  356TIP3   OH222558   3.378   5.392   3.380 -0.0440 -0.1472  0.2487
  356TIP3    H122559   3.304   5.406   3.438 -0.7806 -0.4162 -0.5999
  356TIP3    H222560   3.352   5.317   3.326  0.3233  0.5153 -0.8772
  357TIP3   OH222561   5.786   1.039  14.337  0.0376 -0.5484 -0.5420
  357TIP3    H122562   5.837   1.033  14.256 -0.6799  0.5588 -1.0866
  357TIP3    H222563   5.695   1.038  14.309 -0.2743 -2.0452  0.3961
  358TIP3   OH222564   5.314   1.409   1.482 -0.3315 -0.0630  0.4808
  358TIP3    H122565   5.294   1.316   1.473  0.0674  0.0142 -1.5807
  358TIP3    H222566   5.382   1.426   1.418  0.9281  1.3026  2.0905
  359TIP3   OH222567   1.349   2.855  11.765  0.5951  0.0530  0.3006
  359TIP3    H122568   1.280   2.919  11.782  0.5910 -0.2529  1.5060
  359TIP3    H222569   1.364   2.861  11.671 -0.2914  0.9187  0.1961
  360TIP3   OH222570   5.495   2.191   4.720 -0.3663 -0.0474 -0.4866
  360TIP3    H122571   5.468   2.200   4.628  0.3551  2.0889 -0.5467
  360TIP3    H222572   5.591   2.196   4.717 -0.3919  3.1946  0.5587
  361TIP3   OH222573   0.670   2.903   0.940  0.2823  0.0108 -0.2462
  361TIP3    H122574   0.743   2.896   0.878 -0.8614  0.2983 -1.6741
  361TIP3    H222575   0.704   2.959   1.010  1.0863  1.0498 -1.4280
  362TIP3   OH222576   0.993   5.168  13.799 -0.2759 -0.8880  0.3743
  362TIP3    H122577   1.051   5.091  13.807  0.2653 -0.6648 -1.0877
  362TIP3    H222578   0.905   5.132  13.811  0.0240 -1.5922  0.5692
  363TIP3   OH222579   5.393   4.967  14.564  0.4467  0.2939 -0.5295
  363TIP3    H122580   5.431   4.880  14.568  0.4286  0.3091 -0.0071
  363TIP3    H222581   5.413   4.998  14.475  0.3691 -0.2750 -0.7484
  364TIP3   OH222582   0.889   2.577   5.569  1.0026  0.4905 -0.1935
  364TIP3    H122583   0.807   2.532   5.588  0.5427  1.1895 -0.4984
  364TIP3    H222584   0.925   2.598   5.655  0.3540  1.0779 -0.0552
  365TIP3   OH222585   5.213   3.677  15.081 -0.2727 -0.3692 -0.2317
  365TIP3    H122586   5.167   3.732  15.017 -1.5175 -0.5050  0.5160
  365TIP3    H222587   5.148   3.613  15.108  0.4461 -0.7236  0.6781
  366TIP3   OH222588   4.614   2.041  16.595  0.2763  0.2429 -0.4448
  366TIP3    H122589   4.539   2.088  16.633  0.6624  0.5241 -0.0210
  366TIP3    H222590   4.685   2.105  16.598  0.8825 -0.4621  0.3907
  367TIP3   OH222591   6.086   2.180   2.249 -0.6859 -0.4442 -0.1690
  367TIP3    H122592   6.124   2.156   2.165 -0.3545  0.3617 -0.2552
  367TIP3    H222593   6.102   2.274   2.257 -1.8769 -0.2590  0.1985
  368TIP3   OH222594   1.779   5.536  11.168  0.4615 -0.4951 -0.1939
  368TIP3    H122595   1.776   5.466  11.234 -0.2677  0.8495  1.2628
  368TIP3    H222596   1.690   5.539  11.133  0.9905 -1.5908 -1.7079
  369TIP3   OH222597   3.611   6.218   4.724 -0.1817 -0.2048 -0.0760
  369TIP3    H122598   3.555   6.228   4.801  0.2148  0.7032  0.1040
  369TIP3    H222599   3.595   6.297   4.673  1.3801  0.3781  0.2816
  370TIP3   OH222600   6.757   0.607   4.582  0.2914 -0.4966  0.4700
  370TIP3    H122601   6.682   0.555   4.609  1.1032 -2.1473 -0.3058
  370TIP3    H222602   6.759   0.681   4.643 -2.2498 -0.1028  0.1887
  371TIP3   OH222603   1.844   4.003   0.148 -0.1566 -0.4663 -0.0981
  371TIP3    H122604   1.749   4.015   0.148 -0.0430  0.6987 -1.1057
  371TIP3    H222605   1.856   3.910   0.131 -1.1193 -0.5617 -0.3521
  372TIP3   OH222606   4.630   6.701  13.230 -0.3244  0.4281 -0.5043
  372TIP3    H122607   4.684   6.718  13.307  0.4371 -1.7216 -0.4995
  372TIP3    H222608   4.664   6.760  13.163  1.1899  0.0280 -0.1180
  373TIP3   OH222609   3.917   5.687  13.953  0.3587  0.2385  0.3281
  373TIP3    H122610   3.983   5.639  13.904  0.1942 -0.1094  0.4443
  373TIP3    H222611   3.836   5.672  13.904  0.4929  1.2859 -0.2420
  374TIP3   OH222612   5.806   2.498   3.298 -0.2508 -0.3660  0.1961
  374TIP3    H122613   5.750   2.436   3.344  1.4154 -2.1308 -0.0379
  374TIP3    H222614   5.765   2.509   3.212  0.0880 -2.1879 -0.2390
  375TIP3   OH222615   1.308   1.991   2.960  0.3427  0.3754 -0.3544
  375TIP3    H122616   1.382   1.939   2.929 -0.0212 -0.9903  0.9607
  375TIP3    H222617   1.306   1.977   3.055 -0.7716  1.4891 -0.1840
  376TIP3   OH222618   3.189   3.031  11.851  0.4211  0.0074  0.2755
  376TIP3    H122619   3.138   3.033  11.770  0.5026 -0.9062  0.1864
  376TIP3    H222620   3.127   3.056  11.920  0.2281  0.3084 -0.0031
  377TIP3   OH222621   0.490   4.173  12.388 -0.1056 -0.3129 -0.0265
  377TIP3    H122622   0.582   4.176  12.361  0.0448  0.1065  0.5090
  377TIP3    H222623   0.472   4.262  12.420 -0.6247 -0.4592  0.0955
  378TIP3   OH222624   1.486   5.951  15.129  0.0208 -0.2399 -0.1313
  378TIP3    H122625   1.503   5.985  15.217 -0.5037  1.9235 -0.7953
  378TIP3    H222626   1.558   5.987  15.076  0.6658 -2.0039 -0.5087
  379TIP3   OH222627   5.514   3.510  12.931 -0.0294 -0.2807 -0.3493
  379TIP3    H122628   5.536   3.429  12.978  0.6270 -1.1674 -2.0969
  379TIP3    H222629   5.418   3.507  12.923 -0.3241  0.5788  2.0410
  380TIP3   OH222630   1.361   0.228  16.162  0.4496 -0.4889  0.8736
  380TIP3    H122631   1.383   0.160  16.098  1.3470 -0.4307  1.1107
  380TIP3    H222632   1.385   0.310  16.118 -0.4255 -0.3297  0.6757
  381TIP3   OH222633   3.678   3.644   1.021  0.0033  0.0723  0.2912
  381TIP3    H122634   3.687   3.566   0.966  0.0806  0.0962  0.2703
  381TIP3    H222635   3.595   3.631   1.068 -0.6495  0.5839 -0.6760
  382TIP3   OH222636   0.761   2.486   5.962  0.0817 -0.0456 -0.1901
  382TIP3    H122637   0.822   2.544   5.917  0.4371 -1.2737 -1.3707
  382TIP3    H222638   0.739   2.531   6.043  0.3894  1.6852 -1.0373
  383TIP3   OH222639   4.752   6.816  16.399  0.2387 -0.3742  0.0394
  383TIP3    H122640   4.698   6.777  16.330  0.1325  1.9003 -1.2728
  383TIP3    H222641   4.784   6.898  16.361  2.3698 -0.3030  1.7876
  384TIP3   OH222642   4.938   6.283   6.535  0.4016 -0.3210  0.4115
  384TIP3    H122643   4.843   6.275   6.522  0.6228 -0.6029 -1.3121
  384TIP3    H222644   4.973   6.198   6.508  1.1130 -0.4322  1.6298
  385TIP3   OH222645   0.459   0.580   5.545  0.5562  0.2168 -0.8137
  385TIP3    H122646   0.386   0.523   5.522  1.5571 -1.0149 -1.0107
  385TIP3    H222647   0.487   0.618   5.462  0.6031  0.1260 -0.8394
  386TIP3   OH222648   1.208   1.566  15.689  0.4772  0.0449 -1.0769
  386TIP3    H122649   1.202   1.474  15.713  1.2286  0.2560 -0.0101
  386TIP3    H222650   1.118   1.596  15.686  0.2686 -0.5190 -0.5820
  387TIP3   OH222651   2.894   5.031   5.917 -0.4018 -0.0160  0.2044
  387TIP3    H122652   2.826   5.089   5.954 -0.3825 -0.5473  1.1134
  387TIP3    H222653   2.888   4.952   5.970 -1.6462 -1.5969 -2.1631
  388TIP3   OH222654   3.985   0.865  12.916  0.1577  0.0338  0.5616
  388TIP3    H122655   3.950   0.789  12.871 -0.7394  0.2851  0.8013
  388TIP3    H222656   4.047   0.904  12.854 -0.3012 -0.1938 -0.0467
  389TIP3   OH222657   2.098   2.219   5.173 -0.0846  0.0390  0.1891
  389TIP3    H122658   2.185   2.254   5.152 -0.4186  0.2716 -0.8793
  389TIP3    H222659   2.080   2.157   5.102 -1.4578  1.1786 -0.4918
  390TIP3   OH222660   4.786   4.312  16.439 -0.2948 -0.8868  0.1607
  390TIP3    H122661   4.766   4.368  16.514 -0.5004 -0.7577  0.0130
  390TIP3    H222662   4.719   4.243  16.442  0.2263 -1.3818  0.5981
  391TIP3   OH222663   2.741   2.624   1.237  0.5821  0.5192 -0.2021
  391TIP3    H122664   2.682   2.690   1.273  0.7537  0.5601  0.0044
  391TIP3    H222665   2.772   2.662   1.155  1.5351  1.1736  0.4486
  392TIP3   OH222666   0.105   5.811   2.338 -0.5930  0.5493 -0.5166
  392TIP3    H122667   0.147   5.806   2.252  0.3481  0.6507 -0.0766
  392TIP3    H222668   0.063   5.726   2.350 -0.4999  0.4390 -0.9520
  393TIP3   OH222669   5.478   1.931  15.128  0.1375  0.2142  0.3965
  393TIP3    H122670   5.494   2.018  15.165 -0.4032 -0.0505  1.2807
  393TIP3    H222671   5.384   1.930  15.110  0.3763  0.3266 -1.0073
  394TIP3   OH222672   3.490   5.585   5.926 -0.3925  0.1366 -0.0239
  394TIP3    H122673   3.525   5.635   6.000 -1.1999  0.2129  0.3180
  394TIP3    H222674   3.400   5.565   5.951 -0.5152 -0.2846 -0.7685
  395TIP3   OH222675   4.432   1.218   1.748 -0.0994 -0.4294 -0.7501
  395TIP3    H122676   4.469   1.257   1.827 -0.1507 -3.3234  0.8567
  395TIP3    H222677   4.508   1.185   1.700 -0.2229 -1.2574 -0.3901
  396TIP3   OH222678   6.218   0.489   3.908  0.0289 -0.3158  0.3838
  396TIP3    H122679   6.202   0.531   3.992 -1.4124  0.3259 -0.1859
  396TIP3    H222680   6.134   0.491   3.863  0.8084 -0.4593 -1.1617
  397TIP3   OH222681   0.667   4.930   1.644 -0.1329  0.1183  1.0219
  397TIP3    H122682   0.675   4.909   1.551  2.5335 -0.4259  1.2776
  397TIP3    H222683   0.669   4.845   1.688 -0.4495  0.4153  1.6191
  398TIP3   OH222684   0.059   3.439  13.815 -0.1933 -0.4714 -0.2352
  398TIP3    H122685   0.112   3.514  13.788 -1.1570 -0.4807 -2.3227
  398TIP3    H222686   0.110   3.362  13.787 -0.3765 -0.5274 -0.4184
  399TIP3   OH222687   0.630   5.885   1.610 -0.4676  0.4850  0.4869
  399TIP3    H122688   0.595   5.971   1.588 -0.0137  0.7314  0.7168
  399TIP3    H222689   0.658   5.893   1.701 -1.4209 -0.2299  0.8636
  400TIP3   OH222690   4.297   2.025   0.925 -0.3698  0.4837  0.5851
  400TIP3    H122691   4.310   1.982   1.009 -0.4944  1.5364  1.1605
  400TIP3    H222692   4.291   2.118   0.946 -1.4152  0.6868 -0.4790
  401TIP3   OH222693   0.398   6.412  11.394  0.5311 -0.7031  0.7272
  401TIP3    H122694   0.334   6.414  11.465  0.8567 -0.1328  1.0123
  401TIP3    H222695   0.385   6.327  11.352  1.1267 -1.5602  2.1958
  402TIP3   OH222696   4.190   2.972  12.130 -0.5584  0.6804 -0.0015
  402TIP3    H122697   4.151   2.952  12.045  0.1379  0.1286 -0.2048
  402TIP3    H222698   4.280   2.997  12.110 -0.8133  2.0130  0.4534
  403TIP3   OH222699   4.636   1.125   1.520  0.5850 -0.8160 -0.2198
  403TIP3    H122700   4.676   1.054   1.471  0.5300 -0.7444 -0.3694
  403TIP3    H222701   4.709   1.165   1.568  0.4334 -1.7097  0.7976
  404TIP3   OH222702   5.549   1.121  14.059  0.0792 -0.1195  1.0469
  404TIP3    H122703   5.623   1.117  13.999 -0.8064 -2.2869 -0.0306
  404TIP3    H222704   5.504   1.202  14.035 -0.0854 -0.7705 -1.1029
  405TIP3   OH222705   2.730   5.610  17.122 -0.1730  0.9519 -0.3360
  405TIP3    H122706   2.818   5.635  17.095 -0.4556  1.6590 -0.6282
  405TIP3    H222707   2.711   5.665  17.198 -0.1163  0.3324  0.1378
  406TIP3   OH222708   0.058   4.846  11.299  0.1407 -0.2790  0.1003
  406TIP3    H122709   0.057   4.938  11.273 -0.7653 -0.1873  0.4400
  406TIP3    H222710   0.124   4.807  11.243  2.5267  1.0994  1.7567
  407TIP3   OH222711   4.201   4.113  11.476 -0.2435  0.2013 -0.5872
  407TIP3    H122712   4.182   4.136  11.385 -0.1226 -0.2755 -0.7319
  407TIP3    H222713   4.117   4.122  11.521 -0.5295 -0.5900 -0.9559
  408TIP3   OH222714   4.104   1.103   0.943 -0.1503  0.5085 -0.7902
  408TIP3    H122715   4.072   1.163   0.876  2.2177  1.0020 -1.5721
  408TIP3    H222716   4.141   1.160   1.011  1.0428  0.0018 -0.9784
  409TIP3   OH222717   4.621   1.042   5.586 -0.6265 -0.3247  0.2058
  409TIP3    H122718   4.582   1.128   5.603 -1.0958  0.3860 -3.6710
  409TIP3    H222719   4.547   0.985   5.565 -0.1605 -1.3005  1.0735
  410TIP3   OH222720   4.025   3.835  14.887 -0.9082 -0.2699 -0.0272
  410TIP3    H122721   3.960   3.824  14.817 -1.6868 -0.1670  0.6610
  410TIP3    H222722   4.088   3.765  14.873 -1.9355 -1.2376  0.1172
  411TIP3   OH222723   1.319   5.015  16.434  0.0461  0.1575  0.2183
  411TIP3    H122724   1.335   5.058  16.350  1.3539  0.5031  0.6268
  411TIP3    H222725   1.383   4.944  16.436  0.0328  0.1684  0.9362
  412TIP3   OH222726   5.992   3.482   2.776 -0.8181  0.6358 -0.4678
  412TIP3    H122727   5.916   3.467   2.719 -0.6774  0.3863 -0.5941
  412TIP3    H222728   5.955   3.514   2.858 -1.0368  0.8397 -0.6427
  413TIP3   OH222729   5.185   3.363   2.883 -0.4382 -0.8020  0.1196
  413TIP3    H122730   5.100   3.380   2.842 -0.6852 -0.2247  0.8386
  413TIP3    H222731   5.235   3.316   2.817 -1.0035 -0.3426 -0.6520
  414TIP3   OH222732   4.823   6.252   3.595 -0.1652  0.2265  0.2169
  414TIP3    H122733   4.789   6.169   3.561  2.1951 -0.3580 -0.9452
  414TIP3    H222734   4.864   6.229   3.678  0.8999  0.0936 -0.3258
  415TIP3   OH222735   1.586   3.819  16.055 -0.3090  0.3992  0.2351
  415TIP3    H122736   1.528   3.783  16.123 -2.9817  0.9749 -1.5748
  415TIP3    H222737   1.616   3.742  16.006 -1.0834  0.2112  0.0479
  416TIP3   OH222738   0.620   4.595  16.290  0.0217  0.3751  0.1180
  416TIP3    H122739   0.532   4.594  16.252 -0.4022 -2.4113  0.9103
  416TIP3    H222740   0.605   4.597  16.385  0.8098  0.0868  0.2560
  417TIP3   OH222741   2.316   0.754   2.607 -0.5613 -0.0874  0.2272
  417TIP3    H122742   2.221   0.767   2.612 -0.5955  0.5725 -1.4127
  417TIP3    H222743   2.327   0.661   2.591 -1.0197  0.0268 -0.8386
  418TIP3   OH222744   0.073   5.890   5.258 -0.4062 -0.7008  0.1059
  418TIP3    H122745   0.135   5.865   5.326 -0.3890 -0.7925  0.0566
  418TIP3    H222746   0.116   5.962   5.211 -1.2803  0.7865  1.4890
  419TIP3   OH222747   5.400   6.560  10.600  0.2291 -0.5522  0.3002
  419TIP3    H122748   5.491   6.567  10.573  1.3601 -2.7501  3.0582
  419TIP3    H222749   5.384   6.466  10.606 -2.4458 -0.2370 -0.6459
  420TIP3   OH222750   2.766   4.251  11.956  0.0646 -0.5953  0.4980
  420TIP3    H122751   2.853   4.291  11.949  0.3101 -1.2699 -0.4315
  420TIP3    H222752   2.768   4.204  12.040  0.7707 -1.0236  0.2460
  421TIP3   OH222753   2.739   0.514   3.044 -0.0087 -0.2776 -0.3984
  421TIP3    H122754   2.651   0.480   3.062 -0.0338  0.2145  0.5040
  421TIP3    H222755   2.723   0.603   3.013  0.2266  0.6352  1.9218
  422TIP3   OH222756   1.482   5.631  14.592 -0.2310  0.5797  0.3466
  422TIP3    H122757   1.491   5.650  14.685  0.6236 -0.3998  0.4767
  422TIP3    H222758   1.544   5.560  14.575 -2.1102 -0.9783 -0.4603
  423TIP3   OH222759   3.239   2.289   1.970  0.6008 -0.6059 -0.4406
  423TIP3    H122760   3.145   2.292   1.952  0.5787 -1.4833 -0.5250
  423TIP3    H222761   3.280   2.308   1.885  0.5102  0.2576 -0.3008
  424TIP3   OH222762   3.212   1.948   3.125  0.6173 -0.5083 -0.2137
  424TIP3    H122763   3.227   2.018   3.189 -0.8740 -2.5112  2.5657
  424TIP3    H222764   3.278   1.882   3.147 -1.7673 -2.5219  1.4643
  425TIP3   OH222765   6.156   5.551  12.583  0.0925  0.3572  0.0344
  425TIP3    H122766   6.062   5.548  12.566 -0.3704  2.8026  1.5453
  425TIP3    H222767   6.163   5.546  12.679  1.5617 -0.5121 -0.0927
  426TIP3   OH222768   0.564   5.545  16.257 -0.2162  0.2971  0.4625
  426TIP3    H122769   0.595   5.475  16.199  0.7747  0.4838  0.7560
  426TIP3    H222770   0.627   5.616  16.247  0.2188  0.1882  2.0504
  427TIP3   OH222771   3.741   4.104   4.040  0.3287  0.2690 -0.0878
  427TIP3    H122772   3.684   4.029   4.024 -0.1089  0.4806  0.4574
  427TIP3    H222773   3.690   4.162   4.097  1.6300 -0.2426  1.7054
  428TIP3   OH222774   1.389   2.139   4.784  0.0619  0.1659  0.5225
  428TIP3    H122775   1.318   2.176   4.733  0.6945  0.3425 -0.2508
  428TIP3    H222776   1.461   2.202   4.776  1.0911 -1.0937 -0.6616
  429TIP3   OH222777   5.257   4.502  13.265  0.1999  0.1563  0.2645
  429TIP3    H122778   5.231   4.546  13.185  0.8722  1.4436  0.7203
  429TIP3    H222779   5.236   4.564  13.335  1.3912 -0.1179  0.9025
  430TIP3   OH222780   4.854   2.647   4.715  0.5497 -0.9031  0.0458
  430TIP3    H122781   4.946   2.653   4.692  0.8341 -1.5991  0.9770
  430TIP3    H222782   4.853   2.624   4.808 -0.5375 -2.3384 -0.2857
  431TIP3   OH222783   0.541   6.626  11.774  0.4101  0.5092 -0.1240
  431TIP3    H122784   0.473   6.663  11.718  1.5892  0.2555 -1.7765
  431TIP3    H222785   0.578   6.554  11.723  1.4171  0.1603  1.0478
  432TIP3   OH222786   1.332   5.029   4.149 -0.2516 -0.1158 -0.1655
  432TIP3    H122787   1.302   5.035   4.240 -0.9597 -0.3343 -0.3756
  432TIP3    H222788   1.364   4.940   4.140 -0.5467 -0.2185 -0.2308
  433TIP3   OH222789   6.212   4.862   1.539  0.2431 -0.1161  0.5010
  433TIP3    H122790   6.307   4.855   1.532  0.7747  3.2754  2.5354
  433TIP3    H222791   6.187   4.923   1.470 -0.5292 -0.9711 -0.0107
  434TIP3   OH222792   0.568   6.479   1.452 -0.1010  0.1319  0.5474
  434TIP3    H122793   0.580   6.388   1.480  0.0495 -0.4270 -1.1990
  434TIP3    H222794   0.634   6.492   1.383 -0.0720  1.5945  0.8136
  435TIP3   OH222795   4.693   4.778   0.868 -0.4167 -0.0197 -0.2340
  435TIP3    H122796   4.701   4.682   0.860 -0.2041  0.0423 -0.8156
  435TIP3    H222797   4.775   4.811   0.831 -0.4935  0.3927 -0.0324
  436TIP3   OH222798   3.129   5.449   3.883 -0.4313  0.3878 -0.4400
  436TIP3    H122799   3.198   5.454   3.950 -0.1702  0.0924 -0.6791
  436TIP3    H222800   3.056   5.498   3.919 -0.6136 -0.5100  0.4482
  437TIP3   OH222801   4.653   2.858  16.166 -0.8293  0.4413  0.6078
  437TIP3    H122802   4.591   2.801  16.212  1.3038 -0.5933  2.3664
  437TIP3    H222803   4.693   2.910  16.236  1.6078 -0.2529 -0.1902
  438TIP3   OH222804   3.752   4.632   2.401  0.5810  0.1941 -0.5211
  438TIP3    H122805   3.824   4.646   2.463 -0.4478 -0.3403  0.8723
  438TIP3    H222806   3.774   4.686   2.325  3.0148 -0.8224 -0.6438
  439TIP3   OH222807   4.845   3.985  14.711  0.1183  0.0468  0.1161
  439TIP3    H122808   4.778   3.993  14.779 -0.7253  0.8012 -0.7755
  439TIP3    H222809   4.857   4.074  14.678  1.1291 -0.1770 -0.1552
  440TIP3   OH222810   2.339   0.540   4.452 -0.1207 -0.5445  0.1051
  440TIP3    H122811   2.326   0.489   4.372 -1.1028 -0.7302  0.3741
  440TIP3    H222812   2.428   0.576   4.443 -0.3506 -0.2569 -1.2398
  441TIP3   OH222813   0.754   3.250   3.300 -0.2823 -0.2470  0.2330
  441TIP3    H122814   0.842   3.243   3.336  0.0525 -1.9940 -0.8582
  441TIP3    H222815   0.762   3.223   3.209 -1.9747 -0.5719  0.1430
  442TIP3   OH222816   5.132   4.359   5.462 -0.1012 -0.4098  0.2784
  442TIP3    H122817   5.224   4.335   5.446 -0.1024 -0.2207 -0.0313
  442TIP3    H222818   5.090   4.349   5.377  0.0373  1.2628 -0.0278
  443TIP3   OH222819   3.657   2.221  12.268 -0.3687 -0.5779  0.2634
  443TIP3    H122820   3.690   2.307  12.240  1.6066 -1.7981 -1.4886
  443TIP3    H222821   3.621   2.183  12.188 -1.3059 -1.3714  1.0413
  444TIP3   OH222822   0.749   0.295  11.633  0.2577 -0.1011  0.1666
  444TIP3    H122823   0.705   0.233  11.690 -0.7554  1.3183  1.0035
  444TIP3    H222824   0.841   0.267  11.633 -0.2773 -1.9530 -0.0323
  445TIP3   OH222825   5.121   0.503   2.614 -0.3757  0.0573 -0.6603
  445TIP3    H122826   5.134   0.541   2.527 -0.4045 -0.3950 -0.8598
  445TIP3    H222827   5.208   0.507   2.654  0.0624 -1.4906 -1.4144
  446TIP3   OH222828   3.398   2.005  12.384 -0.1695 -0.2177 -0.0971
  446TIP3    H122829   3.466   2.030  12.447 -1.6944  0.7853  1.2227
  446TIP3    H222830   3.384   1.912  12.401 -0.0218 -0.1319  0.5337
  447TIP3   OH222831   2.230   1.406  16.844  0.1611 -0.4369  0.0573
  447TIP3    H122832   2.279   1.485  16.867  0.1234  0.0732 -1.4746
  447TIP3    H222833   2.296   1.338  16.835  0.2285 -0.5188  1.0559
  448TIP3   OH222834   3.142   0.493   5.244 -0.7594  0.1081 -0.2045
  448TIP3    H122835   3.133   0.558   5.314  1.9855  0.4642 -0.0386
  448TIP3    H222836   3.095   0.417   5.276 -1.2906  0.9438  1.1027
  449TIP3   OH222837   0.025   3.235   1.116 -0.1045 -0.3209  0.1896
  449TIP3    H122838   0.096   3.299   1.119  1.5562 -1.9303 -1.9647
  449TIP3    H222839  -0.047   3.280   1.072  0.2517  0.7411  0.6798
  450TIP3   OH222840   2.761   2.349  16.176 -0.7655  0.0811 -0.1241
  450TIP3    H122841   2.806   2.353  16.260 -2.1999 -0.5700  0.7121
  450TIP3    H222842   2.810   2.285  16.125 -1.0626 -1.0601  0.9837
  451TIP3   OH222843   1.664   3.006  16.432  0.0456  0.2720 -0.4981
  451TIP3    H122844   1.686   2.926  16.481  2.0935  1.3079  0.4076
  451TIP3    H222845   1.709   2.995  16.348  0.1011  0.3425 -0.4773
  452TIP3   OH222846   0.796   1.944  16.498 -0.1561  0.1946 -0.0148
  452TIP3    H122847   0.816   1.853  16.522 -0.8294  0.4444  1.6290
  452TIP3    H222848   0.738   1.975  16.568  1.2704  2.3885  0.2999
  453TIP3   OH222849   2.531   3.570   6.416  0.2373 -0.5168  0.1444
  453TIP3    H122850   2.506   3.555   6.325 -1.1415 -0.7990  0.5591
  453TIP3    H222851   2.618   3.609   6.410  0.6564 -1.5772 -1.2456
  454TIP3   OH222852   1.634   5.010  11.647  0.4543 -0.1381  0.1245
  454TIP3    H122853   1.594   5.087  11.687 -1.0428 -0.9227  0.2240
  454TIP3    H222854   1.712   4.994  11.699 -0.4986 -0.0817  1.6433
  455TIP3   OH222855   6.738   0.388  14.297  0.3495 -0.0766  0.6322
  455TIP3    H122856   6.812   0.330  14.313  1.6600  1.7978  1.7574
  455TIP3    H222857   6.734   0.396  14.202  3.0531  1.4423  0.5358
  456TIP3   OH222858   2.642   5.578   2.216 -0.3397 -0.5696 -0.4914
  456TIP3    H122859   2.661   5.671   2.229 -0.6213 -0.4610 -0.8592
  456TIP3    H222860   2.548   5.570   2.227 -0.5827 -0.4938 -2.2724
  457TIP3   OH222861   6.065   3.307   1.180  0.5572  0.1353  0.1706
  457TIP3    H122862   6.139   3.266   1.226 -0.7836 -1.6513  0.8456
  457TIP3    H222863   6.100   3.328   1.094  1.8289 -0.8476  0.4060
  458TIP3   OH222864   2.109   4.133   0.586  0.0096 -0.3741 -0.2916
  458TIP3    H122865   2.139   4.047   0.556  1.3168  0.5493 -1.8064
  458TIP3    H222866   2.186   4.189   0.579 -0.7656  0.9122  0.8465
  459TIP3   OH222867   5.908   5.633  15.754  0.1644 -0.4052  0.1013
  459TIP3    H122868   5.982   5.651  15.812 -0.9105  1.7599  0.9067
  459TIP3    H222869   5.921   5.691  15.679 -0.1828 -0.7623 -0.2415
  460TIP3   OH222870   5.968   3.959   2.102  0.0688  0.4623  0.5968
  460TIP3    H122871   5.929   4.006   2.176  1.0340  0.6235  1.0258
  460TIP3    H222872   6.060   3.950   2.126  0.4722  0.8258 -0.7490
  461TIP3   OH222873   0.348   0.713   3.563  0.0852 -0.8196 -0.0477
  461TIP3    H122874   0.310   0.786   3.514  0.4191 -0.4455  0.2456
  461TIP3    H222875   0.425   0.688   3.513 -0.2123 -1.1932 -0.3262
  462TIP3   OH222876   3.120   1.067   3.857  0.4722  0.5916 -0.4476
  462TIP3    H122877   3.144   1.157   3.837  1.4927  0.4832  0.2105
  462TIP3    H222878   3.124   1.062   3.953  3.3977 -0.8888 -0.5355
  463TIP3   OH222879   6.408   3.738  13.809 -0.2367  0.3123 -0.2027
  463TIP3    H122880   6.446   3.652  13.828 -1.8321 -0.4883 -0.4634
  463TIP3    H222881   6.416   3.747  13.714  1.9923  1.5158  0.0235
  464TIP3   OH222882   2.811   4.758  11.853 -0.2759 -0.2573  0.5206
  464TIP3    H122883   2.872   4.734  11.784 -0.5638  0.7281 -0.0913
  464TIP3    H222884   2.866   4.793  11.923 -0.1066  0.2735  0.1253
  465TIP3   OH222885   4.042   0.249   2.775 -0.6025  0.4225  0.0112
  465TIP3    H122886   4.007   0.247   2.685 -0.9249  0.4326  0.1335
  465TIP3    H222887   4.062   0.157   2.795  2.1897  0.6939 -1.0997
  466TIP3   OH222888   1.208   6.791   3.087 -0.0049 -0.3300  0.0557
  466TIP3    H122889   1.156   6.818   3.163  1.2556  0.4385  0.6894
  466TIP3    H222890   1.217   6.696   3.096 -3.0858 -0.8603 -1.2809
  467TIP3   OH222891   5.829   6.205  12.009 -0.0574 -0.0701  0.0534
  467TIP3    H122892   5.743   6.190  12.046 -0.5813 -1.0608 -1.4836
  467TIP3    H222893   5.817   6.277  11.947 -0.2522 -1.4750 -1.6035
  468TIP3   OH222894   4.293   1.431   5.359 -0.2717 -0.6829  0.4975
  468TIP3    H122895   4.372   1.478   5.387 -0.7512 -1.3576  3.2066
  468TIP3    H222896   4.322   1.379   5.284  1.2268  0.9130 -0.0931
  469TIP3   OH222897   5.113   0.188  13.781 -0.9367  0.6031 -0.4601
  469TIP3    H122898   5.088   0.278  13.758 -0.1023  1.1858  0.7884
  469TIP3    H222899   5.042   0.157  13.836 -0.2852  1.2533  0.7868
  470TIP3   OH222900   5.363   3.544  11.781 -0.2931  0.3604 -0.1887
  470TIP3    H122901   5.388   3.489  11.707 -0.6157  0.5123 -0.4109
  470TIP3    H222902   5.400   3.630  11.761 -1.1057  0.6277 -0.5925
  471TIP3   OH222903   3.101   3.058  14.262  0.1743  0.0727 -0.1106
  471TIP3    H122904   3.011   3.059  14.293  0.4255  0.6592  0.6208
  471TIP3    H222905   3.154   3.039  14.340  0.7804  1.1712 -0.2176
  472TIP3   OH222906   1.575   2.331   4.774  0.1488 -0.3294  0.2337
  472TIP3    H122907   1.667   2.345   4.794  0.8889 -3.0556 -0.8215
  472TIP3    H222908   1.555   2.394   4.704  1.1350  0.3833  0.5763
  473TIP3   OH222909   0.252   1.708   2.710  0.4787  0.4397 -0.2874
  473TIP3    H122910   0.321   1.718   2.644  0.7270 -0.1022 -0.1235
  473TIP3    H222911   0.299   1.679   2.789  0.1734  0.9757  0.0992
  474TIP3   OH222912   3.794   2.549   1.537  0.4409  0.2504 -0.2439
  474TIP3    H122913   3.764   2.633   1.502  2.0903  0.3640 -1.5522
  474TIP3    H222914   3.745   2.538   1.618  0.2224  2.5038  0.0115
  475TIP3   OH222915   2.623   3.442  16.908  0.0573 -0.3070 -0.5485
  475TIP3    H122916   2.571   3.507  16.860 -0.3477 -0.5648 -0.4627
  475TIP3    H222917   2.595   3.358  16.872 -0.6945 -0.5523  0.5446
  476TIP3   OH222918   2.530   2.319   2.921  0.5283 -0.0971 -0.0660
  476TIP3    H122919   2.454   2.299   2.866  1.1706 -1.1979 -0.5870
  476TIP3    H222920   2.548   2.412   2.905 -2.1149  0.8900  1.8773
  477TIP3   OH222921   0.272   3.354   3.560  0.0808 -0.6116  0.3370
  477TIP3    H122922   0.197   3.309   3.599 -0.7486  0.0531 -0.4524
  477TIP3    H222923   0.268   3.331   3.467 -1.6360  2.6856 -0.5508
  478TIP3   OH222924   6.818   2.362  15.721 -0.3030  0.6562  0.5975
  478TIP3    H122925   6.896   2.411  15.747 -0.2801  1.7144 -1.3566
  478TIP3    H222926   6.758   2.372  15.795 -0.0372  3.0675  0.5422
  479TIP3   OH222927   2.662   0.226  14.967 -0.2674 -0.6221 -0.0032
  479TIP3    H122928   2.640   0.294  14.904 -1.4129 -1.0375 -0.0650
  479TIP3    H222929   2.756   0.212  14.955  0.0381  1.0492  0.1237
  480TIP3   OH222930   2.306   4.692   2.450 -0.1999  0.1024  0.0379
  480TIP3    H122931   2.391   4.677   2.492 -0.3455  0.6270  0.5284
  480TIP3    H222932   2.327   4.739   2.369 -0.0440  0.5262  0.3201
  481TIP3   OH222933   1.445   4.190  12.030 -0.1648  0.0389  0.4324
  481TIP3    H122934   1.503   4.194  12.106 -0.2566 -0.4249  0.5331
  481TIP3    H222935   1.503   4.194  11.954 -0.0008 -0.3824  0.5313
  482TIP3   OH222936   3.573   5.126   2.726 -1.2447 -0.3832  0.0662
  482TIP3    H122937   3.545   5.062   2.792  0.3712 -1.2648 -0.0569
  482TIP3    H222938   3.564   5.079   2.642  0.3947 -0.6461  0.0138
  483TIP3   OH222939   1.395   0.481   0.723  0.0738 -0.3438 -0.2249
  483TIP3    H122940   1.418   0.529   0.803 -1.1561  1.1015 -0.7063
  483TIP3    H222941   1.314   0.435   0.745  0.2615 -0.7418 -0.3475
  484TIP3   OH222942   4.160   1.762   4.334 -0.1857 -0.3995  0.9246
  484TIP3    H122943   4.185   1.747   4.425 -1.0152  1.7822  1.5940
  484TIP3    H222944   4.191   1.851   4.316 -0.3552 -0.6692 -0.8164
  485TIP3   OH222945   5.140   3.840   0.753 -0.9435 -0.4956 -0.4144
  485TIP3    H122946   5.125   3.913   0.812 -1.3596 -0.3110 -0.7373
  485TIP3    H222947   5.114   3.873   0.667 -0.7715 -0.9004 -0.6266
  486TIP3   OH222948   1.358   5.814  13.037  0.5082  0.0300 -0.6452
  486TIP3    H122949   1.273   5.770  13.039  0.9358 -0.8024 -0.2971
  486TIP3    H222950   1.414   5.760  13.092  0.4520  2.3203  1.8871
  487TIP3   OH222951   6.406   4.001   5.666  0.0759 -0.7069  0.1055
  487TIP3    H122952   6.325   4.011   5.617  1.1389  1.7197 -1.3682
  487TIP3    H222953   6.407   4.074   5.728  0.8034 -1.1247  0.6118
  488TIP3   OH222954   2.920   6.184   2.640  0.0274  0.6198 -0.3957
  488TIP3    H122955   2.884   6.176   2.728  2.1509  1.1255  0.5829
  488TIP3    H222956   2.845   6.170   2.582 -1.5056  0.6575  1.4734
  489TIP3   OH222957   2.879   0.330  15.491 -0.0688 -0.0736 -0.1791
  489TIP3    H122958   2.900   0.280  15.412  1.2906  1.0352 -0.5831
  489TIP3    H222959   2.940   0.404  15.488 -0.7357  0.5742  1.3581
  490TIP3   OH222960   2.050   0.356  15.747 -0.0015  0.2072 -0.0862
  490TIP3    H122961   1.970   0.305  15.740 -0.0796  0.2496  0.4520
  490TIP3    H222962   2.094   0.322  15.825  1.2863 -0.8931 -1.2410
  491TIP3   OH222963   5.502   0.641  14.617  0.2772  0.0633 -0.4759
  491TIP3    H122964   5.582   0.674  14.657 -0.3053 -0.0948  0.8702
  491TIP3    H222965   5.517   0.648  14.523  2.1968 -0.7896 -0.2606
  492TIP3   OH222966   0.562   1.432   2.422  0.4171 -0.1187  0.2420
  492TIP3    H122967   0.508   1.480   2.359 -0.2608  0.1383  1.0022
  492TIP3    H222968   0.631   1.392   2.369  1.4213  2.2330 -0.3385
  493TIP3   OH222969   1.948   2.117  13.555  0.1920  0.1112  0.2264
  493TIP3    H122970   2.019   2.077  13.504  0.1515 -0.5311  0.6646
  493TIP3    H222971   1.965   2.091  13.645 -0.6954 -0.1979  0.3188
  494TIP3   OH222972   6.502   6.685  16.505 -0.1081 -0.2687 -0.1738
  494TIP3    H122973   6.521   6.709  16.595  0.7604 -0.7223 -0.2170
  494TIP3    H222974   6.569   6.732  16.454 -1.4727  1.1436 -0.7387
  495TIP3   OH222975   4.949   2.076   2.709  1.0933  0.3256  0.3955
  495TIP3    H122976   4.905   2.109   2.788  0.7353 -1.0708  0.8007
  495TIP3    H222977   5.041   2.070   2.734  0.9036 -0.6288  0.9019
  496TIP3   OH222978   2.857   0.817  11.759 -0.0401  0.5266  0.7479
  496TIP3    H122979   2.874   0.905  11.725  0.4875  0.3905  0.6431
  496TIP3    H222980   2.862   0.760  11.682 -0.7140  0.4442  0.7628
  497TIP3   OH222981   1.674   5.883  14.070  0.0024 -0.0520  0.3392
  497TIP3    H122982   1.728   5.822  14.020 -1.4750 -0.0568 -1.3486
  497TIP3    H222983   1.704   5.874  14.160  0.2322 -2.8487  0.0471
  498TIP3   OH222984   5.682   1.182  15.966  0.4593 -0.4434  0.1046
  498TIP3    H122985   5.754   1.207  16.025  0.2363 -0.9064  0.5795
  498TIP3    H222986   5.713   1.103  15.923  1.1223  0.5479 -1.3273
  499TIP3   OH222987   1.798   5.001  17.272  0.0668 -0.0315  0.3163
  499TIP3    H122988   1.748   4.923  17.294 -2.9550  1.5606 -0.1874
  499TIP3    H222989   1.837   5.030  17.354 -1.1267 -0.5799  1.1023
  500TIP3   OH222990   6.613   0.526   6.206 -0.6642  0.6128  0.3369
  500TIP3    H122991   6.687   0.487   6.159  0.3535  0.6141  1.8710
  500TIP3    H222992   6.619   0.620   6.186  0.5448  0.8041  1.4375
  501TIP3   OH222993   3.779   1.325  15.150  0.7258 -0.3381 -0.1868
  501TIP3    H122994   3.735   1.242  15.133  0.8100 -0.6154  0.8818
  501TIP3    H222995   3.804   1.358  15.063 -2.9566  0.6377 -1.0438
  502TIP3   OH222996   5.544   5.454   3.604  0.0177 -0.0047  0.4134
  502TIP3    H122997   5.560   5.545   3.629  2.9659  0.0360 -1.1891
  502TIP3    H222998   5.474   5.425   3.663  0.1398  2.7731  2.1006
  503TIP3   OH222999   0.111   6.310   6.779 -0.2241  0.2161 -0.3821
  503TIP3    H123000   0.128   6.232   6.726 -0.9894  0.7212 -1.4042
  503TIP3    H223001   0.198   6.342   6.803  0.0997 -0.9247  0.0331
  504TIP3   OH223002   6.352   3.284  11.041  0.2936  0.6290  0.0184
  504TIP3    H123003   6.283   3.223  11.014  0.5354  0.8343 -1.1134
  504TIP3    H223004   6.432   3.247  11.006  0.2616  2.3534 -2.0632
  505TIP3   OH223005   2.368   6.337  13.280 -0.5845  0.0264  0.6736
  505TIP3    H123006   2.286   6.382  13.257  0.0442  0.2993 -1.1688
  505TIP3    H223007   2.372   6.263  13.220  1.2441  0.8881 -0.3285
  506TIP3   OH223008   0.307   5.800   5.385 -0.1036  0.5471  0.2661
  506TIP3    H123009   0.343   5.869   5.441 -0.7934  0.9300  0.2411
  506TIP3    H223010   0.323   5.719   5.433  0.1785  0.7810  0.5674
  507TIP3   OH223011   1.944   3.801   6.142 -0.3550  0.5546 -0.3493
  507TIP3    H123012   1.854   3.832   6.146 -0.6331 -0.2596 -0.1200
  507TIP3    H223013   1.987   3.843   6.216 -0.9485 -0.2880  0.4942
  508TIP3   OH223014   1.732   5.180   3.077 -0.1379  0.0546  0.1436
  508TIP3    H123015   1.792   5.125   3.026 -0.7395 -1.2749  0.8105
  508TIP3    H223016   1.762   5.170   3.167 -2.5499 -2.3568  0.7910
  509TIP3   OH223017   6.602   3.539  11.318  0.3570 -0.5931 -0.2731
  509TIP3    H123018   6.553   3.460  11.341 -0.6491 -0.0111 -0.3498
  509TIP3    H223019   6.651   3.560  11.397 -0.4812 -0.5046  0.2403
  510TIP3   OH223020   6.490   6.450   0.447 -0.0548  0.1981  0.1503
  510TIP3    H123021   6.406   6.404   0.449  1.0540 -1.9279  2.0522
  510TIP3    H223022   6.484   6.515   0.517 -1.2464  2.4688 -1.8911
  511TIP3   OH223023   5.681   1.120  16.947  0.5100  0.5628  0.0143
  511TIP3    H123024   5.593   1.143  16.917  0.3372 -0.0245  0.0519
  511TIP3    H223025   5.666   1.075  17.030  0.9628  1.9648  0.8811
  512TIP3   OH223026   4.177   3.331  13.433 -0.5486  0.0210  0.5838
  512TIP3    H123027   4.265   3.316  13.468  0.3838  1.7015 -0.8222
  512TIP3    H223028   4.182   3.298  13.343 -0.5582  2.1551 -0.2737
  513TIP3   OH223029   6.719   2.535   4.182 -0.7499 -0.2671  0.3283
  513TIP3    H123030   6.743   2.563   4.094 -1.8286  1.2539  0.4875
  513TIP3    H223031   6.682   2.613   4.223  0.6788 -0.6518  2.5083
  514TIP3   OH223032   2.830   4.368  14.363  0.0637  0.0058  0.6599
  514TIP3    H123033   2.903   4.350  14.421  0.7866  0.9327  0.0715
  514TIP3    H223034   2.857   4.445  14.313 -0.4502 -0.8523 -1.0262
  515TIP3   OH223035   3.252   1.810   4.811  0.4193 -0.2601  0.2572
  515TIP3    H123036   3.164   1.775   4.829  0.4219 -1.6713 -1.9778
  515TIP3    H223037   3.305   1.781   4.885 -0.5192 -1.4191  0.5127
  516TIP3   OH223038   4.829   0.025  11.350 -0.5240 -0.6845 -0.0169
  516TIP3    H123039   4.854   0.010  11.259 -0.2309 -0.7848  0.0785
  516TIP3    H223040   4.734   0.013  11.351 -0.7118  0.5319 -0.5557
  517TIP3   OH223041   4.196   0.478   2.760  0.5302  0.4994  0.1977
  517TIP3    H123042   4.126   0.540   2.737 -0.1939  0.3059  1.8025
  517TIP3    H223043   4.151   0.394   2.771  0.9768  0.4028  1.3727
  518TIP3   OH223044   3.927   3.617   1.897  0.2774 -0.5995 -0.0872
  518TIP3    H123045   3.972   3.574   1.824 -0.6582 -1.3347 -0.2530
  518TIP3    H223046   3.983   3.691   1.920  0.5264 -0.2868 -1.6221
  519TIP3   OH223047   4.372   2.305  11.948 -0.3626 -0.0421 -0.5257
  519TIP3    H123048   4.458   2.288  11.911 -0.5563  0.2622 -1.1387
  519TIP3    H223049   4.365   2.400  11.951 -0.4689 -0.0635  0.0269
  520TIP3   OH223050   0.841   1.617  15.848 -0.1779 -0.0404  0.4029
  520TIP3    H123051   0.854   1.572  15.765  0.8799  1.8822 -0.5449
  520TIP3    H223052   0.760   1.667  15.836  0.2505  0.6452  0.3173
  521TIP3   OH223053   1.329   1.840  15.231 -0.1163  0.2803 -0.2299
  521TIP3    H123054   1.273   1.878  15.298  0.1570  1.0798 -0.4374
  521TIP3    H223055   1.414   1.881  15.245 -0.1325  0.6954 -1.2513
  522TIP3   OH223056   3.509   0.474   1.975  0.3432  0.0329 -0.0780
  522TIP3    H123057   3.480   0.385   1.957  1.0560 -0.2648  0.1943
  522TIP3    H223058   3.435   0.515   2.020 -0.9209  0.3428 -2.2746
  523TIP3   OH223059   4.011   3.518  14.366  0.3534  0.1991 -0.0450
  523TIP3    H123060   3.942   3.502  14.302 -2.6197  2.9951  2.1604
  523TIP3    H223061   4.092   3.494  14.320 -1.8892 -2.3280 -3.1363
  524TIP3   OH223062   4.485   3.183  12.520  0.5498  0.1988  0.6384
  524TIP3    H123063   4.476   3.217  12.431  2.5986  1.8399  0.9613
  524TIP3    H223064   4.455   3.093  12.514  0.8089  0.1915 -1.7741
  525TIP3   OH223065   2.500   0.611  10.653  0.6326  0.1749  0.0260
  525TIP3    H123066   2.540   0.697  10.650 -1.3419  1.3030  2.5014
  525TIP3    H223067   2.441   0.609  10.578 -0.5714  1.7276  0.8852
  526TIP3   OH223068   2.861   4.224  17.296  0.0199 -0.0569  0.3591
  526TIP3    H123069   2.937   4.180  17.334  1.1493  0.6544 -0.9848
  526TIP3    H223070   2.894   4.311  17.272 -0.5678 -0.5094 -2.3444
  527TIP3   OH223071   2.014   5.715   0.112 -0.0145  0.3576  0.0852
  527TIP3    H123072   2.109   5.705   0.107  0.0164  0.5689  0.2467
  527TIP3    H223073   1.990   5.674   0.196 -0.4463 -2.5436 -1.3313
  528TIP3   OH223074   0.708   4.225  15.770 -0.1097 -0.4639 -0.0602
  528TIP3    H123075   0.647   4.221  15.697 -0.6978  2.8886  0.0887
  528TIP3    H223076   0.789   4.186  15.736 -1.2425 -1.7810 -1.4084
  529TIP3   OH223077   4.077   1.236   3.470 -0.1823 -0.2911  0.1770
  529TIP3    H123078   4.013   1.173   3.502 -1.4515  0.7187 -0.2832
  529TIP3    H223079   4.080   1.304   3.538  0.5019 -0.3937  0.2548
  530TIP3   OH223080   6.360   2.177  15.279  0.1839 -0.8562 -0.1092
  530TIP3    H123081   6.336   2.252  15.225 -1.3672 -0.9611  0.3870
  530TIP3    H223082   6.385   2.109  15.216  0.6550 -0.2462 -0.5911
  531TIP3   OH223083   2.393   2.760  16.578  0.6085  0.6449 -0.0461
  531TIP3    H123084   2.482   2.726  16.575 -0.3362 -2.3851  1.9038
  531TIP3    H223085   2.354   2.731  16.495  0.9383  0.4745 -0.1428
  532TIP3   OH223086   5.324   1.278  15.375  0.1901  0.4176 -0.3815
  532TIP3    H123087   5.345   1.191  15.341 -0.1668  0.0775  0.2339
  532TIP3    H223088   5.284   1.324  15.302  1.5551  0.5173 -1.0958
  533TIP3   OH223089   2.455   1.712   2.303 -0.7283 -0.3924  0.1747
  533TIP3    H123090   2.535   1.683   2.260 -1.4979 -2.5770  0.1447
  533TIP3    H223091   2.410   1.765   2.237  0.8798  1.3250  0.3642
  534TIP3   OH223092   1.541   1.830  14.628  0.2699 -0.2846 -0.9340
  534TIP3    H123093   1.552   1.774  14.705 -0.6303  0.9896  0.1850
  534TIP3    H223094   1.492   1.777  14.566  0.8743 -1.2870 -0.5693
  535TIP3   OH223095   2.905   5.470  16.904 -0.6197  0.2938  0.1269
  535TIP3    H123096   2.836   5.523  16.863  1.1497  1.9259 -0.9031
  535TIP3    H223097   2.981   5.527  16.907  1.0782 -1.8212  0.0603
  536TIP3   OH223098   5.120   6.640  11.886  0.3246 -0.5050  0.6585
  536TIP3    H123099   5.052   6.684  11.937  0.9991  1.5311 -0.0968
  536TIP3    H223100   5.200   6.651  11.937  0.9047  1.0880 -0.5260
  537TIP3   OH223101   5.142   6.746  13.661 -0.0156 -0.4690  0.3088
  537TIP3    H123102   5.072   6.686  13.686 -0.2060 -0.1457  0.5626
  537TIP3    H223103   5.125   6.825  13.713 -1.8907  1.1916 -2.6004
  538TIP3   OH223104   4.734   5.181   0.555 -0.5047  0.1690  0.2034
  538TIP3    H123105   4.690   5.159   0.637 -3.0797 -1.1835 -1.3940
  538TIP3    H223106   4.815   5.130   0.557 -0.2141  0.6264  2.1216
  539TIP3   OH223107   5.990   5.164   1.761 -0.8507  0.0976 -0.1683
  539TIP3    H123108   5.910   5.215   1.755 -1.8316 -1.3415  0.0512
  539TIP3    H223109   6.028   5.187   1.846 -2.4939 -1.1623  0.9717
  540TIP3   OH223110   1.652   2.157  12.059 -0.4782  0.6754 -0.5784
  540TIP3    H123111   1.694   2.178  11.976 -0.8772 -0.2573 -1.0293
  540TIP3    H223112   1.722   2.119  12.112 -0.7075 -0.9559 -1.3579
  541TIP3   OH223113   2.500   3.009   0.013 -0.5122 -0.0507 -0.5950
  541TIP3    H123114   2.534   2.971  -0.068 -0.3460  0.1703 -0.6269
  541TIP3    H223115   2.417   2.963   0.027 -0.6606  0.0884 -1.0212
  542TIP3   OH223116   3.805   2.002  11.936 -0.2046  0.0679  0.0986
  542TIP3    H123117   3.775   2.001  12.027  0.5181  1.6888  0.3792
  542TIP3    H223118   3.732   1.963  11.887 -0.2510 -1.6598  1.4256
  543TIP3   OH223119   5.331   5.820   5.965  0.0046  0.2258  0.0352
  543TIP3    H123120   5.238   5.815   5.947  0.0379 -2.3612  0.1643
  543TIP3    H223121   5.339   5.798   6.058  0.7612  0.1942 -0.0272
  544TIP3   OH223122   3.163   5.998   4.761  0.2763  0.4017 -0.3658
  544TIP3    H123123   3.222   5.947   4.706 -0.8481 -1.0154 -0.3155
  544TIP3    H223124   3.177   6.089   4.733  0.9147 -0.1120 -1.8251
  545TIP3   OH223125   2.462   1.041  11.564  0.4189 -0.1341  0.2028
  545TIP3    H123126   2.448   1.095  11.642  2.9604  1.0114 -0.0629
  545TIP3    H223127   2.452   1.101  11.491 -1.7629 -1.1710 -0.4447
  546TIP3   OH223128   5.624   4.077   3.392 -0.7499  0.0695  0.2763
  546TIP3    H123129   5.607   4.032   3.475 -0.8304  1.3099  0.9612
  546TIP3    H223130   5.687   4.145   3.415  2.0583 -1.7681 -1.3972
  547TIP3   OH223131   1.815   0.155  11.482 -0.0359 -0.0038  0.2600
  547TIP3    H123132   1.877   0.104  11.430 -1.1954  0.2847 -1.5103
  547TIP3    H223133   1.804   0.105  11.563  0.8624 -1.1485 -0.2994
  548TIP3   OH223134   6.295   6.805  16.942 -0.1976 -0.1538 -0.7370
  548TIP3    H123135   6.315   6.809  17.036  0.3291  2.6966 -0.8595
  548TIP3    H223136   6.329   6.721  16.913 -0.0625 -0.9419  1.5618
  549TIP3   OH223137   1.751   0.607   5.326 -0.4912  0.0469  0.3678
  549TIP3    H123138   1.747   0.573   5.415 -1.9386 -1.3192 -0.1854
  549TIP3    H223139   1.660   0.607   5.295  0.0486 -0.2493 -1.3736
  550TIP3   OH223140   4.809   2.975  15.692  0.6405  0.2113  0.2414
  550TIP3    H123141   4.780   3.066  15.696  0.4363  0.1869 -0.5879
  550TIP3    H223142   4.810   2.946  15.784  0.5738  1.0015  0.4979
  551TIP3   OH223143   6.389   2.029  11.951  0.2802 -0.3050  0.1203
  551TIP3    H123144   6.420   2.120  11.944  1.7601 -0.7782  0.1974
  551TIP3    H223145   6.429   1.984  11.877  1.9740 -1.5149  1.6759
  552TIP3   OH223146   4.746   1.237   1.085 -0.2787  0.4991  0.3795
  552TIP3    H123147   4.755   1.179   1.160  1.8172 -0.1875 -0.3486
  552TIP3    H223148   4.808   1.308   1.101 -0.6832  0.9869 -0.1535
  553TIP3   OH223149   3.340   1.666   2.763 -0.5307 -0.7664 -0.4935
  553TIP3    H123150   3.362   1.626   2.847  1.2383 -0.0647 -0.5881
  553TIP3    H223151   3.298   1.748   2.786 -0.9913 -1.0510 -0.3059
  554TIP3   OH223152   3.740   4.718   3.085  0.0443  0.1581 -0.2097
  554TIP3    H123153   3.653   4.687   3.107 -0.3100 -0.8379 -2.6507
  554TIP3    H223154   3.725   4.802   3.041  0.1852 -0.4697 -1.4999
  555TIP3   OH223155   4.997   3.173  14.576  0.3529 -0.2374  0.4402
  555TIP3    H123156   5.002   3.255  14.527  0.3787 -0.0955  0.6801
  555TIP3    H223157   5.084   3.161  14.613 -0.2771  0.8807  2.4257
  556TIP3   OH223158   0.342   4.608   1.337 -0.3411 -0.1789  0.3712
  556TIP3    H123159   0.365   4.523   1.300 -1.6155  0.3914 -1.9155
  556TIP3    H223160   0.367   4.671   1.269 -0.5710  1.1713  1.4946
  557TIP3   OH223161   0.114   4.870   3.687 -0.3879  0.1220  0.2953
  557TIP3    H123162   0.030   4.913   3.704 -0.0971  0.3361  1.2608
  557TIP3    H223163   0.174   4.907   3.752  0.6976  0.6322 -0.9495
  558TIP3   OH223164   2.149   1.422  17.181  0.7428  0.0717  0.2933
  558TIP3    H123165   2.121   1.506  17.146  1.0877  0.3476  0.6683
  558TIP3    H223166   2.094   1.358  17.136  0.3230  0.5110  0.1702
  559TIP3   OH223167   3.273   3.966   0.587  0.1968 -0.2157  0.0422
  559TIP3    H123168   3.276   3.949   0.681  0.1125  1.0548  0.2858
  559TIP3    H223169   3.326   3.896   0.548 -0.2941 -1.1301  0.9668
  560TIP3   OH223170   2.776   2.074  14.207 -0.1805  0.4094  0.2461
  560TIP3    H123171   2.690   2.098  14.173  0.3550  0.4317 -1.1740
  560TIP3    H223172   2.765   2.074  14.302 -1.6770  0.6416  0.1016
  561TIP3   OH223173   2.332   6.507   0.613  0.4123 -0.0960 -0.3290
  561TIP3    H123174   2.412   6.457   0.629 -0.7872 -1.5881  1.5254
  561TIP3    H223175   2.344   6.588   0.662  0.1467 -1.0698  1.4411
  562TIP3   OH223176   1.230   3.813   0.385  0.2046  0.4020  0.4593
  562TIP3    H123177   1.316   3.790   0.419  0.5223  0.9194 -0.0002
  562TIP3    H223178   1.184   3.729   0.379  1.3529 -0.1504 -1.1767
  563TIP3   OH223179   6.625   2.793   1.040  0.0848 -0.5140 -0.4844
  563TIP3    H123180   6.621   2.741   1.120  0.4009 -0.7228 -0.6030
  563TIP3    H223181   6.708   2.770   1.000 -1.1611 -2.3562 -2.1923
  564TIP3   OH223182   0.768   2.293  10.874 -0.5166 -0.4743  0.1466
  564TIP3    H123183   0.825   2.270  10.800 -3.0225 -0.5009 -1.9265
  564TIP3    H223184   0.714   2.365  10.841 -0.2592  1.0281  2.7728
  565TIP3   OH223185   5.454   3.952   4.529 -0.3305  0.8131 -0.4761
  565TIP3    H123186   5.499   4.015   4.472 -1.9804  1.1723 -1.4498
  565TIP3    H223187   5.363   3.982   4.529 -1.0338 -1.2283 -0.4611
  566TIP3   OH223188   5.942   1.907   0.825  0.3667  0.2567 -0.2657
  566TIP3    H123189   5.880   1.874   0.890 -0.8784 -0.6703 -1.8489
  566TIP3    H223190   5.995   1.831   0.800  0.5900  0.5125 -0.5847
  567TIP3   OH223191   3.665   1.973  12.575 -0.5598 -0.0652  0.3025
  567TIP3    H123192   3.712   1.906  12.624  0.0312  0.7590  0.8908
  567TIP3    H223193   3.654   2.045  12.637 -2.9081 -0.3404  0.2944
  568TIP3   OH223194   6.016   2.066  11.583  0.7752 -0.0854 -0.1626
  568TIP3    H123195   5.973   2.132  11.638  0.2202 -0.1494 -0.5099
  568TIP3    H223196   6.011   2.103  11.495 -0.5611 -1.1095 -0.5304
  569TIP3   OH223197   5.763   6.533   3.041  0.1533  0.2602 -0.0251
  569TIP3    H123198   5.728   6.557   3.128 -2.4346 -1.8268 -0.3415
  569TIP3    H223199   5.812   6.453   3.057 -0.2441 -0.0712 -0.4453
  570TIP3   OH223200   4.728   0.318  15.358  0.5097 -0.2677 -0.1216
  570TIP3    H123201   4.694   0.371  15.286 -0.8722 -0.6196  0.2361
  570TIP3    H223202   4.736   0.379  15.431  2.8418  0.3050 -0.7906
  571TIP3   OH223203   5.191   6.543   4.686  0.6093 -1.2008  0.0637
  571TIP3    H123204   5.123   6.479   4.707  1.4775 -2.5491 -1.0944
  571TIP3    H223205   5.229   6.513   4.604  0.5434  1.2379 -0.9526
  572TIP3   OH223206   6.373   4.045  15.687 -0.2211  0.4484  0.4873
  572TIP3    H123207   6.280   4.045  15.711 -0.2747  1.5380  0.3608
  572TIP3    H223208   6.411   3.973  15.736 -1.4997 -1.3175 -0.9821
  573TIP3   OH223209   0.576   5.487   4.459 -0.0211  0.2426  0.2922
  573TIP3    H123210   0.535   5.539   4.390 -0.2339  0.1907  0.3787
  573TIP3    H223211   0.663   5.465   4.424 -0.3210 -0.2157 -0.1686
  574TIP3   OH223212   3.061   2.908   0.564  0.3818  0.3342 -0.6335
  574TIP3    H123213   3.019   2.963   0.499  0.3922  1.4522  0.2736
  574TIP3    H223214   3.048   2.818   0.532  2.1266  0.8824 -3.2154
  575TIP3   OH223215   5.807   2.372   4.081 -0.0362  0.1192  0.2217
  575TIP3    H123216   5.896   2.376   4.118  0.5234 -1.4025 -0.8736
  575TIP3    H223217   5.795   2.457   4.039 -0.8993  2.1921  4.0944
  576TIP3   OH223218   0.817   1.583   0.610  0.0591  0.1112  0.0048
  576TIP3    H123219   0.775   1.616   0.531 -0.4174  0.9429  0.5912
  576TIP3    H223220   0.890   1.644   0.625 -1.6198  1.8221  1.8437
  577TIP3   OH223221   5.551   5.248  11.381 -0.2730 -0.0610 -0.4651
  577TIP3    H123222   5.633   5.249  11.430 -1.2235  0.7580  1.2181
  577TIP3    H223223   5.512   5.163  11.401  0.0987 -0.4224 -1.2116
  578TIP3   OH223224   0.538   6.766   5.227  0.4671  0.3574 -0.1000
  578TIP3    H123225   0.619   6.786   5.274 -0.0924 -0.1384  1.1333
  578TIP3    H223226   0.484   6.721   5.292 -0.2929 -0.4865 -1.2858
  579TIP3   OH223227   5.628   2.973  12.076  0.5177 -0.4572 -0.0041
  579TIP3    H123228   5.585   3.019  12.147  2.8990  0.2275  1.0878
  579TIP3    H223229   5.716   3.010  12.072  0.8581 -1.2896 -2.5652
  580TIP3   OH223230   6.513   5.547   4.389 -0.2643  0.0373  0.2932
  580TIP3    H123231   6.458   5.477   4.355  0.2116 -0.1747 -0.0562
  580TIP3    H223232   6.507   5.616   4.323  1.1240 -0.6007 -0.5626
  581TIP3   OH223233   2.083   2.532   4.139 -0.1280  0.1691  0.4830
  581TIP3    H123234   2.120   2.449   4.110  1.0359 -0.1584  2.6504
  581TIP3    H223235   2.013   2.508   4.200 -0.3524  0.7838  0.4797
  582TIP3   OH223236   4.185   4.313  13.557 -0.3928 -0.3572 -0.1618
  582TIP3    H123237   4.201   4.364  13.477 -2.5818 -1.4054 -1.3468
  582TIP3    H223238   4.113   4.358  13.601 -3.5191 -3.0771 -2.0580
  583TIP3   OH223239   1.139   3.791   4.922  0.2645  0.1836 -1.0559
  583TIP3    H123240   1.150   3.827   5.010 -0.0364 -0.6200 -0.6760
  583TIP3    H223241   1.221   3.810   4.877  1.2383 -1.1535  0.0516
  584TIP3   OH223242   6.269   0.117  12.212 -0.3252  0.5403  0.6008
  584TIP3    H123243   6.181   0.120  12.175 -0.3320  1.0961  0.6572
  584TIP3    H223244   6.327   0.133  12.137 -0.2977  0.6980  0.6548
  585TIP3   OH223245   0.850   2.913  16.802  0.3587 -0.6275  0.2054
  585TIP3    H123246   0.934   2.928  16.758 -0.1836  2.6166  0.0385
  585TIP3    H223247   0.843   2.986  16.865 -2.0579 -1.1653  0.6538
  586TIP3   OH223248   3.532   0.355   3.062  0.5034 -0.3692  0.4131
  586TIP3    H123249   3.593   0.373   2.990 -0.6219 -0.5364 -0.6091
  586TIP3    H223250   3.545   0.262   3.081  1.0237 -0.2531  0.6547
  587TIP3   OH223251   5.342   3.981   3.290 -0.2027  0.2807 -0.5735
  587TIP3    H123252   5.322   3.892   3.321 -0.8775  0.0757 -1.5725
  587TIP3    H223253   5.438   3.985   3.292 -0.2014  0.0625  0.9190
  588TIP3   OH223254   1.406   0.823   3.784 -0.2625 -0.5894  0.0775
  588TIP3    H123255   1.387   0.854   3.696 -0.5828 -0.6333  0.1314
  588TIP3    H223256   1.432   0.902   3.832 -1.1490 -0.3872  0.2344
  589TIP3   OH223257   1.259   6.640  11.921  0.0355 -0.4777 -0.0483
  589TIP3    H123258   1.259   6.548  11.894  0.8798 -0.3969 -0.3512
  589TIP3    H223259   1.174   6.652  11.965 -0.5383 -1.1116 -0.9486
  590TIP3   OH223260   1.841   4.526  15.755  0.2416 -0.0495 -0.4686
  590TIP3    H123261   1.894   4.537  15.676 -0.1060  0.8798 -0.5866
  590TIP3    H223262   1.904   4.508  15.824  0.4040 -4.6121 -1.4925
  591TIP3   OH223263   2.533   6.146  12.467  0.1587  0.2761 -0.1991
  591TIP3    H123264   2.504   6.179  12.552 -1.1757  0.1000 -0.5594
  591TIP3    H223265   2.513   6.216  12.405 -1.1044 -0.4942 -0.7064
  592TIP3   OH223266   4.679   4.264  14.165  0.2813  0.7867  0.1594
  592TIP3    H123267   4.620   4.247  14.091  1.8633 -0.2175 -0.9598
  592TIP3    H223268   4.695   4.358  14.161  0.7351  0.6889 -1.1616
  593TIP3   OH223269   1.804   3.045  14.924  0.4614 -0.1964  0.1341
  593TIP3    H123270   1.799   3.078  14.835  2.5180 -0.1414 -0.0008
  593TIP3    H223271   1.847   3.115  14.973 -1.0533 -0.0272  1.3125
  594TIP3   OH223272   1.044   2.651  13.183 -0.0211 -0.0718  0.0744
  594TIP3    H123273   1.129   2.608  13.195 -0.5845 -1.1028  0.5482
  594TIP3    H223274   0.982   2.578  13.176 -0.8882  0.6718 -0.0486
  595TIP3   OH223275   1.619   4.330   0.806 -0.1398  0.0758 -0.0438
  595TIP3    H123276   1.661   4.244   0.815 -0.1793 -0.1513 -1.7316
  595TIP3    H223277   1.564   4.338   0.884  0.6910 -0.9530  0.6796
  596TIP3   OH223278   6.378   2.684   6.193 -0.2927 -0.3646 -0.9104
  596TIP3    H123279   6.372   2.735   6.112 -0.8536 -0.7109 -1.0913
  596TIP3    H223280   6.412   2.599   6.164 -0.7257 -0.5691 -0.8182
  597TIP3   OH223281   1.827   0.295  14.618 -0.7070  0.1114 -0.3075
  597TIP3    H123282   1.771   0.299  14.696  0.7607  0.8368  0.7525
  597TIP3    H223283   1.781   0.235  14.559 -1.8612 -0.4631  1.1120
  598TIP3   OH223284   4.083   1.618  15.157 -0.0962 -0.1618  0.5045
  598TIP3    H123285   4.059   1.543  15.102  1.7664  0.7020 -1.6540
  598TIP3    H223286   4.052   1.694  15.109  1.0318  0.5904  0.9375
  599TIP3   OH223287   5.499   5.321  11.855 -0.2118  0.6220 -0.0364
  599TIP3    H123288   5.568   5.352  11.795 -1.9189 -0.5368 -2.8018
  599TIP3    H223289   5.491   5.391  11.920  1.9286  1.8741 -1.0034
  600TIP3   OH223290   5.468   4.936   2.214 -0.5171  0.3292  0.1036
  600TIP3    H123291   5.506   5.021   2.192 -1.5521  0.8763  0.3870
  600TIP3    H223292   5.375   4.954   2.228 -0.9370 -1.0055 -0.7750
  601TIP3   OH223293   3.826   6.635   2.349 -0.2628 -0.7770 -0.2352
  601TIP3    H123294   3.794   6.634   2.439 -0.7591  0.8483 -0.3671
  601TIP3    H223295   3.761   6.584   2.299 -1.6628  0.8795 -0.1744
  602TIP3   OH223296   0.977   4.805  13.225 -0.0399 -0.3803  0.0296
  602TIP3    H123297   0.942   4.731  13.275  0.3897 -0.1881  0.6279
  602TIP3    H223298   0.900   4.856  13.200 -0.2213 -0.1900  0.9622
  603TIP3   OH223299   2.707   4.477   0.145 -0.1382  0.0127  0.1996
  603TIP3    H123300   2.776   4.450   0.205  1.3332 -0.1376 -1.4639
  603TIP3    H223301   2.631   4.492   0.200  0.5699 -2.0269  1.8664
  604TIP3   OH223302   4.719   4.045   2.379  0.3091  0.2251  0.3532
  604TIP3    H123303   4.731   3.959   2.418  0.6962  0.4204  0.6789
  604TIP3    H223304   4.798   4.094   2.404  0.8232  0.1886 -1.1312
  605TIP3   OH223305   1.509   5.206  15.542 -0.1374 -0.3235 -0.2155
  605TIP3    H123306   1.490   5.245  15.456 -2.3124 -0.7104  0.0351
  605TIP3    H223307   1.551   5.277  15.591  1.6653 -0.2713 -1.7455
  606TIP3   OH223308   0.425   5.819   3.590 -0.6318 -0.0844  0.4433
  606TIP3    H123309   0.387   5.785   3.508  1.0671 -0.3067 -0.2967
  606TIP3    H223310   0.494   5.756   3.612  0.0870  0.9083  1.0968
  607TIP3   OH223311   1.069   1.390   4.369 -0.1923  0.3658  0.0827
  607TIP3    H123312   1.154   1.359   4.337  0.7031  2.9779 -0.3100
  607TIP3    H223313   1.074   1.378   4.464  0.9210  1.1239  0.1384
  608TIP3   OH223314   3.338   0.789  12.486 -0.6286 -0.1802 -0.2903
  608TIP3    H123315   3.252   0.832  12.483 -0.4731  0.1194 -0.5295
  608TIP3    H223316   3.398   0.854  12.450 -0.3714 -0.5581 -0.5514
  609TIP3   OH223317   2.395   2.909   6.126 -0.2370  0.5802 -0.0041
  609TIP3    H123318   2.409   2.890   6.033 -0.9455 -0.2017  0.0443
  609TIP3    H223319   2.333   2.843   6.156 -0.7418  1.3916  0.8068
  610TIP3   OH223320   0.038   3.111  12.945 -0.0684 -0.2534  0.1727
  610TIP3    H123321   0.104   3.083  13.008 -0.3165 -0.5862  0.2839
  610TIP3    H223322  -0.031   3.150  12.998 -0.5295 -1.0339  0.1469
  611TIP3   OH223323   5.399   5.444  11.532  0.5848  0.0664 -0.5379
  611TIP3    H123324   5.461   5.424  11.602  0.4451  1.7665  0.1048
  611TIP3    H223325   5.423   5.384  11.461  1.7300 -0.6101  0.3903
  612TIP3   OH223326   5.907   6.162   5.579  0.0811 -0.0748 -0.1796
  612TIP3    H123327   5.824   6.197   5.609 -0.5345 -1.0855 -0.6559
  612TIP3    H223328   5.973   6.222   5.614 -0.8574  0.9013 -0.0447
  613TIP3   OH223329   0.191   6.463  14.429 -0.2236 -0.0782  0.0326
  613TIP3    H123330   0.286   6.466  14.439 -0.1906  0.8768 -0.5173
  613TIP3    H223331   0.159   6.427  14.512  0.7692 -2.9980 -0.7218
  614TIP3   OH223332   5.153   6.420   5.080 -0.0879 -0.0579  0.0936
  614TIP3    H123333   5.175   6.391   4.992  0.8652  1.1540 -0.0903
  614TIP3    H223334   5.200   6.358   5.137  3.6788  2.1081 -0.2906
  615TIP3   OH223335   4.137   4.314  15.361 -0.3358  0.2634 -0.6472
  615TIP3    H123336   4.232   4.324  15.359 -0.2623 -0.2808 -0.1780
  615TIP3    H223337   4.105   4.401  15.384  0.1037  0.2677  0.0080
  616TIP3   OH223338   5.464   3.690   4.416  0.3388 -0.4353 -0.3283
  616TIP3    H123339   5.471   3.777   4.455 -0.4105 -0.7722  0.6071
  616TIP3    H223340   5.373   3.685   4.385  0.7614 -0.3815 -1.6715
  617TIP3   OH223341   4.952   5.879  16.099  0.5769  0.5530  0.1225
  617TIP3    H123342   5.010   5.948  16.129 -0.5716  1.7164 -0.2232
  617TIP3    H223343   4.935   5.900  16.007  0.3514 -0.2997 -0.0430
  618TIP3   OH223344   1.742   1.306   6.505 -0.4480  0.4430 -0.5183
  618TIP3    H123345   1.738   1.250   6.584  3.5940  1.7782  0.8800
  618TIP3    H223346   1.678   1.375   6.522  0.1456  0.5685  1.6014
  619TIP3   OH223347   5.493   1.795  16.832 -0.1131 -0.4516  0.6595
  619TIP3    H123348   5.504   1.851  16.754 -1.2244  1.9516  2.1034
  619TIP3    H223349   5.528   1.710  16.805 -0.2557  0.3166 -2.3871
  620TIP3   OH223350   3.938   2.248   5.506 -0.0214  0.2702 -0.3607
  620TIP3    H123351   3.888   2.167   5.499  0.7667 -0.1513 -1.2901
  620TIP3    H223352   3.879   2.309   5.550 -0.2702 -1.0962  1.3003
  621TIP3   OH223353   3.670   4.136   5.050 -0.4499 -0.2762  0.1510
  621TIP3    H123354   3.692   4.226   5.073  1.2650 -0.8743  1.0910
  621TIP3    H223355   3.725   4.116   4.974 -0.7406 -0.5497  0.0092
  622TIP3   OH223356   5.132   6.054  11.619 -0.4795 -0.3032  0.0438
  622TIP3    H123357   5.185   6.040  11.698  0.1606  0.6471 -0.2075
  622TIP3    H223358   5.096   6.142  11.629  1.7907  0.9696 -1.9270
  623TIP3   OH223359   5.685   4.997   0.867  0.0807 -0.2109 -0.2295
  623TIP3    H123360   5.595   4.999   0.899 -0.3314 -0.6474 -1.3429
  623TIP3    H223361   5.719   5.085   0.886 -0.6607  0.0420 -0.0484
  624TIP3   OH223362   1.419   3.088   4.499  0.0099 -0.0275  0.0515
  624TIP3    H123363   1.477   3.160   4.523  1.4206 -0.9130 -0.5113
  624TIP3    H223364   1.474   3.031   4.444 -1.2364 -1.2019 -0.0298
  625TIP3   OH223365   3.975   6.451  10.711  0.2063  0.1180 -0.0145
  625TIP3    H123366   4.002   6.389  10.644  2.2241  1.4070 -0.5065
  625TIP3    H223367   4.024   6.426  10.789 -1.3836 -0.7760  0.7442
  626TIP3   OH223368   6.040   6.284   3.295  0.0297  0.1925  0.0755
  626TIP3    H123369   6.135   6.280   3.298  0.1281 -1.3180 -2.4486
  626TIP3    H223370   6.014   6.297   3.386  2.6450  2.4141  0.6454
  627TIP3   OH223371   1.544   0.408  13.372  0.0054  0.4783  0.0452
  627TIP3    H123372   1.616   0.433  13.430 -0.8008  0.0641  1.2506
  627TIP3    H223373   1.478   0.476  13.383 -0.9180 -0.5231  1.0541
  628TIP3   OH223374   0.211   0.425  16.130  0.2300  0.2632 -0.5548
  628TIP3    H123375   0.271   0.470  16.071 -0.4772  0.4775 -1.1148
  628TIP3    H223376   0.143   0.389  16.074 -0.8855  1.1406  0.1858
  629TIP3   OH223377   1.008   2.005  16.130 -0.5938  0.0644  0.0052
  629TIP3    H123378   0.926   1.971  16.164 -0.2015 -2.2299 -1.1805
  629TIP3    H223379   1.037   1.940  16.067  1.5601  1.3941 -0.4796
  630TIP3   OH223380   3.416   0.627   5.041  0.3153  0.3637  0.0039
  630TIP3    H123381   3.367   0.661   4.966  2.0941  2.5789 -0.2852
  630TIP3    H223382   3.350   0.611   5.108 -1.2032 -0.6395 -1.6355
  631TIP3   OH223383   5.270   3.318  13.556 -0.2109 -0.1701 -0.1784
  631TIP3    H123384   5.233   3.379  13.620 -2.0223  0.2775 -1.5899
  631TIP3    H223385   5.333   3.371  13.507  2.7982 -0.9900  2.3765
  632TIP3   OH223386   0.523   2.075  15.450 -0.9005  0.3970 -0.5186
  632TIP3    H123387   0.511   2.087  15.544 -0.8311 -1.0048 -0.3095
  632TIP3    H223388   0.475   1.995  15.430  4.2970 -3.2337 -0.3962
  633TIP3   OH223389   4.511   1.984   5.535  0.7310 -0.5309 -0.4015
  633TIP3    H123390   4.517   2.002   5.629  2.0972 -0.9312 -0.3986
  633TIP3    H223391   4.434   1.927   5.527 -0.0417  0.3641  0.3173
  634TIP3   OH223392   0.021   0.988  14.052 -0.4673  0.2529  0.4781
  634TIP3    H123393   0.076   0.917  14.087 -0.3550  0.5622  0.9437
  634TIP3    H223394   0.066   1.015  13.972  0.0944  0.5435  0.8901
  635TIP3   OH223395   0.630   2.577   4.278  0.1937 -0.0874  0.1725
  635TIP3    H123396   0.686   2.503   4.254  1.5328  0.7155  0.6623
  635TIP3    H223397   0.543   2.539   4.291  0.2800 -1.1585 -2.0252
  636TIP3   OH223398   1.435   0.865   4.594 -0.4810  0.3775 -0.6139
  636TIP3    H123399   1.425   0.790   4.652 -1.0618  1.6718  1.0327
  636TIP3    H223400   1.450   0.826   4.507 -1.3037 -1.6187  0.0800
  637TIP3   OH223401   5.544   4.659  16.088  0.2289 -0.5822  0.3590
  637TIP3    H123402   5.639   4.667  16.076  0.0039  0.6337 -0.8987
  637TIP3    H223403   5.522   4.573  16.053  0.8392 -0.7878  0.4689
  638TIP3   OH223404   4.156   0.576  12.022  0.1380  0.3989  0.3083
  638TIP3    H123405   4.164   0.528  11.939 -1.9974 -0.7740  0.7107
  638TIP3    H223406   4.100   0.651  12.000 -0.0187  0.3601  0.5792
  639TIP3   OH223407   1.073   1.717  16.382  0.1601  0.0216 -0.0217
  639TIP3    H123408   1.135   1.694  16.312  0.4234  1.3903 -0.2562
  639TIP3    H223409   1.101   1.803  16.411 -1.9539  0.9183 -0.4822
  640TIP3   OH223410   3.901   2.129  13.598 -0.6869  0.0547 -0.3828
  640TIP3    H123411   3.907   2.220  13.570  1.0008  0.4322  0.9948
  640TIP3    H223412   3.876   2.133  13.691  2.0808 -0.6565  0.5022
  641TIP3   OH223413   0.558   2.511  16.546  0.3867  0.5242  0.0639
  641TIP3    H123414   0.545   2.417  16.530 -1.0042  0.5216  1.0548
  641TIP3    H223415   0.498   2.532  16.618  2.0529  1.7788  1.1692
  642TIP3   OH223416   1.613   5.632  15.179 -0.0071  0.2218 -0.3351
  642TIP3    H123417   1.561   5.560  15.215 -0.3916  0.7962  0.2853
  642TIP3    H223418   1.550   5.701  15.162  0.4127  0.5466 -0.5811
  643TIP3   OH223419   6.514   5.036  11.688 -0.1200  0.1258 -0.5174
  643TIP3    H123420   6.545   5.046  11.598  0.7756 -0.4076 -0.2756
  643TIP3    H223421   6.563   5.102  11.737  1.8306 -1.7125  0.1324
  644TIP3   OH223422   0.751   1.035  16.018  0.5712  0.7398 -0.3715
  644TIP3    H123423   0.806   0.998  15.950  1.5075  0.2699  0.6097
  644TIP3    H223424   0.801   1.108  16.054  0.9685 -0.1927  1.0791
  645TIP3   OH223425   4.550   5.912  12.808  0.2210  0.6148  0.2888
  645TIP3    H123426   4.560   5.995  12.761  1.8247 -0.6934 -1.8544
  645TIP3    H223427   4.636   5.893  12.845  0.9917 -1.7637 -2.3735
  646TIP3   OH223428   4.880   3.729   0.832  0.4345 -0.1433 -0.2159
  646TIP3    H123429   4.885   3.712   0.738 -0.0005  1.2281 -0.5145
  646TIP3    H223430   4.968   3.711   0.864  0.7045 -0.1969 -0.9698
  647TIP3   OH223431   1.075   0.704  12.814 -0.4019  0.2560 -0.0474
  647TIP3    H123432   1.149   0.675  12.760  0.8967  1.0335  1.2324
  647TIP3    H223433   1.071   0.640  12.886 -0.0318  1.0109  0.6621
  648TIP3   OH223434   5.512   5.807  16.017  0.1374  0.2458  0.7259
  648TIP3    H123435   5.581   5.741  16.010 -0.1679  0.0613 -1.6932
  648TIP3    H223436   5.544   5.881  15.966 -1.2746  0.2575 -0.2223
  649TIP3   OH223437   2.955   6.073  11.306 -0.1060  0.2939  0.1419
  649TIP3    H123438   2.894   6.028  11.246  0.6746  0.6074 -0.9211
  649TIP3    H223439   2.914   6.158  11.323 -0.0752  0.4272 -0.4176
  650TIP3   OH223440   1.702   6.317   0.646 -0.2561 -0.2097 -0.1724
  650TIP3    H123441   1.649   6.330   0.567 -0.1776 -0.3536 -0.2490
  650TIP3    H223442   1.683   6.227   0.673  0.0737 -0.3159 -0.2913
  651TIP3   OH223443   0.239   5.193   4.959  0.0344 -0.8313 -0.3547
  651TIP3    H123444   0.290   5.119   4.991 -0.3160 -0.4488  1.1588
  651TIP3    H223445   0.286   5.223   4.881  1.1218 -1.5894 -0.0074
  652TIP3   OH223446   5.567   6.388  16.819 -0.2582 -0.4628  0.1765
  652TIP3    H123447   5.650   6.402  16.775 -0.7599  1.6790 -0.1976
  652TIP3    H223448   5.514   6.465  16.796 -1.9289 -1.1971  1.3362
  653TIP3   OH223449   1.360   5.778  11.856 -0.0509 -0.5392 -0.5514
  653TIP3    H123450   1.360   5.734  11.771  0.7340 -2.7132  0.5139
  653TIP3    H223451   1.269   5.775  11.886 -0.2890  0.0376 -1.1978
  654TIP3   OH223452   1.515   1.729  11.124  0.2278  0.0767  0.2473
  654TIP3    H123453   1.523   1.790  11.050  2.3328 -0.1503  0.2317
  654TIP3    H223454   1.504   1.643  11.083  0.4429  0.0650  0.2137
  655TIP3   OH223455   6.584   1.249   4.551 -0.1756  0.3590 -0.2574
  655TIP3    H123456   6.633   1.330   4.566  0.7379 -0.0141 -1.1146
  655TIP3    H223457   6.541   1.263   4.466  1.0908 -0.5643 -1.0736
  656TIP3   OH223458   3.616   1.681   3.106 -0.2200  0.2188  0.7286
  656TIP3    H123459   3.698   1.721   3.077 -0.2376 -0.5870 -0.5120
  656TIP3    H223460   3.560   1.755   3.131  0.2879  0.8800 -0.0430
  657TIP3   OH223461   3.745   6.788   5.885  0.4172 -0.1965 -0.2212
  657TIP3    H123462   3.829   6.743   5.876  1.3204  1.6545 -1.5369
  657TIP3    H223463   3.767   6.873   5.923 -1.1432 -0.4008  1.2763
  658TIP3   OH223464   2.554   6.590  11.022  0.3124  0.1802 -0.1024
  658TIP3    H123465   2.628   6.600  11.081  0.2624  0.4806 -0.0869
  658TIP3    H223466   2.493   6.534  11.069 -0.9365  2.5658  1.3123
  659TIP3   OH223467   6.040   6.026   2.171  0.1060 -0.0955 -0.2856
  659TIP3    H123468   6.051   5.960   2.103 -0.4133 -0.8324  0.3206
  659TIP3    H223469   6.126   6.032   2.213  0.8006  1.3198 -1.8157
  660TIP3   OH223470   3.775   6.809  15.279  0.4301 -0.2624  0.1040
  660TIP3    H123471   3.832   6.848  15.213  2.5989 -1.2460  1.2673
  660TIP3    H223472   3.738   6.732  15.237  1.2419 -0.4920 -0.2217
  661TIP3   OH223473   4.791   2.320  14.362 -0.1430 -0.1269  0.1161
  661TIP3    H123474   4.762   2.411  14.365 -0.7717 -0.3038 -0.3026
  661TIP3    H223475   4.871   2.322  14.310 -0.5555  0.0966 -0.5327
  662TIP3   OH223476   3.784   0.897   0.130 -0.0975 -0.1993  0.1699
  662TIP3    H123477   3.801   0.812   0.172 -1.4609 -0.9970 -0.7971
  662TIP3    H223478   3.854   0.954   0.162  1.3316 -1.8912  0.2407
  663TIP3   OH223479   2.442   3.839  12.416  0.2419  0.0574  0.5158
  663TIP3    H123480   2.482   3.838  12.329 -0.9037 -0.0499 -0.0295
  663TIP3    H223481   2.447   3.748  12.446  0.7499  0.1181  0.6222
  664TIP3   OH223482   4.502   1.814   2.038 -0.1650  0.3235 -0.0515
  664TIP3    H123483   4.557   1.779   2.108  2.5139 -0.7651 -2.4997
  664TIP3    H223484   4.412   1.798   2.068  0.8235  0.4791  3.3292
  665TIP3   OH223485   4.695   1.505  13.052 -0.4377 -0.1968 -0.1641
  665TIP3    H123486   4.731   1.495  12.964  0.2199  0.7645 -0.0232
  665TIP3    H223487   4.762   1.467  13.110 -0.7836 -0.6563 -0.0561
  666TIP3   OH223488   4.890   2.661  12.100 -0.3840  0.0012  0.5207
  666TIP3    H123489   4.881   2.582  12.047 -1.3395  0.7196 -0.4362
  666TIP3    H223490   4.808   2.667  12.148 -0.0213  0.0328  1.1437
  667TIP3   OH223491   2.262   5.593   0.973  0.9547 -0.5530  0.5348
  667TIP3    H123492   2.323   5.579   0.901  0.0831 -1.8798  0.0129
  667TIP3    H223493   2.176   5.598   0.932  0.6884  1.6484  1.2256
  668TIP3   OH223494   2.823   6.437   1.067  0.2424  0.3179 -0.1775
  668TIP3    H123495   2.897   6.493   1.086  1.1564 -1.2777  1.2256
  668TIP3    H223496   2.862   6.354   1.037 -0.9946 -0.2076 -0.4153
  669TIP3   OH223497   4.495   0.873  13.716  0.0274 -0.4175  0.2354
  669TIP3    H123498   4.421   0.871  13.777 -0.2661  0.9772 -0.0324
  669TIP3    H223499   4.533   0.960  13.727  0.5866 -0.5042 -0.8493
  670TIP3   OH223500   5.852   3.751  11.740  0.5337 -0.1352  0.1690
  670TIP3    H123501   5.900   3.668  11.740  2.2893  0.8309 -0.2899
  670TIP3    H223502   5.802   3.749  11.821 -1.4959 -2.7221 -1.0004
  671TIP3   OH223503   3.619   1.342   5.409  0.4022  0.1005  0.2083
  671TIP3    H123504   3.680   1.411   5.384  0.2358  0.1880  0.0354
  671TIP3    H223505   3.566   1.381   5.478 -2.0628  1.4450 -2.2410
  672TIP3   OH223506   1.226   3.945  16.442 -0.5257 -0.6289 -0.4704
  672TIP3    H123507   1.227   3.994  16.524  0.8362  0.7495 -1.2515
  672TIP3    H223508   1.159   3.988  16.388  0.6002  0.3508 -1.1206
  673TIP3   OH223509   6.285   4.865  15.742 -0.3696 -0.4516 -0.5159
  673TIP3    H123510   6.287   4.828  15.830  2.2080 -0.8652 -0.6780
  673TIP3    H223511   6.312   4.956  15.753  0.2366 -0.5789 -0.8904
  674TIP3   OH223512   6.205   2.886   0.362  0.1684 -0.3134  0.2226
  674TIP3    H123513   6.182   2.964   0.311 -1.0083 -0.9086 -0.1849
  674TIP3    H223514   6.123   2.838   0.371  0.9085 -1.6016  0.3212
  675TIP3   OH223515   0.025   1.281   2.433  0.6444  0.0227 -0.3472
  675TIP3    H123516  -0.026   1.349   2.387 -0.9186  0.0993  1.3598
  675TIP3    H223517   0.105   1.272   2.381  1.0009  3.2810 -0.6034
  676TIP3   OH223518   4.880   5.345  16.423 -0.2227 -0.2560 -0.6608
  676TIP3    H123519   4.789   5.349  16.396 -0.5654  1.2810  0.6055
  676TIP3    H223520   4.880   5.290  16.501  0.1240 -1.1499 -1.2689
  677TIP3   OH223521   5.980   1.960  14.032  0.1905  0.2618 -0.0289
  677TIP3    H123522   5.898   1.929  14.072  0.3304 -0.7161 -0.4625
  677TIP3    H223523   5.967   2.054  14.020 -1.7020 -0.1636 -1.9694
  678TIP3   OH223524   6.001   1.052  15.974 -0.0501 -0.7695 -0.1319
  678TIP3    H123525   5.931   1.007  15.927  0.6532 -0.0846 -1.9166
  678TIP3    H223526   5.959   1.128  16.014 -0.9496 -2.1251  1.6773
  679TIP3   OH223527   4.093   4.852  15.455 -0.1553 -0.5513 -0.2308
  679TIP3    H123528   4.123   4.839  15.365 -0.9522  0.4288 -0.6597
  679TIP3    H223529   4.111   4.769  15.499  1.1154 -0.7272 -1.0360
  680TIP3   OH223530   3.925   0.640   1.157 -0.2584 -0.7327 -0.6910
  680TIP3    H123531   3.965   0.721   1.126 -0.1496 -0.6467 -0.3318
  680TIP3    H223532   3.832   0.650   1.137 -0.5808  0.3422  1.1098
  681TIP3   OH223533   5.030   4.823  11.325  0.1271  0.6927  0.0942
  681TIP3    H123534   4.962   4.807  11.259  0.3086  2.3953 -0.5504
  681TIP3    H223535   5.108   4.842  11.274  0.5574  0.8875  0.8172
  682TIP3   OH223536   0.886   3.436   5.017  0.6374  0.4910  0.3024
  682TIP3    H123537   0.966   3.387   5.036 -0.9238 -1.9423  1.0137
  682TIP3    H223538   0.827   3.414   5.089 -0.8307  1.9112 -0.4114
  683TIP3   OH223539   1.463   4.349   1.015 -0.1896  0.9784 -0.5874
  683TIP3    H123540   1.372   4.373   1.034 -0.6193 -0.4791 -0.6927
  683TIP3    H223541   1.477   4.268   1.064  0.6055  0.4383 -1.6701
  684TIP3   OH223542   2.889   6.666   5.751 -0.3634  0.3043  0.4161
  684TIP3    H123543   2.853   6.586   5.791  0.3186 -0.7453 -0.9930
  684TIP3    H223544   2.977   6.642   5.724  0.0869  1.7476  0.5222
  685TIP3   OH223545   0.825   0.948  13.110  0.1753 -0.7825  0.5090
  685TIP3    H123546   0.905   0.998  13.093 -0.7912  0.5422 -0.4112
  685TIP3    H223547   0.809   0.899  13.029 -1.0567  0.6537 -0.1887
  686TIP3   OH223548   0.273   5.044   0.019 -0.8095  0.0002  0.4165
  686TIP3    H123549   0.361   5.019  -0.009 -0.9429 -0.6313  0.5443
  686TIP3    H223550   0.282   5.062   0.112 -0.3847  2.0136  0.0360
  687TIP3   OH223551   5.903   3.674  14.652 -0.0519 -0.2236 -0.1039
  687TIP3    H123552   5.993   3.672  14.620  0.0596 -1.8510  0.1933
  687TIP3    H223553   5.890   3.763  14.683  2.0296 -0.3763  1.3883
  688TIP3   OH223554   5.553   5.367   5.790  0.4842  0.2713 -0.1541
  688TIP3    H123555   5.466   5.340   5.822  0.7836  0.2777  0.7044
  688TIP3    H223556   5.555   5.462   5.804  0.2820  0.4229 -1.0676
  689TIP3   OH223557   3.776   0.489  15.675  0.2390 -0.5757 -0.4632
  689TIP3    H123558   3.788   0.396  15.654 -2.1916 -0.8053 -1.1641
  689TIP3    H223559   3.687   0.508  15.646  0.4610  1.8311  0.2693
  690TIP3   OH223560   0.361   1.550  12.385  0.2234 -0.5719 -0.0294
  690TIP3    H123561   0.418   1.543  12.461 -0.4107 -1.1786  0.4028
  690TIP3    H223562   0.346   1.459  12.358  0.5444 -0.3606 -0.9656
  691TIP3   OH223563   5.287   2.189   1.830  0.1484 -0.0989  0.0726
  691TIP3    H123564   5.233   2.129   1.779 -1.8045  0.5016  1.3431
  691TIP3    H223565   5.358   2.214   1.770  0.7877 -3.2344 -0.6494
  692TIP3   OH223566   0.612   5.358  14.769  0.0561  0.5114 -0.3034
  692TIP3    H123567   0.663   5.285  14.735  0.7795  0.6464  0.4692
  692TIP3    H223568   0.523   5.322  14.780  0.5370 -0.4334  0.6410
  693TIP3   OH223569   4.368   0.700   3.927 -0.6037 -0.2150  0.1298
  693TIP3    H123570   4.423   0.739   3.859 -0.6130 -0.0900  0.1920
  693TIP3    H223571   4.284   0.685   3.885 -0.4194 -0.7243 -0.0611
  694TIP3   OH223572   5.575   1.004   4.482  0.1584  0.4784 -0.4231
  694TIP3    H123573   5.572   1.089   4.524  0.0191  0.1162  0.3214
  694TIP3    H223574   5.495   0.999   4.430 -0.0790  0.6119 -0.0754
  695TIP3   OH223575   3.866   1.035  16.473 -0.2058 -0.3385  0.2150
  695TIP3    H123576   3.894   1.099  16.408 -1.9667 -1.2500 -1.5601
  695TIP3    H223577   3.871   1.081  16.556  1.0164  1.2582 -0.7003
  696TIP3   OH223578   3.442   2.168   0.921 -0.1364  0.5631  0.2153
  696TIP3    H123579   3.370   2.137   0.866  0.3727  0.2019 -0.2590
  696TIP3    H223580   3.444   2.108   0.995  0.0921  0.1764 -0.1030
  697TIP3   OH223581   6.198   3.861   4.595  0.4318  0.0374  0.3537
  697TIP3    H123582   6.190   3.773   4.559  1.6527  0.0860 -0.0770
  697TIP3    H223583   6.275   3.898   4.552 -0.1324  1.3689  0.4306
  698TIP3   OH223584   1.549   2.937  14.750  0.0225 -0.3363 -0.3967
  698TIP3    H123585   1.616   2.871  14.736  1.6441  0.9730  0.8253
  698TIP3    H223586   1.575   3.010  14.694  0.0441  0.4469  0.6023
  699TIP3   OH223587   4.486   3.651   1.553  0.3328  0.2304  0.1926
  699TIP3    H123588   4.512   3.723   1.611 -0.3793 -0.6907  1.7301
  699TIP3    H223589   4.569   3.608   1.532  0.6346  0.7286  0.3245
  700TIP3   OH223590   1.728   2.311  16.223  0.7555 -0.1632  0.4045
  700TIP3    H123591   1.761   2.261  16.297  0.2630  0.2934  0.9328
  700TIP3    H223592   1.643   2.272  16.204 -0.0821  1.0920  1.4503
  701TIP3   OH223593   6.723   1.085  12.369  0.6329 -0.2472 -0.0007
  701TIP3    H123594   6.762   1.059  12.453  1.2406  0.5764 -0.0191
  701TIP3    H223595   6.714   1.180  12.375 -0.2052 -0.2838 -0.5041
  702TIP3   OH223596   4.314   0.058  13.655  0.3019  0.5399  0.0558
  702TIP3    H123597   4.292   0.010  13.734  0.2772 -0.1820 -0.3849
  702TIP3    H223598   4.274   0.008  13.584  1.0709  0.7002 -0.5015
  703TIP3   OH223599   3.503   2.191  12.028 -0.6630  0.3032  0.2801
  703TIP3    H123600   3.410   2.192  12.051 -0.8235 -0.5788 -0.3096
  703TIP3    H223601   3.515   2.268  11.972 -0.3763  2.2033  2.7293
  704TIP3   OH223602   1.729   2.792   4.978  0.0472  0.6188  0.7497
  704TIP3    H123603   1.788   2.717   4.991  0.0509  0.9477  3.0122
  704TIP3    H223604   1.656   2.756   4.928  0.7245 -0.5268  0.5414
  705TIP3   OH223605   0.544   5.043   2.745  0.1320  0.2067  0.5578
  705TIP3    H123606   0.614   5.000   2.794 -0.1775 -1.4501 -0.3762
  705TIP3    H223607   0.579   5.130   2.724  2.4785 -1.0114 -1.0004
  706TIP3   OH223608   3.565   0.687  12.615 -0.1629 -0.2082 -0.9409
  706TIP3    H123609   3.490   0.739  12.586 -0.9200 -0.6920  0.0725
  706TIP3    H223610   3.531   0.636  12.689  1.3358  0.0162 -0.0724
  707TIP3   OH223611   3.463   6.076  13.396  0.1534  0.1484  0.3914
  707TIP3    H123612   3.554   6.102  13.409 -0.4053  1.7730  1.3390
  707TIP3    H223613   3.442   6.104  13.307  0.2874  0.7286  0.5384
  708TIP3   OH223614   6.692   6.803  13.354 -0.3789  0.2561  0.2510
  708TIP3    H123615   6.694   6.833  13.444 -0.5127  0.7526  0.0932
  708TIP3    H223616   6.683   6.708  13.360  1.5225  0.0772  0.7713
  709TIP3   OH223617   1.192   4.919   3.536  0.0468  0.0473 -0.4271
  709TIP3    H123618   1.137   4.960   3.603  0.8954  2.4835 -1.1108
  709TIP3    H223619   1.137   4.916   3.458  0.0532  0.1343 -0.4357
  710TIP3   OH223620   6.396   1.768   0.662 -0.0836 -0.0008  0.4043
  710TIP3    H123621   6.430   1.810   0.583  0.8321  0.9918  1.2920
  710TIP3    H223622   6.342   1.835   0.703 -0.3108 -0.4034  0.7672
  711TIP3   OH223623   1.395   5.350   2.517  0.1464  0.0123 -0.8377
  711TIP3    H123624   1.413   5.435   2.557  0.1172 -0.9800  1.4744
  711TIP3    H223625   1.468   5.295   2.545 -1.2680 -1.4425  0.1591
  712TIP3   OH223626   4.497   3.710  16.011  0.3956 -0.1712  0.4396
  712TIP3    H123627   4.456   3.641  16.063  1.9877 -3.6079 -2.4230
  712TIP3    H223628   4.582   3.723  16.053  0.4686 -0.6972  0.4707
  713TIP3   OH223629   4.510   4.946   4.783  0.2296 -0.1712 -0.1662
  713TIP3    H123630   4.488   5.015   4.720 -0.7680 -1.1125 -0.8803
  713TIP3    H223631   4.529   4.993   4.864  1.3267  1.0669 -1.0726
  714TIP3   OH223632   2.773   1.502   2.953  0.1585 -0.8142 -0.5306
  714TIP3    H123633   2.867   1.489   2.966  0.0252 -1.0246  0.2530
  714TIP3    H223634   2.760   1.596   2.968 -0.0308 -1.0890  1.2141
  715TIP3   OH223635   1.233   1.608   3.110  0.1460 -1.3410 -0.1719
  715TIP3    H123636   1.312   1.582   3.156  1.0776  0.5380 -0.6171
  715TIP3    H223637   1.251   1.590   3.018  0.2060 -0.6107 -0.3115
  716TIP3   OH223638   6.005   3.064  14.242 -0.1948  0.1199  0.0539
  716TIP3    H123639   5.981   2.987  14.295  1.5139  0.3043  1.1769
  716TIP3    H223640   5.965   3.048  14.157  0.2032 -2.0831  0.2158
  717TIP3   OH223641   4.326   6.522  14.176 -0.0417  0.0875 -0.1393
  717TIP3    H123642   4.334   6.445  14.119  1.8359 -0.4573  0.7909
  717TIP3    H223643   4.313   6.485  14.264 -0.4025  0.8708  0.1457
  718TIP3   OH223644   6.490   6.755  11.448  0.4488  0.3808  0.0733
  718TIP3    H123645   6.519   6.664  11.450 -0.0750  0.1999  1.9308
  718TIP3    H223646   6.474   6.777  11.540 -2.1021  1.4785 -0.5414
  719TIP3   OH223647   3.725   6.756   1.226 -0.0586 -0.1109  0.6216
  719TIP3    H123648   3.637   6.725   1.247 -0.0444 -0.3460  0.3309
  719TIP3    H223649   3.747   6.712   1.144 -0.6316  1.8067 -0.6311
  720TIP3   OH223650   3.750   3.486  12.143  0.1899  0.1301  0.5010
  720TIP3    H123651   3.670   3.508  12.190 -0.5421 -3.4799  1.1849
  720TIP3    H223652   3.720   3.457  12.057  0.8535 -0.3125  0.4113
  721TIP3   OH223653   1.112   5.204  14.700  0.4068  0.6377  0.0123
  721TIP3    H123654   1.170   5.129  14.715 -0.1865  0.0534 -0.5696
  721TIP3    H223655   1.084   5.230  14.788 -2.1529 -2.0562  0.1665
  722TIP3   OH223656   1.023   3.202  13.078  0.3966  0.2988  0.9039
  722TIP3    H123657   0.985   3.114  13.079 -2.5545  1.4358  0.0043
  722TIP3    H223658   1.035   3.224  13.171 -2.5884  0.3135  1.4046
  723TIP3   OH223659   0.313   5.600  10.899 -0.2542 -0.4447  0.2770
  723TIP3    H123660   0.298   5.630  10.810 -1.1269 -1.8487 -0.0848
  723TIP3    H223661   0.255   5.524  10.909 -1.4186  0.6431  2.5828
  724TIP3   OH223662   2.290   4.144  11.331 -0.0088 -0.1267 -0.0189
  724TIP3    H123663   2.248   4.059  11.320 -1.6360  0.7725 -1.3619
  724TIP3    H223664   2.309   4.151  11.424 -0.6642 -1.5790  0.2379
  725TIP3   OH223665   1.115   1.806  14.280  0.3522 -0.0579  0.0910
  725TIP3    H123666   1.031   1.820  14.323 -0.1035  0.2615 -0.8823
  725TIP3    H223667   1.150   1.894  14.265  0.6941 -0.1776  0.1556
  726TIP3   OH223668   3.089   2.167  15.144  0.0415 -0.7753 -0.0366
  726TIP3    H123669   3.033   2.241  15.120  0.9291 -0.0034  0.2149
  726TIP3    H223670   3.165   2.207  15.185  1.3516 -1.6994 -1.4415
  727TIP3   OH223671   2.778   3.103  12.669  0.8834  0.4836 -0.1506
  727TIP3    H123672   2.765   3.172  12.734  1.1544  0.2842  0.1194
  727TIP3    H223673   2.775   3.022  12.720  1.3215  0.3385 -0.3500
  728TIP3   OH223674   3.887   1.505  15.499 -0.0995  0.7523 -0.0484
  728TIP3    H123675   3.920   1.425  15.457  1.2944  1.0371  0.4536
  728TIP3    H223676   3.897   1.573  15.433 -0.3693  0.7026 -0.1415
  729TIP3   OH223677   6.612   4.553   3.111 -0.1193 -0.2817 -0.1638
  729TIP3    H123678   6.578   4.480   3.059  1.3034 -0.1813 -1.2992
  729TIP3    H223679   6.706   4.536   3.117 -0.1450 -0.0000  1.9646
  730TIP3   OH223680   4.301   1.581  16.886  0.2136  0.0523 -0.0894
  730TIP3    H123681   4.388   1.543  16.873  0.3201 -0.8274  2.5824
  730TIP3    H223682   4.313   1.642  16.958 -1.2765  0.3719 -0.0884
  731TIP3   OH223683   4.712   2.772   5.292 -0.2746  0.5285  0.7841
  731TIP3    H123684   4.751   2.719   5.223 -2.0469  2.0455 -1.5451
  731TIP3    H223685   4.786   2.805   5.342  1.1551 -0.0456 -0.8586
  732TIP3   OH223686   1.838   3.261   6.545  0.2181  0.2336 -0.2517
  732TIP3    H123687   1.912   3.204   6.566 -0.0930 -0.2605 -0.4691
  732TIP3    H223688   1.762   3.202   6.544 -0.2241  0.7772  0.2498
  733TIP3   OH223689   1.394   2.285   2.934  0.2188  0.2664  0.1290
  733TIP3    H123690   1.352   2.349   2.877  0.2654  1.6762  1.6212
  733TIP3    H223691   1.366   2.200   2.899 -0.4112  1.0842 -1.4653
  734TIP3   OH223692   5.601   0.545  15.871 -0.3128 -0.2557 -0.0372
  734TIP3    H123693   5.528   0.484  15.861  0.3129 -0.8185 -1.4000
  734TIP3    H223694   5.568   0.611  15.931 -1.9261 -0.5479 -0.5405
  735TIP3   OH223695   4.771   4.973  12.667 -0.1837 -0.2439 -0.0647
  735TIP3    H123696   4.765   4.906  12.735  1.2622 -1.0888 -0.7021
  735TIP3    H223697   4.855   4.954  12.624 -0.8084  0.6051 -1.7105
  736TIP3   OH223698   4.199   6.083  16.363 -0.1555  0.1699  0.2683
  736TIP3    H123699   4.151   6.012  16.321  0.8743  0.4200 -1.4212
  736TIP3    H223700   4.170   6.162  16.318 -0.9482  0.7909  1.8199
  737TIP3   OH223701   1.687   4.430   6.514  0.2672 -0.3982 -0.2230
  737TIP3    H123702   1.707   4.518   6.547  1.2836 -1.0789  1.0704
  737TIP3    H223703   1.592   4.421   6.527 -0.2579  1.2520 -2.3458
  738TIP3   OH223704   6.544   0.190   0.487 -0.2196 -0.6042  0.5785
  738TIP3    H123705   6.582   0.134   0.420 -0.7853 -2.0139  1.4015
  738TIP3    H223706   6.601   0.179   0.563  0.0611  0.5043  0.5569
  739TIP3   OH223707   6.714   5.304  15.216 -0.4970  0.0283  0.5020
  739TIP3    H123708   6.670   5.346  15.142 -2.4756 -1.1353  0.9169
  739TIP3    H223709   6.743   5.377  15.271 -0.0978  0.8883 -0.7962
  740TIP3   OH223710   3.226   3.047   1.154  0.6023  0.2794 -0.0940
  740TIP3    H123711   3.269   3.031   1.070  0.9110  0.0737  0.0989
  740TIP3    H223712   3.210   2.960   1.189  1.0450  0.3711  0.3441
  741TIP3   OH223713   1.942   2.915   1.088 -0.1293  0.2279  0.4627
  741TIP3    H123714   1.971   2.964   1.165 -1.2560  1.1697  0.3158
  741TIP3    H223715   1.945   2.978   1.016 -1.2127 -0.0137  0.1816
  742TIP3   OH223716   1.951   3.944   2.480 -0.4657  0.0536 -0.2598
  742TIP3    H123717   1.868   3.909   2.447 -0.4183  0.6121 -0.9978
  742TIP3    H223718   1.947   4.037   2.460  0.2582  0.1203 -0.1149
  743TIP3   OH223719   0.964   4.360   3.180 -0.0464  0.0153 -0.1561
  743TIP3    H123720   0.890   4.338   3.237 -1.3839 -1.3270 -2.2523
  743TIP3    H223721   0.987   4.278   3.138  1.4506  0.7950 -0.9244
  744TIP3   OH223722   1.636   3.868   4.402 -0.4248  0.0543 -0.0295
  744TIP3    H123723   1.592   3.813   4.337 -0.8700  1.3341 -0.8546
  744TIP3    H223724   1.632   3.956   4.365 -0.0083  0.7023  1.3996
  745TIP3   OH223725   4.237   0.512  16.406 -0.5454  0.1899  0.5209
  745TIP3    H123726   4.331   0.495  16.407 -0.6334 -0.4192 -0.3321
  745TIP3    H223727   4.203   0.454  16.339 -1.8565 -1.2529  2.3218
  746TIP3   OH223728   0.396   4.200   3.313  0.1741  0.3984  0.1741
  746TIP3    H123729   0.391   4.271   3.377 -0.1093  1.0353 -0.5284
  746TIP3    H223730   0.461   4.230   3.249  0.5088 -0.2607  0.1987
  747TIP3   OH223731   1.337   6.614   2.493  0.0085 -0.1429  0.2131
  747TIP3    H123732   1.272   6.605   2.562  0.4649 -1.4336  0.5029
  747TIP3    H223733   1.409   6.555   2.519  0.8562  0.4999 -0.5910
  748TIP3   OH223734   1.147   3.597  13.261 -0.3808  0.0410 -0.1475
  748TIP3    H123735   1.137   3.557  13.347 -0.5763  3.8009  1.8005
  748TIP3    H223736   1.083   3.668  13.260  1.6591  2.0270 -2.1020
  749TIP3   OH223737   2.718   5.574   4.883 -0.4072  0.5893 -0.2809
  749TIP3    H123738   2.756   5.511   4.822 -2.1343 -0.3925 -0.4230
  749TIP3    H223739   2.642   5.529   4.920  1.0659  0.7606  3.3855
  750TIP3   OH223740   2.451   4.528  16.777 -0.0925  0.0573 -0.3637
  750TIP3    H123741   2.386   4.475  16.823 -0.2916  0.5606 -0.0574
  750TIP3    H223742   2.400   4.584  16.720  0.0797  0.3875 -0.1942
  751TIP3   OH223743   0.087   6.036  15.543  0.2480 -0.4001  0.1654
  751TIP3    H123744   0.092   6.132  15.542 -0.0418 -0.3507  1.5022
  751TIP3    H223745   0.178   6.007  15.535  0.3016 -0.0349 -0.6779
  752TIP3   OH223746   2.277   2.977  13.559  0.3238 -0.1462  0.3562
  752TIP3    H123747   2.233   2.892  13.556 -0.5851  0.2913  0.7667
  752TIP3    H223748   2.206   3.041  13.559  1.0102  0.6433 -0.5297
  753TIP3   OH223749   6.068   6.026  14.361  0.6191  0.0468  0.6014
  753TIP3    H123750   6.027   6.070  14.287 -1.3265  1.1517  2.2226
  753TIP3    H223751   6.029   5.938  14.361  1.0115 -0.1334  0.0432
  754TIP3   OH223752   6.664   2.617   2.271 -0.2600 -0.3129  0.1816
  754TIP3    H123753   6.632   2.694   2.224 -1.6569 -0.6569  0.5036
  754TIP3    H223754   6.742   2.647   2.316  0.6542  0.2458 -1.6744
  755TIP3   OH223755   5.697   2.266  13.295  0.1997 -0.2291 -0.0027
  755TIP3    H123756   5.762   2.201  13.321 -1.7984 -2.3069  0.1059
  755TIP3    H223757   5.657   2.293  13.378 -2.2728 -2.6063 -0.2721
  756TIP3   OH223758   6.465   3.286  12.203  0.3866 -0.3676 -0.4281
  756TIP3    H123759   6.544   3.280  12.257 -0.3724 -0.4336  0.6850
  756TIP3    H223760   6.401   3.331  12.257 -1.1529 -2.5147 -0.3472
  757TIP3   OH223761   4.554   0.988  15.693  0.1154  0.1894 -0.8005
  757TIP3    H123762   4.572   1.009  15.601 -1.7590  1.4850 -0.9170
  757TIP3    H223763   4.564   1.071  15.739  0.3636 -0.3089  0.0706
  758TIP3   OH223764   1.915   1.447   5.111 -0.0993 -0.1661  0.4895
  758TIP3    H123765   1.897   1.378   5.174  0.0989 -0.5420  0.1342
  758TIP3    H223766   1.832   1.495   5.103 -0.6398 -1.2007 -0.2984
  759TIP3   OH223767   1.664   0.535   3.220  0.0277  0.1266 -0.2616
  759TIP3    H123768   1.736   0.501   3.273  0.9562  0.0602 -1.5138
  759TIP3    H223769   1.647   0.465   3.156  2.0301  1.8552 -2.9481
  760TIP3   OH223770   6.280   2.354  16.487 -0.4935  0.4931 -0.2532
  760TIP3    H123771   6.353   2.411  16.465  0.2382  0.3499  1.6686
  760TIP3    H223772   6.316   2.291  16.549 -2.0253 -0.1974 -0.0147
  761TIP3   OH223773   6.541   0.996   3.575  0.6267  0.2078 -0.6684
  761TIP3    H123774   6.591   0.917   3.554 -0.6197 -0.4754 -1.1435
  761TIP3    H223775   6.453   0.979   3.542 -1.2796 -0.4922  4.0065
  762TIP3   OH223776   3.906   1.033   4.425  0.0590  0.2367 -0.4890
  762TIP3    H123777   3.889   1.095   4.495 -0.9874  1.6827 -1.9299
  762TIP3    H223778   3.867   0.951   4.456  0.3019  0.6276  0.9178
  763TIP3   OH223779   3.937   1.028  12.573 -0.2680  0.2425 -0.4582
  763TIP3    H123780   3.998   1.009  12.644  0.9492  1.5238 -1.1235
  763TIP3    H223781   3.912   0.942  12.539  0.9137 -0.3149  0.0331
  764TIP3   OH223782   1.237   1.886  14.660 -0.0543  0.1200 -0.0971
  764TIP3    H123783   1.299   1.885  14.733  0.1839 -2.8421 -0.2358
  764TIP3    H223784   1.280   1.940  14.594  0.6269  1.2060  1.1801
  765TIP3   OH223785   0.610   6.045   0.106  0.6058 -0.3322 -0.2086
  765TIP3    H123786   0.555   6.112   0.065  0.9948 -0.1394 -0.4173
  765TIP3    H223787   0.568   5.962   0.081 -0.8044 -0.1468  1.3655
  766TIP3   OH223788   3.530   5.972   1.397 -0.0061  0.6154 -0.7300
  766TIP3    H123789   3.573   5.893   1.429 -1.0891  0.1049 -0.4670
  766TIP3    H223790   3.597   6.039   1.400  1.4022 -0.6205 -2.4522
  767TIP3   OH223791   6.516   0.451   4.655  0.0077 -0.1419 -0.6618
  767TIP3    H123792   6.524   0.403   4.738 -0.1666 -1.2195 -1.2482
  767TIP3    H223793   6.441   0.509   4.668  1.1975  1.1938  0.6277
  768TIP3   OH223794   3.377   2.968  15.034  0.5611  0.4116 -0.1306
  768TIP3    H123795   3.388   2.964  15.129  1.0889 -0.0678 -0.2126
  768TIP3    H223796   3.314   3.039  15.021 -1.2834 -0.9748  0.7146
  769TIP3   OH223797   6.363   2.796  13.781 -0.6037 -0.2397  0.3019
  769TIP3    H123798   6.430   2.730  13.800 -0.9230 -0.1724  1.7823
  769TIP3    H223799   6.411   2.867  13.739  0.4592  0.1593  2.0686
  770TIP3   OH223800   1.964   4.992   0.209  0.2341 -0.1480 -0.5120
  770TIP3    H123801   1.904   5.010   0.281  1.8325 -0.0998  0.8656
  770TIP3    H223802   1.964   4.897   0.202 -0.4879 -0.1235 -0.9721
  771TIP3   OH223803   4.360   5.961  15.269  0.5323  0.5063 -0.4447
  771TIP3    H123804   4.372   5.886  15.328 -0.8767  1.1563  0.7415
  771TIP3    H223805   4.444   5.971  15.225  0.7697 -1.7508 -0.6216
  772TIP3   OH223806   3.025   2.512  13.252 -0.3235  0.7415  0.0871
  772TIP3    H123807   3.066   2.426  13.252 -0.6656  0.5475 -1.7616
  772TIP3    H223808   3.096   2.573  13.231 -0.2282  0.8411  0.6806
  773TIP3   OH223809   5.038   5.379  12.616  0.1712  0.0668 -0.2430
  773TIP3    H123810   4.963   5.362  12.672 -0.3743  1.5998 -0.4654
  773TIP3    H223811   5.004   5.431  12.544  1.6047  1.7246  0.1997
  774TIP3   OH223812   0.029   1.746  11.657  0.8961 -0.5224  1.1072
  774TIP3    H123813   0.050   1.774  11.746  0.9408 -1.0795  1.2792
  774TIP3    H223814   0.113   1.748  11.611  0.5084  2.2781  0.3203
  775TIP3   OH223815   2.032   1.572  12.249 -0.4858  0.2352 -0.1665
  775TIP3    H123816   2.063   1.641  12.309 -0.3457  0.2814 -0.2914
  775TIP3    H223817   2.064   1.491  12.288 -0.8832  0.2184  0.1254
  776TIP3   OH223818   1.186   2.476  14.446 -0.5691 -0.2910  0.1762
  776TIP3    H123819   1.181   2.509  14.356  0.0328  0.6191  0.4629
  776TIP3    H223820   1.204   2.383  14.437 -0.9252 -0.2831 -0.6500
  777TIP3   OH223821   4.472   2.930  15.796  0.3346 -0.0164 -0.1357
  777TIP3    H123822   4.486   3.023  15.781  1.2480  0.0815  1.1847
  777TIP3    H223823   4.552   2.888  15.767  0.3711 -0.2671  0.3163
  778TIP3   OH223824   6.081   4.451  13.248 -0.7928  0.0722 -0.5368
  778TIP3    H123825   6.168   4.483  13.222 -0.3642 -0.3077  0.3923
  778TIP3    H223826   6.046   4.518  13.306 -0.9608  0.0436 -0.6027
  779TIP3   OH223827   1.162   1.879   3.812 -0.3281  0.5416 -0.1411
  779TIP3    H123828   1.098   1.809   3.825 -1.5447  1.3554 -1.4845
  779TIP3    H223829   1.230   1.840   3.759  0.2509 -0.2914  1.1677
  780TIP3   OH223830   3.376   5.995  14.220  0.6290  0.3467 -0.1757
  780TIP3    H123831   3.290   5.975  14.257  0.1185 -0.4427 -1.7111
  780TIP3    H223832   3.396   6.083  14.251 -0.4959  0.3418  0.6107
  781TIP3   OH223833   0.783   4.327   0.989  0.0516  0.3257  0.0249
  781TIP3    H123834   0.770   4.403   0.933 -1.7210  0.7829  1.0148
  781TIP3    H223835   0.717   4.264   0.960 -0.8583  0.5551  1.5496
  782TIP3   OH223836   6.377   5.975   4.932 -0.4816  0.3081 -0.1647
  782TIP3    H123837   6.440   5.964   4.861 -1.1509 -0.8302 -0.6009
  782TIP3    H223838   6.335   5.889   4.941 -1.6114  0.9032  0.4691
  783TIP3   OH223839   3.241   2.586  16.942  0.3273  0.2842  0.5927
  783TIP3    H123840   3.169   2.649  16.931 -0.2670 -0.7159 -1.8751
  783TIP3    H223841   3.219   2.538  17.021 -0.8867  1.0628  0.7533
  784TIP3   OH223842   0.040   1.838   1.376  0.5092  0.2196  0.9176
  784TIP3    H123843   0.128   1.874   1.385  1.2899 -1.3967  0.2004
  784TIP3    H223844   0.050   1.766   1.314 -1.6640  1.1054 -0.5793
  785TIP3   OH223845   3.471   3.556  14.795  0.4233 -0.1834  0.3585
  785TIP3    H123846   3.495   3.567  14.703 -1.0605  1.4578  0.1289
  785TIP3    H223847   3.458   3.462  14.805  0.4799 -0.3735 -1.1367
  786TIP3   OH223848   0.415   2.504  12.111  0.6215  0.0477  0.0855
  786TIP3    H123849   0.477   2.547  12.171  0.7021  1.0130 -0.6677
  786TIP3    H223850   0.342   2.478  12.168  1.3992 -0.4947  0.8674
  787TIP3   OH223851   0.756   0.984  13.764  0.2043  0.1094  0.1333
  787TIP3    H123852   0.713   1.059  13.723 -0.2135 -0.3748 -0.3259
  787TIP3    H223853   0.848   0.993  13.741  0.0952  0.2711 -0.2397
  788TIP3   OH223854   4.364   2.099  13.291 -0.0606  0.0365  0.5062
  788TIP3    H123855   4.399   2.016  13.324  0.3181  0.1567  0.4139
  788TIP3    H223856   4.373   2.160  13.365  1.2790  0.4448  0.0406
  789TIP3   OH223857   3.891   1.684  13.604  0.0480 -0.3065  0.0751
  789TIP3    H123858   3.973   1.734  13.593  0.5732 -1.5581 -2.7590
  789TIP3    H223859   3.919   1.601  13.641 -0.0376 -0.4369 -0.1502
  790TIP3   OH223860   4.954   3.573  16.110  0.1080  0.2716  0.0816
  790TIP3    H123861   5.017   3.589  16.039 -0.4933 -0.9636 -0.7769
  790TIP3    H223862   4.882   3.633  16.092 -0.0522 -0.0508 -0.3838
  791TIP3   OH223863   6.789   3.094  15.937  0.1410 -0.3658  0.7938
  791TIP3    H123864   6.729   3.044  15.882 -0.3838  1.4568 -0.3842
  791TIP3    H223865   6.762   3.075  16.026 -2.7147  0.8926  0.3139
  792TIP3   OH223866   1.608   6.340  14.993 -0.5276  0.2519 -0.0943
  792TIP3    H123867   1.615   6.287  15.073 -0.4765 -0.9061 -0.8458
  792TIP3    H223868   1.698   6.368  14.975 -0.4086 -0.1835 -0.1947
  793TIP3   OH223869   5.357   3.869  12.924  0.2395 -0.2137  0.2517
  793TIP3    H123870   5.424   3.885  12.991 -1.0970  0.6120  1.4506
  793TIP3    H223871   5.328   3.956  12.898 -2.2666 -0.4934  1.7942
  794TIP3   OH223872   2.751   5.939   0.910 -0.2707  0.3897 -0.0044
  794TIP3    H123873   2.672   5.885   0.905 -0.3874  0.5070  0.5489
  794TIP3    H223874   2.806   5.896   0.975 -0.0591  0.5416 -0.0811
  795TIP3   OH223875   1.409   4.875  11.573 -0.0819  0.2978 -0.3747
  795TIP3    H123876   1.482   4.917  11.619  0.0811  0.5146 -0.8334
  795TIP3    H223877   1.424   4.894  11.481 -0.4383 -0.1013 -0.5175
  796TIP3   OH223878   0.891   0.311   5.992 -0.0061 -0.0098  0.1405
  796TIP3    H123879   0.894   0.291   6.085  0.2126  3.1401  0.9345
  796TIP3    H223880   0.966   0.265   5.954  4.3612  3.9423  2.8781
  797TIP3   OH223881   2.380   2.923   0.504  0.3993 -0.3532 -0.3045
  797TIP3    H123882   2.393   2.866   0.580 -0.8940 -0.3228 -0.0453
  797TIP3    H223883   2.468   2.936   0.470  0.8020 -2.0133 -0.0200
  798TIP3   OH223884   4.665   3.802  12.921 -0.0847 -0.0850 -0.5433
  798TIP3    H123885   4.580   3.825  12.882 -0.6107 -1.2591 -0.1121
  798TIP3    H223886   4.671   3.858  12.999 -0.6034 -0.2121 -0.4077
  799TIP3   OH223887   5.304   1.648   0.220 -0.0611  0.3923 -0.0498
  799TIP3    H123888   5.213   1.633   0.246  0.7156  0.7522  3.2775
  799TIP3    H223889   5.336   1.562   0.196 -0.6091 -0.2285  1.2994
  800TIP3   OH223890   3.422   1.348  15.365 -0.2662  0.0707  0.2057
  800TIP3    H123891   3.333   1.334  15.397 -0.0169 -1.4418  0.3151
  800TIP3    H223892   3.411   1.374  15.273 -0.8701  1.8780  0.7391
  801TIP3   OH223893   2.346   4.189  13.368 -0.0123  0.0136 -0.6433
  801TIP3    H123894   2.304   4.144  13.441  0.5882  0.2563 -0.1391
  801TIP3    H223895   2.398   4.120  13.325  0.5278  0.1059 -0.1565
  802TIP3   OH223896   0.253   4.860   7.018  0.4219 -0.0870 -0.1054
  802TIP3    H123897   0.266   4.845   6.924  0.5053 -0.9195  0.0310
  802TIP3    H223898   0.256   4.773   7.057  3.3219  0.4263  1.0690
  803TIP3   OH223899   3.160   2.728  10.882 -0.4210  0.1677 -0.0539
  803TIP3    H123900   3.103   2.654  10.863  0.9492 -0.9485  0.0553
  803TIP3    H223901   3.190   2.758  10.796  1.3984 -1.3669 -0.0207
  804TIP3   OH223902   2.611   1.333   5.765  0.3506  0.1576  0.1415
  804TIP3    H123903   2.625   1.260   5.825 -1.1738 -0.9171 -0.7388
  804TIP3    H223904   2.625   1.296   5.678  2.8274  1.7602 -0.2375
  805TIP3   OH223905   3.582   2.914   2.733  0.0519  0.1412  0.5012
  805TIP3    H123906   3.607   3.003   2.759  0.7891  0.2686 -0.5743
  805TIP3    H223907   3.659   2.879   2.689 -0.8077 -0.4020 -0.6234
  806TIP3   OH223908   0.607   3.419   2.358 -0.3306  0.2107 -0.4726
  806TIP3    H123909   0.674   3.484   2.379  0.1279 -0.1797 -0.7261
  806TIP3    H223910   0.524   3.463   2.379 -0.0091  0.7558 -0.3270
  807TIP3   OH223911   1.815   0.099  16.392 -0.4070 -0.0536 -0.6054
  807TIP3    H123912   1.779   0.128  16.476 -0.2257  1.0732 -0.9094
  807TIP3    H223913   1.747   0.121  16.328 -0.4493 -0.7034 -0.7958
  808TIP3   OH223914   0.245   4.624   3.613 -0.9330 -0.2808  0.2111
  808TIP3    H123915   0.264   4.598   3.704 -1.7728  0.2901  0.5651
  808TIP3    H223916   0.202   4.709   3.622  2.7818  1.9240 -0.9474
  809TIP3   OH223917   0.659   1.091  11.596 -0.0080 -0.1480  0.5266
  809TIP3    H123918   0.638   1.100  11.504 -2.1860  0.7784  1.0739
  809TIP3    H223919   0.592   1.032  11.631 -0.6494  1.3311  1.9469
  810TIP3   OH223920   0.666   0.394   1.694  0.3651  0.0332  0.1355
  810TIP3    H123921   0.606   0.343   1.639 -0.9510  1.4573  0.1647
  810TIP3    H223922   0.728   0.432   1.632 -1.1136  1.6328 -0.4514
  811TIP3   OH223923   4.375   6.272   5.959  0.0481 -0.2247 -0.3791
  811TIP3    H123924   4.328   6.198   5.921 -0.1761  0.4458 -1.4659
  811TIP3    H223925   4.397   6.244   6.048  0.0152 -1.6005 -0.7815
  812TIP3   OH223926   0.310   0.541   2.352  0.2683 -0.5283 -0.1411
  812TIP3    H123927   0.236   0.551   2.413  0.6194 -0.7774  0.3261
  812TIP3    H223928   0.306   0.620   2.297  2.6975  2.2220  3.1879
  813TIP3   OH223929   5.003   4.108   0.289  0.6928  0.0079  0.0050
  813TIP3    H123930   5.055   4.028   0.288  0.1410 -0.3545 -0.2513
  813TIP3    H223931   4.946   4.098   0.365  0.1106 -0.1799 -0.4495
  814TIP3   OH223932   4.391   6.375   2.004  0.1410 -0.0322  0.7355
  814TIP3    H123933   4.309   6.325   2.000 -0.5182  1.0902 -1.4613
  814TIP3    H223934   4.362   6.466   2.012  1.2059  0.2880  1.0157
  815TIP3   OH223935   1.196   2.366   2.692  0.3510 -0.1169  1.0418
  815TIP3    H123936   1.269   2.418   2.659 -0.6080 -0.7158 -2.4088
  815TIP3    H223937   1.119   2.420   2.674 -0.3703 -1.2846  0.5346
  816TIP3   OH223938   3.910   2.025  11.637  0.2977 -0.1669 -0.3221
  816TIP3    H123939   3.899   1.936  11.671 -1.6714 -0.1092 -0.6792
  816TIP3    H223940   3.949   2.074  11.710 -0.4521 -0.8748  0.5872
  817TIP3   OH223941   5.386   2.928   4.475  0.0120 -0.0164  0.8717
  817TIP3    H123942   5.454   2.864   4.452  1.8656  1.8338  0.8625
  817TIP3    H223943   5.434   2.999   4.518 -1.7414  1.9555 -0.2305
  818TIP3   OH223944   5.708   3.232  12.210  0.3635  0.4055 -0.5603
  818TIP3    H123945   5.767   3.191  12.273 -0.3476 -1.6255 -1.1441
  818TIP3    H223946   5.656   3.293  12.262 -1.5966 -2.6143  1.3749
  819TIP3   OH223947   5.703   5.946  12.335 -0.1636  0.4120 -0.3026
  819TIP3    H123948   5.732   5.857  12.352 -0.4619  0.5317  0.8772
  819TIP3    H223949   5.773   6.001  12.368  0.6403  0.6324 -2.2214
  820TIP3   OH223950   4.381   5.723   4.575 -0.5985 -0.1734  0.1163
  820TIP3    H123951   4.415   5.806   4.608  0.2297 -0.5521  0.2531
  820TIP3    H223952   4.317   5.748   4.509  0.1836  0.5891 -0.3863
  821TIP3   OH223953   2.290   3.737  12.721  0.1167  0.2136  0.2644
  821TIP3    H123954   2.364   3.688  12.686  1.1537  0.5288  1.8992
  821TIP3    H223955   2.231   3.747  12.646  1.6391 -0.1789 -1.0665
  822TIP3   OH223956   3.739   3.830  14.288 -0.0607  0.7372  0.0872
  822TIP3    H123957   3.673   3.841  14.356 -1.7863  0.7457 -1.4910
  822TIP3    H223958   3.727   3.740  14.257  0.9435  0.6109  0.0217
  823TIP3   OH223959   4.533   2.304   4.331 -0.3308 -0.3990  0.4303
  823TIP3    H123960   4.481   2.383   4.344 -1.6440 -1.1927  0.1019
  823TIP3    H223961   4.551   2.273   4.420  0.7951  0.6209  0.5887
  824TIP3   OH223962   4.053   3.382  14.789  0.3451  0.1502  0.5919
  824TIP3    H123963   3.987   3.333  14.838 -0.5170 -1.0938 -1.6165
  824TIP3    H223964   4.135   3.338  14.810 -0.1372 -0.9566  0.2484
  825TIP3   OH223965   2.944   3.143  12.927 -0.0699 -0.1493 -0.3019
  825TIP3    H123966   2.953   3.232  12.892  0.6496 -0.0585  0.1057
  825TIP3    H223967   3.007   3.091  12.878 -0.3066 -0.3812 -0.3603
  826TIP3   OH223968   2.740   0.571   1.303  0.4713  0.0053  0.4723
  826TIP3    H123969   2.797   0.634   1.259  0.9068 -1.2576 -0.8599
  826TIP3    H223970   2.654   0.584   1.262  0.6206 -0.4275  0.0153
  827TIP3   OH223971   6.755   1.867  12.803 -0.4192 -0.5688  0.3598
  827TIP3    H123972   6.819   1.937  12.793 -0.8821 -0.3836 -2.3514
  827TIP3    H223973   6.793   1.792  12.756 -1.9648 -0.5609 -1.0012
  828TIP3   OH223974   0.214   4.919  14.503 -0.2980 -0.0964 -0.4895
  828TIP3    H123975   0.155   4.951  14.571  1.3146  0.4515  0.7165
  828TIP3    H223976   0.298   4.960  14.522  0.8675 -1.9459 -1.2693
  829TIP3   OH223977   1.790   5.446   0.060  0.0949  0.6996  0.2937
  829TIP3    H123978   1.766   5.489  -0.022 -0.6819 -0.1816  0.0443
  829TIP3    H223979   1.742   5.494   0.127  0.4524  1.1966  0.1998
  830TIP3   OH223980   5.633   3.216  11.161  0.8569 -0.2547 -0.0263
  830TIP3    H123981   5.684   3.180  11.089  1.4813 -0.0368  0.2994
  830TIP3    H223982   5.646   3.311  11.155 -0.1802 -0.1245 -0.4332
  831TIP3   OH223983   2.857   2.167   2.425 -0.4055  0.3527  0.3500
  831TIP3    H123984   2.923   2.221   2.383  0.7112 -0.7088  0.6866
  831TIP3    H223985   2.787   2.159   2.360  0.8862 -0.5149 -0.9927
  832TIP3   OH223986   3.963   0.554   2.075 -0.1686  0.2847  0.1126
  832TIP3    H123987   4.009   0.490   2.129 -2.2131 -0.6832  0.7803
  832TIP3    H223988   3.918   0.611   2.137  0.0291  1.1683 -0.5288
  833TIP3   OH223989   3.829   2.688  12.408 -0.0230  0.6941 -0.3598
  833TIP3    H123990   3.840   2.593  12.412 -2.7241  0.2335 -1.2846
  833TIP3    H223991   3.749   2.700  12.356  0.3193  3.4881 -0.3786
  834TIP3   OH223992   0.152   5.470  11.559 -0.6938 -0.3594  0.1601
  834TIP3    H123993   0.116   5.466  11.471 -1.8265 -0.3167  0.6022
  834TIP3    H223994   0.076   5.465  11.617 -0.1930  1.9929  1.1342
  835TIP3   OH223995   6.621   1.400  13.681  0.0175  0.7330  0.1433
  835TIP3    H123996   6.689   1.333  13.682 -1.2336 -0.6059 -0.0775
  835TIP3    H223997   6.598   1.410  13.589  0.3369  1.6403  0.1535
  836TIP3   OH223998   2.774   0.779   3.007 -0.1643  0.2330 -0.8256
  836TIP3    H123999   2.866   0.800   3.021 -0.0119 -0.3704 -0.9405
  836TIP3    H224000   2.727   0.843   3.061  0.4028 -2.9281  3.9948
  837TIP3   OH224001   3.648   1.290   5.819  0.1340 -0.1676 -0.5462
  837TIP3    H124002   3.611   1.264   5.904 -0.9850 -0.8011 -1.1990
  837TIP3    H224003   3.714   1.355   5.841  2.3373 -2.7306  1.0841
  838TIP3   OH224004   4.134   2.419  17.047  0.2748  0.5373 -0.0881
  838TIP3    H124005   4.109   2.352  16.983  1.2763 -0.2543  0.3109
  838TIP3    H224006   4.054   2.470  17.061 -0.8374 -1.2312  0.3752
  839TIP3   OH224007   5.553   5.312  10.600 -0.2630  0.3601  0.2831
  839TIP3    H124008   5.596   5.244  10.548  1.2418  2.2196 -1.0392
  839TIP3    H224009   5.547   5.275  10.688 -2.2347 -2.6132 -0.9533
  840TIP3   OH224010   1.511   4.254   3.726 -0.6770  0.9215  0.7722
  840TIP3    H124011   1.560   4.173   3.710 -1.5180  0.0934  2.2034
  840TIP3    H224012   1.486   4.285   3.639 -1.3748 -1.0144  0.2475
  841TIP3   OH224013   0.747   0.752  16.547 -0.0494  0.1566  0.6681
  841TIP3    H124014   0.671   0.764  16.604  0.2572 -1.7283  1.5410
  841TIP3    H224015   0.794   0.835  16.552 -1.6855  1.1231  0.6312
  842TIP3   OH224016   3.093   1.308   1.860  0.9994 -0.4862 -0.0440
  842TIP3    H124017   3.160   1.252   1.822  1.8214  0.5265 -0.1285
  842TIP3    H224018   3.139   1.388   1.884 -0.1559  0.1805  0.0283
  843TIP3   OH224019   6.430   0.682  11.542 -0.0453  0.5588  0.6213
  843TIP3    H124020   6.378   0.750  11.501 -0.2706 -0.4640 -0.8715
  843TIP3    H224021   6.367   0.628  11.590 -0.2615 -0.1094 -0.3807
  844TIP3   OH224022   2.422   4.481  16.284  0.4387 -0.6377  0.0027
  844TIP3    H124023   2.326   4.483  16.281  0.4802  1.2194 -1.3427
  844TIP3    H224024   2.444   4.388  16.272 -1.1828 -1.1763  0.9216
  845TIP3   OH224025   4.135   6.281   5.223 -0.7751 -0.3271  0.6534
  845TIP3    H124026   4.076   6.219   5.266 -1.1430 -0.5121 -0.0834
  845TIP3    H224027   4.166   6.234   5.145 -0.3331  0.0829  0.5754
  846TIP3   OH224028   1.165   3.184   4.273  0.3072 -0.4838  0.5667
  846TIP3    H124029   1.147   3.177   4.179 -1.4737 -1.6974  0.9433
  846TIP3    H224030   1.237   3.247   4.279 -0.1667  0.3508 -1.5359
  847TIP3   OH224031   0.235   2.924   0.949 -0.1054  0.1007 -0.3035
  847TIP3    H124032   0.142   2.948   0.951 -0.3108 -0.7034  0.4101
  847TIP3    H224033   0.274   2.973   1.021  0.1479  0.8808 -0.9591
  848TIP3   OH224034   2.648   0.521  12.022 -0.3289 -0.2874 -0.8879
  848TIP3    H124035   2.700   0.579  11.966 -0.0534 -0.0907 -0.4320
  848TIP3    H224036   2.580   0.488  11.964 -1.2368  1.4390 -0.8668
  849TIP3   OH224037   2.539   4.184  11.534 -0.2684  0.2292  0.7642
  849TIP3    H124038   2.460   4.237  11.544 -0.7160 -0.5047  1.2939
  849TIP3    H224039   2.568   4.167  11.624  0.6034  0.6489  0.5668
  850TIP3   OH224040   1.108   0.163  13.131  0.4261 -0.0962 -0.4493
  850TIP3    H124041   1.182   0.178  13.190  0.8452 -2.1279 -0.4069
  850TIP3    H224042   1.116   0.231  13.065  1.9301  0.1397 -0.0624
  851TIP3   OH224043   6.158   6.812  13.493  0.4541  0.3417  1.0780
  851TIP3    H124044   6.069   6.837  13.467  0.9704 -0.5118 -1.9390
  851TIP3    H224045   6.172   6.856  13.577 -1.6174  3.2724  0.0495
  852TIP3   OH224046   1.417   1.574   4.880  0.3001  0.0962 -0.0148
  852TIP3    H124047   1.335   1.588   4.834  0.6633 -1.1440 -1.1096
  852TIP3    H224048   1.429   1.478   4.879  1.1125  0.1565  1.2638
  853TIP3   OH224049   0.713   3.935  14.505 -0.3344 -0.4269 -0.6511
  853TIP3    H124050   0.765   3.992  14.562 -0.5779 -0.5383 -0.3128
  853TIP3    H224051   0.671   3.995  14.443  1.7508 -0.4932 -2.2258
  854TIP3   OH224052   4.014   3.840  12.408 -0.0014  0.0636  0.1565
  854TIP3    H124053   4.059   3.795  12.480  0.3173  0.6085  0.3016
  854TIP3    H224054   4.075   3.836  12.335  0.9733  2.1586  0.7933
  855TIP3   OH224055   6.500   3.193  11.929 -0.7570 -0.3813 -0.4784
  855TIP3    H124056   6.485   3.210  12.022  0.2102 -1.3346 -0.1247
  855TIP3    H224057   6.565   3.123  11.928  0.5233  0.7605 -1.8789
  856TIP3   OH224058   3.021   4.234   2.765  1.0694 -0.1469 -0.1350
  856TIP3    H124059   2.979   4.319   2.751 -0.9780 -0.9472  0.5782
  856TIP3    H224060   3.001   4.183   2.686  2.8204  0.1840 -0.8335
  857TIP3   OH224061   4.648   3.861   0.935  0.2703  0.1620  0.1545
  857TIP3    H124062   4.714   3.821   0.878 -0.0138  1.7978 -1.4110
  857TIP3    H224063   4.697   3.887   1.013  1.4193  0.9923 -0.8108
  858TIP3   OH224064   0.846   6.169  12.734 -0.2021 -0.4008  0.0019
  858TIP3    H124065   0.829   6.196  12.644  1.7311  1.0246  0.0088
  858TIP3    H224066   0.940   6.181  12.745 -0.5215  0.2613  2.4687
  859TIP3   OH224067   6.619   3.628   6.090  0.1833 -0.2329 -0.2567
  859TIP3    H124068   6.545   3.685   6.067  1.0636  1.6914  1.3591
  859TIP3    H224069   6.594   3.591   6.175  0.5205 -0.6146 -0.3244
  860TIP3   OH224070   5.794   6.260  11.627  0.4125 -0.1213 -0.0314
  860TIP3    H124071   5.731   6.273  11.556 -0.4338 -1.4738  0.4313
  860TIP3    H224072   5.795   6.166  11.642  2.2558 -0.0937  0.2777
  861TIP3   OH224073   2.447   6.500   2.857 -0.0678 -0.3297 -0.3583
  861TIP3    H124074   2.395   6.421   2.874 -0.2013 -0.0819  0.4315
  861TIP3    H224075   2.426   6.523   2.767  1.1530 -2.0712 -1.1307
  862TIP3   OH224076   2.938   5.922   3.511  0.2620 -0.6965  0.6991
  862TIP3    H124077   2.978   5.883   3.433  1.1460  0.4575  0.5434
  862TIP3    H224078   2.912   6.010   3.483 -1.4446 -1.0397  1.1122
  863TIP3   OH224079   4.411   1.194   0.827  0.5520  0.1468 -0.2463
  863TIP3    H124080   4.466   1.214   0.751  0.4481  0.0291 -0.3525
  863TIP3    H224081   4.336   1.147   0.791  0.5593 -0.0122 -0.0585
  864TIP3   OH224082   5.485   3.630  12.126  0.2645  0.3302 -1.1163
  864TIP3    H124083   5.514   3.714  12.089  1.2679  0.2407 -0.5710
  864TIP3    H224084   5.403   3.611  12.081 -0.7307  2.2946 -0.2795
  865TIP3   OH224085   4.553   3.543  15.515 -0.0103  0.5052  0.2837
  865TIP3    H124086   4.463   3.521  15.491  0.2372 -0.6420  0.3729
  865TIP3    H224087   4.558   3.638  15.502 -1.3982  0.6831  0.8246
  866TIP3   OH224088   4.634   2.658   5.790 -0.1080 -0.0122  0.6183
  866TIP3    H124089   4.572   2.681   5.860 -1.5032  0.7914 -0.8253
  866TIP3    H224090   4.580   2.650   5.712  1.3962 -1.0645 -0.3635
  867TIP3   OH224091   3.534   5.223   3.043  0.3119 -0.2542  0.3194
  867TIP3    H124092   3.453   5.275   3.045  0.8225  0.5539  0.2640
  867TIP3    H224093   3.570   5.233   3.131  0.1339 -0.9687  0.4756
  868TIP3   OH224094   1.525   1.911  13.014  0.1590  0.5646 -0.3281
  868TIP3    H124095   1.446   1.909  12.959 -0.0187 -1.3033 -0.0548
  868TIP3    H224096   1.561   1.823  13.007  2.0376  1.2820 -0.1359
  869TIP3   OH224097   5.318   3.822   1.237  0.1473 -0.6827  0.3080
  869TIP3    H124098   5.263   3.751   1.207  0.8943 -0.5007 -1.6138
  869TIP3    H224099   5.395   3.820   1.180 -0.0827  2.0219 -0.2745
  870TIP3   OH224100   4.884   2.225  14.617  0.4902 -0.6590 -0.1146
  870TIP3    H124101   4.929   2.305  14.647 -1.6746  1.3542 -1.8275
  870TIP3    H224102   4.859   2.244  14.526 -0.8143 -2.9958 -0.3279
  871TIP3   OH224103   4.322   0.819   0.854 -0.4581 -0.3996 -0.0225
  871TIP3    H124104   4.236   0.814   0.896 -0.2580 -0.0521  0.4370
  871TIP3    H224105   4.309   0.874   0.778 -0.6415 -0.3268  0.0617
  872TIP3   OH224106   2.306   0.124  12.546 -0.0815 -0.4555 -0.2776
  872TIP3    H124107   2.269   0.211  12.533 -2.0738 -1.0538  0.9284
  872TIP3    H224108   2.260   0.067  12.484 -1.3016 -1.2223  1.2646
  873TIP3   OH224109   6.348   3.898   0.395 -0.0426  0.2788 -0.1075
  873TIP3    H124110   6.271   3.917   0.448 -0.5269 -0.6161 -0.4572
  873TIP3    H224111   6.353   3.971   0.333 -1.0095  0.0166 -0.5099
  874TIP3   OH224112   6.471   1.646  14.889 -0.6175  0.0956 -0.2177
  874TIP3    H124113   6.527   1.612  14.819 -1.9634  2.3498 -2.5179
  874TIP3    H224114   6.448   1.734  14.862 -0.7510  1.3756  3.4206
  875TIP3   OH224115   4.304   2.374  16.329  0.0924 -0.4067 -0.0648
  875TIP3    H124116   4.276   2.288  16.296 -0.5213 -0.0471 -0.4959
  875TIP3    H224117   4.368   2.404  16.265  1.1413 -1.0226  0.6733
  876TIP3   OH224118   1.104   5.686   2.496 -0.3710 -0.2015 -0.8156
  876TIP3    H124119   1.179   5.654   2.447  0.3046 -1.3387  0.8928
  876TIP3    H224120   1.030   5.632   2.467 -0.1588 -0.3113 -1.1511
  877TIP3   OH224121   5.299   5.316  15.455 -0.1957  0.6127 -0.2712
  877TIP3    H124122   5.354   5.381  15.410 -0.3353  0.2967 -0.9020
  877TIP3    H224123   5.338   5.309  15.543 -0.9248  2.4778  0.2527
  878TIP3   OH224124   2.330   0.869   3.001 -0.0112 -0.1102 -0.5321
  878TIP3    H124125   2.241   0.904   3.002 -0.7775 -1.9401 -0.3060
  878TIP3    H224126   2.318   0.775   2.985  1.7189 -0.7576  1.5710
  879TIP3   OH224127   6.322   2.837  12.403 -0.5086  0.6205  0.0717
  879TIP3    H124128   6.295   2.878  12.320 -2.4236 -0.1112  0.2886
  879TIP3    H224129   6.393   2.778  12.378 -1.7690 -0.4091 -1.2933
  880TIP3   OH224130   0.563   6.068   1.319  0.5630  0.1615  0.6845
  880TIP3    H124131   0.607   6.136   1.370 -0.8641  0.5382  1.4723
  880TIP3    H224132   0.629   5.998   1.310  1.4882  0.9245  1.3319
  881TIP3   OH224133   6.463   0.848   5.083 -0.7558  0.0973 -0.0616
  881TIP3    H124134   6.429   0.903   5.154 -0.6741  1.3441 -0.9503
  881TIP3    H224135   6.395   0.782   5.069 -0.5825 -0.4243  1.4357
  882TIP3   OH224136   2.311   3.949  11.885  0.2767 -0.4438  0.6266
  882TIP3    H124137   2.219   3.932  11.866  0.4110 -0.3327 -0.1452
  882TIP3    H224138   2.352   3.862  11.886  0.4234 -0.4005 -0.4585
  883TIP3   OH224139   5.093   1.252  16.381 -0.0557  0.2121  0.1097
  883TIP3    H124140   5.017   1.195  16.380 -1.2952  1.8113 -1.0936
  883TIP3    H224141   5.066   1.328  16.432  0.6125  0.9472 -0.5880
  884TIP3   OH224142   1.878   0.243   5.237  0.4183  0.2516 -0.3874
  884TIP3    H124143   1.834   0.170   5.280 -1.5146  1.2649 -0.5011
  884TIP3    H224144   1.928   0.285   5.306  0.7417 -0.5842 -0.1035
  885TIP3   OH224145   3.539   5.841   0.523 -0.5112  0.1663 -0.4351
  885TIP3    H124146   3.553   5.794   0.605 -0.9316  0.2994 -0.2850
  885TIP3    H224147   3.522   5.772   0.459 -2.1959  0.1323 -0.0064
  886TIP3   OH224148   3.520   2.481   5.673 -0.1185 -0.0163  0.4266
  886TIP3    H124149   3.431   2.480   5.636 -0.4224  1.4860  1.0374
  886TIP3    H224150   3.559   2.399   5.644 -1.7072 -0.7031  0.1404
  887TIP3   OH224151   3.842   2.711   3.977  0.2622  0.0652 -0.4923
  887TIP3    H124152   3.763   2.755   3.945 -1.3381  0.2980  3.3156
  887TIP3    H224153   3.895   2.781   4.014  0.3651 -0.5323  0.5210
  888TIP3   OH224154   3.512   3.864  13.972  0.8773  0.1460  0.1297
  888TIP3    H124155   3.571   3.917  14.025  1.4546 -0.1390 -0.2062
  888TIP3    H224156   3.514   3.778  14.013  0.2859  0.2739  0.4211
  889TIP3   OH224157   2.912   0.667  11.514  0.3740  0.6472  0.0199
  889TIP3    H124158   2.980   0.711  11.463 -0.2650  2.8373  0.9622
  889TIP3    H224159   2.926   0.574  11.496  3.6130  0.9934  0.1710
  890TIP3   OH224160   3.683   0.223   4.143  0.6928 -0.1212  0.5277
  890TIP3    H124161   3.703   0.130   4.150 -0.6589 -0.4546  0.3453
  890TIP3    H224162   3.596   0.226   4.103  1.4778  1.2731 -1.2549
  891TIP3   OH224163   3.513   2.152  15.429 -0.6709  0.2384  0.4054
  891TIP3    H124164   3.501   2.112  15.343  0.4469  0.0055  0.3499
  891TIP3    H224165   3.557   2.086  15.481 -0.2220  0.8274  0.7849
  892TIP3   OH224166   2.551   3.340  15.680 -0.2194 -0.3827  0.0260
  892TIP3    H124167   2.491   3.283  15.728 -0.9634 -1.0648 -1.6267
  892TIP3    H224168   2.500   3.372  15.606  0.7175  1.0735 -0.0350
  893TIP3   OH224169   0.674   2.537  14.127  0.0327  0.4832 -0.7113
  893TIP3    H124170   0.669   2.457  14.075 -0.2002  1.0984 -1.6869
  893TIP3    H224171   0.588   2.545  14.168 -1.0293  1.7181 -2.9808
  894TIP3   OH224172   6.121   0.715   3.336 -0.2595  0.6146 -0.2545
  894TIP3    H124173   6.070   0.673   3.267 -0.7735  1.1952 -0.2478
  894TIP3    H224174   6.066   0.707   3.414  1.1167 -1.6988  0.5816
  895TIP3   OH224175   0.353   3.054  13.837 -0.3710 -0.1339  0.7507
  895TIP3    H124176   0.404   3.132  13.862 -0.9915 -0.0383  1.7722
  895TIP3    H224177   0.391   2.983  13.888  0.0492 -0.4775 -0.0183
  896TIP3   OH224178   0.368   1.249   1.156  0.3222  0.3054 -0.6229
  896TIP3    H124179   0.316   1.319   1.117 -2.3153 -1.1141  0.0965
  896TIP3    H224180   0.363   1.177   1.093 -1.1652 -0.8471  0.7193
  897TIP3   OH224181   3.089   1.324   0.812 -0.0522  0.0926  0.4769
  897TIP3    H124182   3.127   1.267   0.879 -0.0510  0.2881  0.6473
  897TIP3    H224183   3.057   1.400   0.862 -1.5062 -0.4708  0.4761
  898TIP3   OH224184   2.422   2.839  12.060  0.1601 -0.1397  0.2255
  898TIP3    H124185   2.411   2.791  12.141 -2.0406 -0.9720 -0.4973
  898TIP3    H224186   2.415   2.773  11.991  0.4711  0.7598 -0.7027
  899TIP3   OH224187   4.553   1.124  13.821 -0.5492 -0.0010  0.0345
  899TIP3    H124188   4.464   1.150  13.843 -0.7702 -1.0886  0.4905
  899TIP3    H224189   4.595   1.205  13.791 -1.2028  0.8792  1.3931
  900TIP3   OH224190   2.918   5.656   0.841 -0.1490 -0.3376 -0.1786
  900TIP3    H124191   2.962   5.576   0.812 -1.9524 -2.0266  1.4821
  900TIP3    H224192   2.828   5.646   0.813 -0.7781  0.3310  1.4731
  901TIP3   OH224193   6.661   3.008  12.616 -0.1413  0.6437 -0.2874
  901TIP3    H124194   6.709   2.978  12.693  2.2140 -0.8680 -2.2028
  901TIP3    H224195   6.723   3.064  12.570 -1.1898  0.8338 -1.5014
  902TIP3   OH224196   0.482   4.448   2.101 -0.1650  0.6238 -0.2045
  902TIP3    H124197   0.424   4.373   2.115 -0.2430  0.1115 -2.8013
  902TIP3    H224198   0.570   4.411   2.101  0.1041  1.1334  1.9715
  903TIP3   OH224199   5.439   3.908  17.201  0.2676  0.1782  0.3512
  903TIP3    H124200   5.458   3.839  17.265 -1.3983 -0.3505  0.3307
  903TIP3    H224201   5.513   3.968  17.208  1.1522 -0.9605  1.2683
  904TIP3   OH224202   1.066   5.027  12.799 -0.3689  0.2991 -0.0117
  904TIP3    H124203   1.140   5.032  12.738 -0.3358 -3.6854 -0.5379
  904TIP3    H224204   1.090   5.087  12.870  2.0426  1.2152 -1.4610
  905TIP3   OH224205   0.220   3.181  16.008 -0.1194 -0.0834 -0.2907
  905TIP3    H124206   0.226   3.221  16.095  0.1876  1.7986 -1.1328
  905TIP3    H224207   0.129   3.152  16.001 -1.5033  3.8147 -0.9376
  906TIP3   OH224208   1.172   0.304  12.882  0.3491  0.0755  0.1203
  906TIP3    H124209   1.251   0.334  12.837  1.6250 -2.4034  0.5454
  906TIP3    H224210   1.128   0.247  12.819  0.1350 -0.3941  0.6785
  907TIP3   OH224211   3.834   0.646   1.829  0.6443  0.0285 -0.0778
  907TIP3    H124212   3.886   0.605   1.899 -1.8665 -0.1594  1.8232
  907TIP3    H224213   3.787   0.574   1.788 -0.1673  0.4675  0.0659
  908TIP3   OH224214   5.965   1.779  17.224 -0.3467  0.0454  0.5744
  908TIP3    H124215   5.978   1.708  17.161  1.5374  0.9629 -0.1548
  908TIP3    H224216   5.923   1.849  17.174 -1.8494 -0.3654  1.1967
  909TIP3   OH224217   3.138   2.849   1.326  0.2092 -0.4526  0.0525
  909TIP3    H124218   3.144   2.754   1.318  0.7229 -0.4286  0.1295
  909TIP3    H224219   3.044   2.867   1.324  0.1154 -0.9428 -0.1632
  910TIP3   OH224220   5.371   2.336   0.326 -0.5269 -0.6061  0.0625
  910TIP3    H124221   5.463   2.324   0.301 -0.3480  2.5095 -1.2501
  910TIP3    H224222   5.322   2.306   0.249 -0.4969 -0.3917 -0.0410
  911TIP3   OH224223   3.269   2.330  15.243 -0.4434 -0.2870  0.3105
  911TIP3    H124224   3.337   2.313  15.178 -0.2676  1.4247 -0.0086
  911TIP3    H224225   3.259   2.426  15.242 -2.7611 -0.4790  0.4496
  912TIP3   OH224226   0.782   1.195   2.956  0.4532 -0.6784 -0.1449
  912TIP3    H124227   0.699   1.220   2.916  0.9107  1.5921  0.2408
  912TIP3    H224228   0.757   1.135   3.027 -0.8862  0.2232  0.1797
  913TIP3   OH224229   1.964   2.402  14.246  0.1787 -0.0992 -0.3102
  913TIP3    H124230   1.948   2.495  14.261  0.1777 -0.2564  0.6879
  913TIP3    H224231   2.058   2.391  14.257  0.2294 -0.1537 -0.7843
  914TIP3   OH224232   0.476   5.107   1.268  0.1861 -0.1255  0.1699
  914TIP3    H124233   0.528   5.048   1.213  2.4848  1.0454  1.0032
  914TIP3    H224234   0.442   5.172   1.206  0.7864 -0.1579 -0.2033
  915TIP3   OH224235   1.410   2.037   1.608 -0.4239  0.5921 -0.0685
  915TIP3    H124236   1.350   1.977   1.562 -1.1562  0.8858  0.4930
  915TIP3    H224237   1.431   2.104   1.543  0.4166 -0.2619 -0.7103
  916TIP3   OH224238   2.244   3.560  13.404 -0.4026 -0.3780  0.3971
  916TIP3    H124239   2.189   3.584  13.478 -1.6543 -1.4914 -0.1506
  916TIP3    H224240   2.196   3.590  13.327 -0.7785 -2.2687 -0.1542
  917TIP3   OH224241   0.253   0.211   0.326 -0.0366  0.4345  0.4751
  917TIP3    H124242   0.190   0.253   0.385  0.8786 -0.3461  2.0949
  917TIP3    H224243   0.227   0.239   0.239 -3.7671 -1.2713  0.8399
  918TIP3   OH224244   3.708   2.476  12.185  0.1250  0.0721 -0.1337
  918TIP3    H124245   3.679   2.530  12.112 -1.1876  0.4826  0.6537
  918TIP3    H224246   3.789   2.517  12.215  0.6039 -0.0266 -1.2522
  919TIP3   OH224247   3.392   6.226  13.788  0.6325 -0.2023 -0.0463
  919TIP3    H124248   3.310   6.206  13.831  1.4617 -1.2354  1.1264
  919TIP3    H224249   3.455   6.238  13.859  1.9820 -1.6747 -0.9085
  920TIP3   OH224250   1.804   2.159  16.667 -0.2258 -1.1322  0.1711
  920TIP3    H124251   1.882   2.172  16.720  0.3051 -1.3504 -0.5415
  920TIP3    H224252   1.746   2.105  16.721 -0.3470 -0.0720  1.1379
  921TIP3   OH224253   5.339   1.684  15.253  0.2748 -0.7233  0.0985
  921TIP3    H124254   5.408   1.618  15.268  0.3833 -0.5430  0.3846
  921TIP3    H224255   5.387   1.765  15.235  0.1412 -0.2038  1.9708
  922TIP3   OH224256   5.540   0.877   1.356  0.2371 -0.3230  0.0652
  922TIP3    H124257   5.500   0.876   1.444  1.1855 -1.9869  0.5115
  922TIP3    H224258   5.615   0.936   1.365 -0.7761  1.0537 -0.1828
  923TIP3   OH224259   3.248   5.484  16.767  0.4729  0.0894  0.3288
  923TIP3    H124260   3.333   5.512  16.732  0.0301 -0.0463 -0.9177
  923TIP3    H224261   3.228   5.547  16.836  0.9775  0.9254 -0.2742
  924TIP3   OH224262   6.113   1.411   2.839 -0.0175 -0.4847 -0.0136
  924TIP3    H124263   6.023   1.434   2.816 -0.1578  0.1330  1.1212
  924TIP3    H224264   6.147   1.368   2.760 -1.1381 -0.2783 -0.6308
  925TIP3   OH224265   2.169   5.365   2.039 -0.4273 -0.1067  0.5313
  925TIP3    H124266   2.097   5.330   1.988 -0.8888  0.5460  0.7222
  925TIP3    H224267   2.128   5.409   2.113  0.0967  1.1995  0.0775
  926TIP3   OH224268   0.578   3.272   3.710  0.2789  0.2179 -0.0282
  926TIP3    H124269   0.503   3.221   3.741 -1.5706  1.7626 -1.6439
  926TIP3    H224270   0.572   3.268   3.615  1.0228  2.0520 -0.2074
  927TIP3   OH224271   4.156   2.831   1.507 -0.3709  0.1034  0.0540
  927TIP3    H124272   4.102   2.898   1.466  1.2296  0.9129 -0.7919
  927TIP3    H224273   4.196   2.784   1.433 -1.0203 -1.4551  0.6365
  928TIP3   OH224274   5.167   2.974   3.601 -0.8220  0.1935 -0.5059
  928TIP3    H124275   5.082   2.941   3.630 -0.6816 -0.6567 -1.0628
  928TIP3    H224276   5.204   3.014   3.680 -0.3260 -2.3483  0.6241
  929TIP3   OH224277   2.279   3.620  14.973 -0.2967  0.2742 -0.4022
  929TIP3    H124278   2.234   3.694  15.014  1.8178  0.7096  1.2904
  929TIP3    H224279   2.300   3.561  15.045  0.3509 -0.7503 -1.3844
  930TIP3   OH224280   2.121   4.438   0.992 -0.4233 -0.4823  0.9882
  930TIP3    H124281   2.197   4.496   0.983  1.1828 -2.2013  2.2818
  930TIP3    H224282   2.092   4.422   0.903 -0.7596  2.0117  0.5779
  931TIP3   OH224283   5.238   1.030  15.259  0.3418  0.6190  0.8550
  931TIP3    H124284   5.259   0.937  15.247 -2.9457 -0.5400  2.9565
  931TIP3    H224285   5.143   1.035  15.249  0.5088  4.0098 -0.2432
  932TIP3   OH224286   3.654   1.451  14.051 -0.0554 -0.5887  0.0447
  932TIP3    H124287   3.560   1.436  14.040 -0.3520  0.7588  0.5416
  932TIP3    H224288   3.660   1.543  14.079  1.3114 -1.0711  1.4533
  933TIP3   OH224289   2.530   3.709  11.366  0.0873  0.2917 -0.3417
  933TIP3    H124290   2.570   3.775  11.423 -0.4293  0.0270  0.3408
  933TIP3    H224291   2.503   3.758  11.288  1.2685  0.5587 -0.5923
  934TIP3   OH224292   5.547   2.541   1.774 -0.2115  0.1187  0.0117
  934TIP3    H124293   5.464   2.588   1.763 -0.0700  1.2255  2.6804
  934TIP3    H224294   5.580   2.573   1.858  0.2356 -4.3052  1.7924
  935TIP3   OH224295   5.142   6.079  14.989 -0.3401 -0.2652 -0.0739
  935TIP3    H124296   5.234   6.092  14.966 -0.3762  1.7751  0.7091
  935TIP3    H224297   5.143   6.017  15.062  0.4406  0.0011  0.1409
  936TIP3   OH224298   2.945   4.166   4.154 -0.1863 -0.3097 -0.2596
  936TIP3    H124299   2.916   4.086   4.111 -0.8945  0.1570 -0.6723
  936TIP3    H224300   2.868   4.224   4.151 -0.2725 -0.2576  1.6108
  937TIP3   OH224301   2.957   4.595  13.209 -0.1216  0.8002 -0.3101
  937TIP3    H124302   2.869   4.634  13.210 -0.3578  0.2965  1.2078
  937TIP3    H224303   2.990   4.609  13.298  1.0736  0.3652 -0.6680
  938TIP3   OH224304   3.197   3.877  13.206 -0.6161  0.1225  0.4441
  938TIP3    H124305   3.244   3.816  13.150 -0.6724  1.1132 -0.7190
  938TIP3    H224306   3.266   3.926  13.251 -0.5424  0.4588 -0.0268
  939TIP3   OH224307   5.539   3.260  15.540 -0.4319 -0.2181 -0.4608
  939TIP3    H124308   5.504   3.181  15.498 -2.0042  0.4420 -0.4393
  939TIP3    H224309   5.558   3.232  15.630 -3.6607  0.0556  0.4127
  940TIP3   OH224310   6.268   0.169  12.484  0.2215 -0.3672 -0.4256
  940TIP3    H124311   6.281   0.153  12.390  0.9742 -0.7125 -0.2715
  940TIP3    H224312   6.176   0.192  12.492  0.1964 -0.1386 -1.2808
  941TIP3   OH224313   3.293   5.920   5.748  0.5583  0.3447  0.0156
  941TIP3    H124314   3.281   5.893   5.657 -0.4234 -1.1460  0.5448
  941TIP3    H224315   3.269   6.013   5.748  0.1657  0.2678 -1.1637
  942TIP3   OH224316   2.233   0.366  13.385  0.1752  0.0932 -0.2500
  942TIP3    H124317   2.324   0.397  13.381 -0.0730  1.0899  1.2041
  942TIP3    H224318   2.239   0.284  13.434  0.2561  0.2939  0.0767
  943TIP3   OH224319   6.016   6.473  12.699 -0.2208  0.2510 -0.4196
  943TIP3    H124320   6.068   6.553  12.700 -0.9966  0.7701 -0.1966
  943TIP3    H224321   5.981   6.467  12.788 -1.5096  0.5895 -0.8804
  944TIP3   OH224322   2.096   3.750  13.264  0.3692 -0.2332  0.0922
  944TIP3    H124323   2.071   3.841  13.278  0.5849 -0.1916  0.2130
  944TIP3    H224324   2.080   3.735  13.171 -0.5322 -0.3444  0.2641
  945TIP3   OH224325   2.700   3.803  15.413 -0.1605  0.2508 -0.2108
  945TIP3    H124326   2.671   3.721  15.372  0.7081 -0.0985 -0.1494
  945TIP3    H224327   2.782   3.824  15.368  1.1496 -0.4621  1.7227
  946TIP3   OH224328   6.074   4.304   6.072 -0.2778 -0.3214 -0.0469
  946TIP3    H124329   5.985   4.303   6.108 -0.1931 -1.5443  0.1627
  946TIP3    H224330   6.130   4.310   6.149 -0.1526 -0.6965 -0.1091
  947TIP3   OH224331   5.792   4.695  17.171  0.0303  0.1822 -0.0336
  947TIP3    H124332   5.841   4.661  17.246  2.0341  1.8430 -0.4825
  947TIP3    H224333   5.725   4.629  17.154 -0.0700 -0.5605  2.7669
  948TIP3   OH224334   6.288   5.563   5.181 -0.5644  0.1354 -0.3729
  948TIP3    H124335   6.375   5.541   5.214 -0.7434 -2.0128 -1.2050
  948TIP3    H224336   6.302   5.642   5.128  0.6967  0.3347  0.2153
  949TIP3   OH224337   1.697   6.475  14.351  0.4577 -1.0986 -0.1431
  949TIP3    H124338   1.639   6.549  14.335  2.0186  0.3022  0.3230
  949TIP3    H224339   1.733   6.453  14.265  0.8818 -0.4991 -0.1293
  950TIP3   OH224340   1.045   1.099  12.635  0.2647  0.4409 -0.0623
  950TIP3    H124341   1.141   1.100  12.634  0.2971  2.0022  0.5713
  950TIP3    H224342   1.021   1.185  12.600 -0.9540 -0.4137 -1.4070
  951TIP3   OH224343   2.129   4.656  15.664 -0.1626  0.6205 -0.4615
  951TIP3    H124344   2.082   4.579  15.633 -0.7677  0.6555  0.3524
  951TIP3    H224345   2.071   4.729  15.645  0.5247  0.9238 -1.4775
  952TIP3   OH224346   1.567   1.644  14.190 -0.0452  0.1753 -0.0929
  952TIP3    H124347   1.508   1.711  14.225 -0.9342 -1.2510  1.2907
  952TIP3    H224348   1.546   1.639  14.097  0.2021  1.9464 -0.2723
  953TIP3   OH224349   2.592   3.647   4.100  0.5141 -0.5326  0.6285
  953TIP3    H124350   2.529   3.637   4.029  0.0712 -3.1985  1.2932
  953TIP3    H224351   2.556   3.718   4.154 -0.2534  0.0759 -0.6369
  954TIP3   OH224352   0.079   6.811   5.167 -0.1562  0.1720  0.0169
  954TIP3    H124353   0.081   6.758   5.088 -1.0088  0.3361 -0.1293
  954TIP3    H224354   0.156   6.867   5.161 -0.4651  0.5199 -0.9360
  955TIP3   OH224355   1.809   2.167   6.607  0.2707 -0.0694  0.4982
  955TIP3    H124356   1.717   2.190   6.617  0.5197  1.3907 -0.2636
  955TIP3    H224357   1.854   2.212   6.679  0.6397  1.1551 -0.4469
  956TIP3   OH224358   2.040   2.852   4.044  0.2546  0.0654  0.0125
  956TIP3    H124359   2.123   2.815   4.074  0.4155 -0.2249 -0.7578
  956TIP3    H224360   2.006   2.900   4.119 -0.5190 -2.5538  1.4374
  957TIP3   OH224361   2.465   1.375   6.472  0.0709  0.5525 -0.3746
  957TIP3    H124362   2.536   1.318   6.503 -0.7984  1.4446  3.8570
  957TIP3    H224363   2.503   1.463   6.473 -0.7795  0.9173  0.9238
  958TIP3   OH224364   5.905   1.271  16.110  0.1413  0.2492  0.3883
  958TIP3    H124365   5.866   1.359  16.105  1.2804  0.6831 -1.5879
  958TIP3    H224366   5.963   1.275  16.186  1.2356  1.6981 -0.4711
  959TIP3   OH224367   0.298   6.449  11.675  0.0314  0.8403 -0.1478
  959TIP3    H124368   0.317   6.521  11.735  0.0655  0.6696  0.0476
  959TIP3    H224369   0.206   6.429  11.691  0.7408 -1.1803  2.0224
  960TIP3   OH224370   6.745   0.831   3.516 -0.2291  0.2071  0.1691
  960TIP3    H124371   6.722   0.825   3.423 -0.8707 -0.7784  0.3724
  960TIP3    H224372   6.810   0.901   3.520 -0.6094  0.6548 -0.9425
  961TIP3   OH224373   6.424   3.526   1.866  0.3106  0.4591  0.0008
  961TIP3    H124374   6.348   3.505   1.921 -1.7933 -0.4565 -2.9528
  961TIP3    H224375   6.414   3.619   1.847 -1.4096 -0.0339 -1.9776
  962TIP3   OH224376   2.845   5.547   1.410  0.2344  0.3427 -0.2458
  962TIP3    H124377   2.864   5.472   1.466  1.9721  0.9077 -0.0238
  962TIP3    H224378   2.810   5.614   1.469 -0.3022  0.0845 -0.2670
  963TIP3   OH224379   0.088   5.424  15.615  0.7606 -0.5303 -0.5692
  963TIP3    H124380   0.172   5.432  15.570  3.1371 -1.4268  3.2553
  963TIP3    H224381   0.080   5.504  15.667 -0.8854 -0.3968 -0.9568
  964TIP3   OH224382   4.709   3.345   5.772 -0.4001  0.3760  0.7251
  964TIP3    H124383   4.796   3.306   5.782 -0.2424  0.5692  0.1256
  964TIP3    H224384   4.702   3.405   5.847 -0.0382  0.3291  0.8012
  965TIP3   OH224385   2.647   3.723   3.071 -1.1270 -0.3164  0.0997
  965TIP3    H124386   2.674   3.806   3.034  0.0786 -0.2176  1.1387
  965TIP3    H224387   2.705   3.658   3.032  0.7312 -0.1109  2.2764
  966TIP3   OH224388   3.236   0.372  13.464 -0.3174  0.0725  0.1047
  966TIP3    H124389   3.307   0.357  13.526 -0.3081 -0.2311  0.0239
  966TIP3    H224390   3.156   0.351  13.512 -0.2688 -0.8112 -0.1752
  967TIP3   OH224391   4.642   3.264   4.922 -0.0808 -0.2354 -0.6229
  967TIP3    H124392   4.556   3.228   4.900  0.0701 -0.8478 -0.2017
  967TIP3    H224393   4.649   3.255   5.017  0.8386 -1.0616 -0.7559
  968TIP3   OH224394   5.964   4.196   0.710 -0.0827  0.0690 -0.1414
  968TIP3    H124395   5.870   4.195   0.696 -0.2920  0.6720  1.1680
  968TIP3    H224396   5.990   4.288   0.694  0.3856 -0.1971 -1.0274
  969TIP3   OH224397   1.428   5.172  12.891  0.1540 -0.2694  0.2168
  969TIP3    H124398   1.506   5.227  12.883  0.2067 -0.3769  0.0006
  969TIP3    H224399   1.411   5.141  12.802 -1.6835  1.9030 -0.3042
  970TIP3   OH224400   4.988   2.770  16.222 -0.2061 -0.0768  0.3970
  970TIP3    H124401   4.895   2.749  16.209  0.1708 -0.6370 -1.7252
  970TIP3    H224402   5.001   2.853  16.176  0.4565 -0.2527  0.2598
  971TIP3   OH224403   5.030   2.280   5.361  0.3273  0.1622 -0.0929
  971TIP3    H124404   4.994   2.327   5.436 -0.8870  0.7957 -1.0403
  971TIP3    H224405   5.123   2.303   5.361  0.1326  0.9928  0.6052
  972TIP3   OH224406   2.712   2.074   0.617  0.1739  0.3757  0.2695
  972TIP3    H124407   2.651   2.002   0.632  0.4630 -0.0243 -0.4125
  972TIP3    H224408   2.735   2.067   0.524  1.1068  0.6294  0.4683
  973TIP3   OH224409   4.673   6.401   5.563  0.1592  0.4049  0.0544
  973TIP3    H124410   4.742   6.346   5.600  1.9912  1.4402 -1.6610
  973TIP3    H224411   4.597   6.343   5.558  0.8068 -0.7237  2.1477
  974TIP3   OH224412   0.483   4.023   3.099  0.2802 -0.1524  0.1299
  974TIP3    H124413   0.572   4.054   3.117  0.8843 -1.5598 -0.2736
  974TIP3    H224414   0.478   3.937   3.140 -0.9085 -0.0935  0.1541
  975TIP3   OH224415   2.933   6.456  11.697  0.4114 -0.1843 -0.2766
  975TIP3    H124416   2.981   6.470  11.616  1.4163  0.1181  0.3491
  975TIP3    H224417   2.921   6.544  11.733  0.8978 -0.3914  0.4094
  976TIP3   OH224418   4.396   2.644   5.475  0.2725 -0.1693  0.0457
  976TIP3    H124419   4.326   2.627   5.538 -1.0115 -0.9285 -1.5203
  976TIP3    H224420   4.469   2.590   5.506  0.3003  0.7867  1.8146
  977TIP3   OH224421   6.563   0.546   1.368  0.3371 -0.5226  0.2763
  977TIP3    H124422   6.543   0.597   1.446  1.1387  0.0293  0.1358
  977TIP3    H224423   6.602   0.465   1.402 -1.3206 -1.2549  0.5134
  978TIP3   OH224424   3.373   5.691  11.380  0.1744  0.0915  1.2249
  978TIP3    H124425   3.368   5.724  11.290  0.2831 -0.0301  1.1751
  978TIP3    H224426   3.419   5.608  11.373 -1.3242 -0.7599  1.1743
  979TIP3   OH224427   0.902   1.955   3.117 -0.3542  0.1523  0.0839
  979TIP3    H124428   0.889   1.881   3.176  1.0082 -1.3252 -1.3547
  979TIP3    H224429   0.963   1.922   3.051 -1.7983  1.7115 -2.1587
  980TIP3   OH224430   4.265   4.997  10.904  0.2394 -0.2030 -0.3069
  980TIP3    H124431   4.238   4.915  10.945  0.5362 -1.4312 -2.4030
  980TIP3    H224432   4.190   5.056  10.916 -0.2665 -1.0141  0.6142
  981TIP3   OH224433   2.528   0.569   0.293  0.1094  0.3858  0.9952
  981TIP3    H124434   2.546   0.553   0.386  3.0947 -0.9342  0.3289
  981TIP3    H224435   2.521   0.481   0.256  1.2834  0.8376 -0.3625
  982TIP3   OH224436   6.342   5.921  16.264 -0.0280  0.1368 -0.0020
  982TIP3    H124437   6.300   5.836  16.277  0.8328 -0.2531  0.3349
  982TIP3    H224438   6.347   5.931  16.169  0.8937 -0.7349 -0.0671
  983TIP3   OH224439   0.993   6.646   2.888  0.4591 -0.4236  0.5638
  983TIP3    H124440   1.059   6.715   2.899  2.1095 -1.5836 -1.2878
  983TIP3    H224441   0.944   6.647   2.969  1.7710  1.5369  1.4218
  984TIP3   OH224442   2.704   2.871  11.673 -0.5246 -0.2433 -0.1993
  984TIP3    H124443   2.644   2.931  11.630  0.4692 -0.2998 -1.7130
  984TIP3    H224444   2.787   2.881  11.626 -0.1070 -2.1982  0.0377
  985TIP3   OH224445   4.528   1.379  12.187 -0.5865 -0.0740 -0.2661
  985TIP3    H124446   4.609   1.430  12.180 -0.3991 -0.2923  0.2831
  985TIP3    H224447   4.550   1.294  12.148 -0.0358 -0.7181  1.3744
  986TIP3   OH224448   5.338   5.554   0.314 -0.5627  0.1816 -0.2704
  986TIP3    H124449   5.427   5.568   0.347 -0.0608 -0.2353 -1.4006
  986TIP3    H224450   5.316   5.465   0.340 -0.2245 -0.0942 -0.9059
  987TIP3   OH224451   4.566   5.173  11.218 -0.4239 -0.2152  0.5128
  987TIP3    H124452   4.651   5.210  11.194 -1.0134  0.5805 -0.4570
  987TIP3    H224453   4.583   5.080  11.233  0.5014 -0.1950 -0.3317
  988TIP3   OH224454   4.692   0.404  14.890 -0.8586 -0.0041  0.8026
  988TIP3    H124455   4.668   0.338  14.955  1.6326 -2.3037 -0.4035
  988TIP3    H224456   4.777   0.436  14.920 -0.6379  0.4195 -0.2555
  989TIP3   OH224457   4.127   0.509  13.048 -0.3743 -0.2077 -0.3589
  989TIP3    H124458   4.164   0.591  13.080  2.2197 -0.8090 -1.5428
  989TIP3    H224459   4.166   0.441  13.103  0.5863 -0.8832 -1.7970
  990TIP3   OH224460   3.748   2.420  14.323  0.1389  0.2297  0.4481
  990TIP3    H124461   3.762   2.482  14.395 -2.4096  0.2428  1.0227
  990TIP3    H224462   3.836   2.388  14.301  1.0078 -0.2274  3.9661
  991TIP3   OH224463   0.347   2.442  13.116  0.3690  0.3585  0.0911
  991TIP3    H124464   0.413   2.388  13.160  0.3275 -1.1010 -1.5550
  991TIP3    H224465   0.394   2.481  13.042 -0.3792  0.0882 -0.5307
  992TIP3   OH224466   2.479   0.256   2.620  0.2160 -0.0932 -0.4518
  992TIP3    H124467   2.396   0.233   2.661  0.9109 -0.8404  0.5965
  992TIP3    H224468   2.496   0.186   2.557  0.4233 -0.3892 -0.0785
  993TIP3   OH224469   0.777   6.788   3.442 -0.3046  0.5717 -0.2861
  993TIP3    H124470   0.753   6.698   3.464  2.8288 -0.3094  0.0450
  993TIP3    H224471   0.713   6.814   3.376 -0.6441 -2.3461 -1.2747
  994TIP3   OH224472   0.009   2.428  10.564 -0.4533  0.3067  0.1300
  994TIP3    H124473  -0.023   2.500  10.509 -1.6360 -0.0004  0.3997
  994TIP3    H224474  -0.035   2.350  10.529 -0.3005 -0.0702  0.7724
  995TIP3   OH224475   4.092   6.364  14.714  0.1667 -0.2521  0.7779
  995TIP3    H124476   4.106   6.271  14.696  0.5458  0.1147 -0.9352
  995TIP3    H224477   4.031   6.393  14.646  2.5081  1.4461 -0.7289
  996TIP3   OH224478   5.046   1.214  13.228 -0.4615 -0.3584  0.1434
  996TIP3    H124479   5.056   1.172  13.314  1.0501 -1.1131 -0.3710
  996TIP3    H224480   5.090   1.299  13.237 -2.3886  0.6232  0.7948
  997TIP3   OH224481   1.190   6.208  13.992 -0.4794 -0.4324  0.2918
  997TIP3    H124482   1.231   6.125  13.967  0.6247  0.0321  0.5144
  997TIP3    H224483   1.125   6.184  14.058 -1.4506 -1.3348 -0.9422
  998TIP3   OH224484   4.731   5.838  17.073 -0.3559 -0.2036 -0.0908
  998TIP3    H124485   4.789   5.906  17.106 -0.8949  1.3540 -2.1108
  998TIP3    H224486   4.782   5.757  17.077  0.5412  0.4154  1.7294
  999TIP3   OH224487   5.438   0.921  14.692 -0.2026  0.8082  0.3168
  999TIP3    H124488   5.424   0.839  14.645 -1.2919 -0.1867  2.2335
  999TIP3    H224489   5.531   0.939  14.682 -0.0701 -0.3168 -0.6655
 1000TIP3   OH224490   3.569   3.794   2.684  0.4185 -0.1192 -0.6373
 1000TIP3    H124491   3.507   3.771   2.754  0.7002 -2.5788 -1.0948
 1000TIP3    H224492   3.599   3.882   2.706 -0.9603 -0.0576  1.2491
 1001TIP3   OH224493   3.916   6.598  13.779  0.2445 -0.3991 -0.7520
 1001TIP3    H124494   3.948   6.516  13.815 -2.2679 -0.9643  0.4088
 1001TIP3    H224495   3.883   6.575  13.692  1.3879 -0.1607 -1.2641
 1002TIP3   OH224496   0.096   0.228   4.798  0.7218  0.6434 -0.5244
 1002TIP3    H124497   0.149   0.250   4.722  0.2041  1.8841 -0.5425
 1002TIP3    H224498   0.057   0.311   4.825 -0.8361 -0.1536 -0.2284
 1003TIP3   OH224499   2.239   0.887   3.877 -0.1107  0.6575  0.2553
 1003TIP3    H124500   2.148   0.888   3.908 -0.7500 -0.7573 -1.4178
 1003TIP3    H224501   2.291   0.890   3.957 -1.6608 -1.5567  1.4687
 1004TIP3   OH224502   1.502   0.491  10.978 -0.9344  0.4647 -0.2967
 1004TIP3    H124503   1.466   0.500  10.889 -1.8534 -2.8711 -0.3733
 1004TIP3    H224504   1.521   0.398  10.987 -0.7307  0.7150  2.9822
 1005TIP3   OH224505   4.097   2.970  11.873  0.6213  0.4737  0.0654
 1005TIP3    H124506   4.032   3.039  11.889  1.3725  1.0167  0.8847
 1005TIP3    H224507   4.127   2.986  11.784 -0.2874  0.2726 -0.2927
 1006TIP3   OH224508   0.569   4.162  14.400  0.6339 -0.1924 -0.6048
 1006TIP3    H124509   0.614   4.231  14.351  0.1071  0.0626 -0.7398
 1006TIP3    H224510   0.520   4.208  14.468  3.4280 -0.6963  1.9528
 1007TIP3   OH224511   5.986   6.553  15.908  0.4044 -0.4688  0.2125
 1007TIP3    H124512   5.978   6.592  15.995  0.2520  0.5020 -0.2226
 1007TIP3    H224513   6.080   6.556  15.889  0.3598 -0.0557  0.0626
 1008TIP3   OH224514   3.073   0.248   5.702  0.7700 -0.4392 -0.6423
 1008TIP3    H124515   3.088   0.164   5.659  1.0687 -1.6636  1.6794
 1008TIP3    H224516   3.114   0.239   5.788 -1.3452  1.1546  0.6403
 1009TIP3   OH224517   4.623   6.395  13.701 -0.0898 -0.8084  0.0718
 1009TIP3    H124518   4.528   6.404  13.707 -0.0799  0.1381 -0.8737
 1009TIP3    H224519   4.641   6.391  13.607  0.8639 -0.2816  0.2221
 1010TIP3   OH224520   4.155   1.838  11.432 -0.3044  0.0402 -0.3506
 1010TIP3    H124521   4.098   1.842  11.355 -1.9342  1.7584  0.8788
 1010TIP3    H224522   4.242   1.860  11.398 -0.6238 -0.9973 -1.9747
 1011TIP3   OH224523   6.442   2.116  14.181  0.1022 -0.6768  0.3268
 1011TIP3    H124524   6.362   2.072  14.149  0.9522 -1.8643 -0.2604
 1011TIP3    H224525   6.483   2.052  14.239  0.8399 -0.2484  0.2918
 1012TIP3   OH224526   2.630   2.785  14.340 -0.0250 -0.1276 -0.2736
 1012TIP3    H124527   2.588   2.798  14.255 -1.5214  1.4274  0.6487
 1012TIP3    H224528   2.607   2.695  14.365 -1.0620 -0.0027 -0.7367
 1013TIP3   OH224529   1.403   6.506   1.170 -0.3007  0.3356  0.4003
 1013TIP3    H124530   1.441   6.532   1.086  0.8035 -0.8294  0.5027
 1013TIP3    H224531   1.458   6.433   1.199 -0.0648  1.2871  2.5663
 1014TIP3   OH224532   3.030   0.235   5.236 -0.0964 -0.2531 -0.1407
 1014TIP3    H124533   3.048   0.177   5.161  1.6732  1.8539 -1.4663
 1014TIP3    H224534   2.958   0.192   5.282  0.9026 -3.3445 -1.1758
 1015TIP3   OH224535   2.812   5.039   0.627  0.8141 -0.4831  0.0814
 1015TIP3    H124536   2.775   5.125   0.645 -1.6041 -1.4499  0.0632
 1015TIP3    H224537   2.838   5.043   0.535 -0.6756 -0.2115 -0.3496
 1016TIP3   OH224538   3.601   3.604  15.910 -0.1751  0.3795 -0.2739
 1016TIP3    H124539   3.679   3.657  15.926 -1.9178  2.7785  0.8043
 1016TIP3    H224540   3.624   3.518  15.948  1.3291  1.5231  1.6623
 1017TIP3   OH224541   2.399   6.488  17.154 -0.2852  0.3306 -0.1505
 1017TIP3    H124542   2.449   6.570  17.153  0.9434 -0.3873  0.5194
 1017TIP3    H224543   2.407   6.454  17.065  0.0594  0.4385 -0.1640
 1018TIP3   OH224544   0.583   3.069   2.574 -0.1160 -0.3558 -0.0712
 1018TIP3    H124545   0.547   3.085   2.487 -1.0486 -0.6541  0.2552
 1018TIP3    H224546   0.665   3.022   2.557 -0.4228 -0.6556 -0.7754
 1019TIP3   OH224547   4.188   1.426   3.691  0.0432 -0.0698  0.3925
 1019TIP3    H124548   4.213   1.494   3.754 -1.7215  0.8538  0.1802
 1019TIP3    H224549   4.166   1.350   3.744 -1.3621  0.6773  0.9456
 1020TIP3   OH224550   6.261   2.683  14.836 -0.2551  0.6971 -0.3107
 1020TIP3    H124551   6.278   2.694  14.742 -0.1180 -0.7439 -0.4810
 1020TIP3    H224552   6.171   2.652  14.841 -1.0733  2.9800  0.2269
 1021TIP3   OH224553   4.739   3.770   0.154 -0.2835  0.0597  0.0692
 1021TIP3    H124554   4.689   3.832   0.207 -2.9655 -1.0881 -0.9471
 1021TIP3    H224555   4.781   3.712   0.218 -1.2417  0.3450  0.9855
 1022TIP3   OH224556   6.631   1.016   3.008 -0.0471 -0.2589 -0.4626
 1022TIP3    H124557   6.566   0.947   2.998  0.6764 -0.8800 -1.0259
 1022TIP3    H224558   6.710   0.982   2.965  0.6558  0.4669  0.1957
 1023TIP3   OH224559   3.681   5.493   2.409  0.0905 -0.5444 -0.2606
 1023TIP3    H124560   3.745   5.428   2.381  0.1037 -0.7440  0.2321
 1023TIP3    H224561   3.705   5.515   2.499  0.8498  1.0781 -0.8167
 1024TIP3   OH224562   2.629   0.281   1.330 -0.4135  0.1324  0.6443
 1024TIP3    H124563   2.602   0.362   1.286 -1.3561 -1.0480 -1.0403
 1024TIP3    H224564   2.718   0.300   1.360 -0.6367  1.8144  0.3745
 1025TIP3   OH224565   2.124   1.813   1.713  0.0516  0.5606  0.1231
 1025TIP3    H124566   2.147   1.905   1.703  0.5845  0.3181 -0.9621
 1025TIP3    H224567   2.198   1.774   1.760  1.0670  0.1711 -1.7101
 1026TIP3   OH224568   2.964   4.283   2.422  0.2237 -0.6270  0.0180
 1026TIP3    H124569   2.909   4.284   2.343  1.0030  0.0712 -0.5287
 1026TIP3    H224570   2.950   4.370   2.461 -0.1251 -0.9541  0.6348
 1027TIP3   OH224571   5.710   3.300   0.716  0.6374 -0.3163  0.1302
 1027TIP3    H124572   5.615   3.313   0.725  0.5263 -1.2245  0.4332
 1027TIP3    H224573   5.723   3.287   0.622  0.4977  0.0776  0.0559
 1028TIP3   OH224574   6.045   0.518  17.200 -0.2412 -0.2809  0.5300
 1028TIP3    H124575   6.110   0.588  17.197 -0.2934 -0.1348  2.0103
 1028TIP3    H224576   6.089   0.446  17.246 -0.2515 -1.1647 -0.8154
 1029TIP3   OH224577   6.112   5.283  11.651 -0.0928  0.2413  0.1538
 1029TIP3    H124578   6.083   5.231  11.576  2.2170 -0.8588 -0.0554
 1029TIP3    H224579   6.159   5.356  11.612  0.3179  0.1692  0.5137
 1030TIP3   OH224580   0.434   0.753   1.593  0.2712  0.1340 -0.4244
 1030TIP3    H124581   0.384   0.720   1.518 -0.6345 -0.7124  0.5242
 1030TIP3    H224582   0.435   0.681   1.656 -0.5316  1.4104  1.1280
 1031TIP3   OH224583   4.551   5.143   2.638  0.1538  0.0538 -0.0519
 1031TIP3    H124584   4.562   5.161   2.545  2.0504  1.3430  0.3612
 1031TIP3    H224585   4.639   5.118   2.668  0.5943  3.6161  2.1281
 1032TIP3   OH224586   4.796   1.330   5.512 -0.8969  0.4546 -0.2902
 1032TIP3    H124587   4.863   1.262   5.514 -1.7713 -0.5506 -2.1216
 1032TIP3    H224588   4.843   1.411   5.533  0.6037 -0.4156 -0.1761
 1033TIP3   OH224589   4.232   0.304   5.509 -0.7127 -0.1516  0.4469
 1033TIP3    H124590   4.175   0.367   5.552 -1.3315 -0.6460  0.3812
 1033TIP3    H224591   4.269   0.351   5.434  2.0533  1.3984  2.6165
 1034TIP3   OH224592   1.494   1.940   3.302  0.3696  0.6023 -0.4910
 1034TIP3    H124593   1.476   2.034   3.314 -0.5473  0.2411  1.3175
 1034TIP3    H224594   1.408   1.901   3.287  0.2463 -0.3463  2.1084
 1035TIP3   OH224595   6.638   4.703   2.083 -0.1568 -0.2241  0.3485
 1035TIP3    H124596   6.693   4.627   2.103 -1.1471 -1.2761 -0.8093
 1035TIP3    H224597   6.700   4.772   2.062  0.7456 -1.1846 -0.2362
 1036TIP3   OH224598   1.721   3.593   4.792 -0.0514  0.5559  0.2573
 1036TIP3    H124599   1.742   3.662   4.728  1.0760  2.0913  2.1722
 1036TIP3    H224600   1.625   3.588   4.790 -0.0514  0.4971 -1.5781
 1037TIP3   OH224601   3.293   2.240  15.799  0.1925 -0.0914 -0.1527
 1037TIP3    H124602   3.228   2.170  15.787  1.6779 -1.4578 -0.5091
 1037TIP3    H224603   3.293   2.288  15.716  0.5794 -0.9241 -0.6448
 1038TIP3   OH224604   0.221   5.900   0.750  0.4867  0.7234 -0.2022
 1038TIP3    H124605   0.220   5.978   0.695  1.5295  1.1467  0.3571
 1038TIP3    H224606   0.286   5.843   0.710 -2.1746 -1.1283 -2.2419
 1039TIP3   OH224607   4.016   5.490  13.551  0.0302  0.1752 -0.4559
 1039TIP3    H124608   3.997   5.398  13.569 -1.0973  0.4922  0.0028
 1039TIP3    H224609   4.084   5.487  13.484  0.6131 -0.9919  0.1578
 1040TIP3   OH224610   5.202   5.852   1.773  0.4916 -0.1311  0.2730
 1040TIP3    H124611   5.149   5.928   1.752 -0.1621 -0.8892 -0.9390
 1040TIP3    H224612   5.285   5.866   1.727  0.7421  0.2932  0.8465
 1041TIP3   OH224613   5.836   5.465   2.823  0.2317  0.2846 -1.0026
 1041TIP3    H124614   5.837   5.418   2.906  0.9856 -1.3813 -1.9024
 1041TIP3    H224615   5.747   5.453   2.790  0.1379  0.3338 -0.7696
 1042TIP3   OH224616   1.711   2.627  14.850  0.4090 -0.5714  0.3327
 1042TIP3    H124617   1.738   2.666  14.933 -2.2811 -0.3425  1.2219
 1042TIP3    H224618   1.746   2.685  14.783  1.4451  0.0232  1.3605
 1043TIP3   OH224619   1.305   0.321   5.871 -0.0228 -0.1913  0.0878
 1043TIP3    H124620   1.295   0.366   5.955 -0.5524 -0.0482 -0.0472
 1043TIP3    H224621   1.342   0.387   5.813  0.8415 -0.4422  0.3395
 1044TIP3   OH224622   6.435   1.266  14.584 -0.2926  0.6772 -0.3822
 1044TIP3    H124623   6.422   1.180  14.623  0.1711  0.7431 -0.0766
 1044TIP3    H224624   6.371   1.322  14.628  0.9286  0.9854  1.0621
 1045TIP3   OH224625   5.941   0.295   2.231 -0.0576  0.2874 -0.0280
 1045TIP3    H124626   5.902   0.214   2.196  0.4074 -0.2666  0.7229
 1045TIP3    H224627   5.884   0.320   2.304  0.6031 -0.1545  0.6467
 1046TIP3   OH224628   4.241   2.972  11.612 -0.0918 -0.2412 -0.0736
 1046TIP3    H124629   4.285   2.898  11.570  0.1739  1.1192 -2.3471
 1046TIP3    H224630   4.148   2.960  11.591 -0.1137 -0.1890 -0.0075
 1047TIP3   OH224631   1.470   3.495  16.854  0.5467 -0.0780 -0.3542
 1047TIP3    H124632   1.454   3.548  16.932  3.0683 -1.6755  1.3897
 1047TIP3    H224633   1.491   3.559  16.785 -1.9937  1.3753  0.1092
 1048TIP3   OH224634   3.524   0.920   2.728 -0.2302 -0.2331 -0.1019
 1048TIP3    H124635   3.434   0.946   2.745  0.0837  1.6419 -1.0524
 1048TIP3    H224636   3.521   0.878   2.641  0.0229  1.2631 -0.8587
 1049TIP3   OH224637   3.988   4.123  12.295  0.3146  0.3903 -0.5789
 1049TIP3    H124638   4.062   4.082  12.250  1.3727  1.8067 -0.1789
 1049TIP3    H224639   3.927   4.051  12.311  0.8095 -0.5083 -2.4560
 1050TIP3   OH224640   5.683   2.282   4.332  0.0307 -1.1224  0.0348
 1050TIP3    H124641   5.768   2.304   4.292 -0.3393  1.0237  0.2836
 1050TIP3    H224642   5.649   2.366   4.362 -1.7918 -2.0712  0.7610
 1051TIP3   OH224643   3.757   0.392   1.424  0.0496 -0.3956  0.9093
 1051TIP3    H124644   3.845   0.366   1.453  0.7299 -0.7149 -1.2020
 1051TIP3    H224645   3.755   0.487   1.434  0.4301 -0.4491  1.5175
 1052TIP3   OH224646   3.857   6.221  13.875 -0.2799 -0.2893  0.4581
 1052TIP3    H124647   3.764   6.222  13.899 -0.3551 -1.1107  0.2507
 1052TIP3    H224648   3.857   6.245  13.782 -0.4116 -1.5050  0.1298
 1053TIP3   OH224649   3.548   2.082   3.969  0.0047  0.2622 -0.0342
 1053TIP3    H124650   3.455   2.065   3.952 -0.1779  1.3490 -0.1969
 1053TIP3    H224651   3.552   2.176   3.986  0.9713  0.0994  0.7200
 1054TIP3   OH224652   1.319   1.751   4.041 -0.1025 -0.0617 -0.3620
 1054TIP3    H124653   1.368   1.786   3.966  0.9835  0.3402  0.5128
 1054TIP3    H224654   1.384   1.702   4.091 -0.1372  1.9112  1.7518
 1055TIP3   OH224655   5.051   3.909   0.498 -0.0272 -0.0123 -0.3466
 1055TIP3    H124656   4.996   3.986   0.513  0.5747  0.2073  0.8400
 1055TIP3    H224657   4.991   3.835   0.508 -0.6092  0.2863 -1.5023
 1056TIP3   OH224658   1.773   1.945   2.758  0.0653  0.1502  0.4630
 1056TIP3    H124659   1.823   1.865   2.771 -1.8628 -1.5223 -1.5452
 1056TIP3    H224660   1.834   2.005   2.714  1.4121 -0.3248  1.6161
 1057TIP3   OH224661   6.714   3.933  11.051  0.4503  0.1282  0.4854
 1057TIP3    H124662   6.735   3.855  11.101 -0.0733  1.0699  2.2715
 1057TIP3    H224663   6.632   3.964  11.089  0.2235  1.1146 -0.7275
 1058TIP3   OH224664   0.454   2.100  16.424  0.1788  0.0652  0.9321
 1058TIP3    H124665   0.465   2.042  16.349 -0.7972  0.7322  0.2562
 1058TIP3    H224666   0.518   2.170  16.410 -0.8427  0.8428  0.0650
 1059TIP3   OH224667   5.670   3.075  14.499 -0.2344 -1.1574  0.1499
 1059TIP3    H124668   5.631   3.058  14.413 -0.6210 -2.6535  0.5838
 1059TIP3    H224669   5.728   3.000  14.514  2.1437  0.5619 -0.0598
 1060TIP3   OH224670   3.261   5.914  17.113 -0.5209 -0.3245 -0.7329
 1060TIP3    H124671   3.341   5.898  17.163 -1.2160  1.0529  0.9379
 1060TIP3    H224672   3.289   5.966  17.038  0.0141  1.7297  0.7723
 1061TIP3   OH224673   4.527   0.975   4.991  0.2683  0.3685  0.3047
 1061TIP3    H124674   4.481   0.952   5.072 -1.1760  1.8083 -0.0540
 1061TIP3    H224675   4.459   1.010   4.934  1.6321  1.5392 -0.6798
 1062TIP3   OH224676   6.124   4.793  15.193  0.3630  0.0482  0.2975
 1062TIP3    H124677   6.075   4.855  15.139  0.6789  0.4102  0.4250
 1062TIP3    H224678   6.057   4.742  15.239  0.0575 -0.8222 -1.0352
 1063TIP3   OH224679   3.814   6.441   6.504  0.5002 -0.0496 -0.2740
 1063TIP3    H124680   3.767   6.360   6.485 -1.0197  0.2646  1.7379
 1063TIP3    H224681   3.753   6.511   6.479  1.3710  0.4662 -1.0096
 1064TIP3   OH224682   0.489   3.143   0.312 -0.0957  0.0341  0.3365
 1064TIP3    H124683   0.453   3.083   0.379  0.1320 -0.7560 -0.2352
 1064TIP3    H224684   0.441   3.121   0.232  0.3838  0.2382 -0.0099
 1065TIP3   OH224685   2.817   4.326  14.799 -0.0110 -0.3563 -0.0775
 1065TIP3    H124686   2.808   4.251  14.741 -0.6532 -1.3932  1.2991
 1065TIP3    H224687   2.867   4.390  14.749  0.4269 -1.6424 -1.3331
 1066TIP3   OH224688   5.532   5.143  10.822 -0.5529  0.0435 -0.3162
 1066TIP3    H124689   5.521   5.142  10.918  0.5673  1.2201 -0.1530
 1066TIP3    H224690   5.626   5.136  10.809 -0.7235 -0.5103 -1.3657
 1067TIP3   OH224691   1.212   6.088  14.813 -0.4957 -0.2974  0.6980
 1067TIP3    H124692   1.281   6.142  14.850  0.1131 -0.4716 -0.1630
 1067TIP3    H224693   1.233   5.999  14.841 -0.5133 -0.3189  0.6439
 1068TIP3   OH224694   5.018   6.056  16.451  0.2749 -0.4952  0.2934
 1068TIP3    H124695   5.046   6.018  16.534  0.7423 -0.4908  0.1450
 1068TIP3    H224696   4.950   6.119  16.475 -0.1068 -1.0152  0.5949
 1069TIP3   OH224697   3.718   5.798   1.457 -0.1602 -0.0593  0.1315
 1069TIP3    H124698   3.763   5.818   1.375  2.1456 -0.7961  1.1373
 1069TIP3    H224699   3.788   5.770   1.516 -1.9209 -0.7783  1.9683
 1070TIP3   OH224700   5.068   3.301  14.873 -0.2570 -0.5470  0.2319
 1070TIP3    H124701   5.134   3.238  14.844 -0.5298 -1.3095  1.2293
 1070TIP3    H224702   5.119   3.375  14.907  0.0669  0.2013 -1.7475
 1071TIP3   OH224703   4.934   5.755  13.945  0.4172  0.4072  0.0105
 1071TIP3    H124704   4.899   5.704  14.019  0.5908  0.6775  0.2841
 1071TIP3    H224705   4.861   5.760  13.883  0.5895 -0.6956 -0.2994
 1072TIP3   OH224706   1.863   4.621  13.832  0.3042  0.3280 -0.7226
 1072TIP3    H124707   1.930   4.614  13.765  1.2474 -0.0270  0.2257
 1072TIP3    H224708   1.888   4.557  13.899 -0.6001  0.6680 -0.0224
 1073TIP3   OH224709   1.404   1.620   5.537  0.5136 -0.5213  0.3898
 1073TIP3    H124710   1.411   1.635   5.442 -1.5685 -1.5695 -0.0032
 1073TIP3    H224711   1.396   1.708   5.574  2.5889 -0.0160 -0.2186
 1074TIP3   OH224712   3.869   1.485  14.474 -0.0580  0.0460  0.4458
 1074TIP3    H124713   3.810   1.447  14.409  1.2448 -0.1114 -0.6942
 1074TIP3    H224714   3.920   1.411  14.507  1.7648  0.5692 -1.0179
 1075TIP3   OH224715   2.768   0.083  13.093 -0.1009  0.2925 -0.8562
 1075TIP3    H124716   2.689   0.056  13.139  1.4457 -0.7560  1.3344
 1075TIP3    H224717   2.803   0.003  13.055  1.0062  0.3303  0.0226
 1076TIP3   OH224718   3.383   6.152  11.466 -0.5224 -0.7224 -0.3000
 1076TIP3    H124719   3.408   6.169  11.375 -0.9645  2.1628  0.0224
 1076TIP3    H224720   3.303   6.101  11.460 -0.2141 -1.0926 -1.5115
 1077TIP3   OH224721   1.790   0.770  13.882 -0.3526  0.1429 -0.5614
 1077TIP3    H124722   1.705   0.748  13.922 -0.5453 -0.1744 -1.1424
 1077TIP3    H224723   1.786   0.865  13.870 -0.7585  0.0907 -0.8760
 1078TIP3   OH224724   3.097   0.247  16.217 -0.2284  0.2206  0.4405
 1078TIP3    H124725   3.022   0.188  16.215  0.3072 -0.4541 -1.2235
 1078TIP3    H224726   3.127   0.251  16.127  0.7682  1.7634  0.7929
 1079TIP3   OH224727   5.682   0.690   5.400 -0.7464 -0.3552 -0.0151
 1079TIP3    H124728   5.761   0.719   5.354  0.5494 -3.9089 -0.3146
 1079TIP3    H224729   5.679   0.744   5.479 -0.5600  2.8444 -2.0126
 1080TIP3   OH224730   3.237   4.827   4.555 -0.4885 -0.4860 -0.3514
 1080TIP3    H124731   3.321   4.834   4.511 -0.0428 -0.4774  0.4853
 1080TIP3    H224732   3.174   4.809   4.485  0.3377 -1.4158 -0.8739
 1081TIP3   OH224733   3.994   2.578   2.969 -0.0197  0.4930  0.2198
 1081TIP3    H124734   4.004   2.556   2.877  0.1224 -1.4776  0.6526
 1081TIP3    H224735   3.902   2.602   2.979 -0.6588 -1.6475 -0.0401
 1082TIP3   OH224736   1.105   4.908   2.933 -0.2178 -0.6469  0.6496
 1082TIP3    H124737   1.086   4.863   2.851 -0.7678  0.2332  0.2716
 1082TIP3    H224738   1.169   4.853   2.978 -0.1359 -1.2809 -0.2401
 1083TIP3   OH224739   4.722   2.645   0.263 -0.0044  0.3093  0.3460
 1083TIP3    H124740   4.796   2.638   0.323  0.4158  0.6167 -0.1235
 1083TIP3    H224741   4.690   2.556   0.253  0.7450  0.0636  0.0130
 1084TIP3   OH224742   5.121   4.965  14.637 -0.2307  0.3664 -0.7491
 1084TIP3    H124743   5.213   4.959  14.614 -0.4073 -0.0225 -1.3900
 1084TIP3    H224744   5.109   4.899  14.705  0.0368  0.6811 -0.3883
 1085TIP3   OH224745   3.138   0.681  16.458  0.1278 -0.7127 -0.2448
 1085TIP3    H124746   3.174   0.694  16.546 -2.0069 -0.4238  0.6492
 1085TIP3    H224747   3.110   0.590  16.457  0.0675 -0.6907 -0.5910
 1086TIP3   OH224748   2.416   3.274   5.307 -0.3005  0.1442 -0.3749
 1086TIP3    H124749   2.363   3.341   5.264 -2.2479 -1.0780  0.0353
 1086TIP3    H224750   2.356   3.229   5.366  1.3831 -0.8064  0.7109
 1087TIP3   OH224751   0.217   1.043   6.040 -0.7100  0.6365  0.1563
 1087TIP3    H124752   0.178   1.083   6.118 -1.8118  2.0548 -1.0457
 1087TIP3    H224753   0.208   0.948   6.055 -0.5411  0.8566  1.8883
 1088TIP3   OH224754   1.455   0.107   2.138  0.6309  0.0499 -0.6381
 1088TIP3    H124755   1.394   0.122   2.211  0.9049  0.4697 -0.4926
 1088TIP3    H224756   1.536   0.078   2.180  0.0078 -2.3403 -0.9196
 1089TIP3   OH224757   3.927   6.026   0.765  0.3770  0.1961 -0.6765
 1089TIP3    H124758   3.882   5.942   0.755 -1.7247  1.0597  0.8040
 1089TIP3    H224759   3.883   6.069   0.839  2.4986  1.9125 -0.2880
 1090TIP3   OH224760   4.692   2.068  14.387  0.2840  0.4375 -0.2716
 1090TIP3    H124761   4.730   2.154  14.402  0.7682  0.0399  0.8805
 1090TIP3    H224762   4.615   2.066  14.443  1.2450 -0.4960  1.0782
 1091TIP3   OH224763   3.858   2.870   3.593  0.1278  0.1281 -0.0456
 1091TIP3    H124764   3.949   2.896   3.579 -0.5897  2.6220 -0.6376
 1091TIP3    H224765   3.822   2.860   3.505 -0.2478 -0.6009  0.1854
 1092TIP3   OH224766   6.319   4.763  16.012  0.2009  0.2271 -0.3601
 1092TIP3    H124767   6.243   4.736  16.063  0.2820 -2.0318 -1.2810
 1092TIP3    H224768   6.390   4.771  16.075 -0.4076  0.5864  0.2783
 1093TIP3   OH224769   1.914   2.491   5.803  0.3492  0.3826 -0.0871
 1093TIP3    H124770   1.974   2.544   5.856 -1.3044  4.0252 -1.5059
 1093TIP3    H224771   1.950   2.495   5.715  0.0423 -0.7730 -0.2834
 1094TIP3   OH224772   1.965   2.363  12.323 -0.5149  0.2035  0.3475
 1094TIP3    H124773   2.006   2.419  12.389  0.7853 -0.5994  0.2633
 1094TIP3    H224774   1.876   2.349  12.354  0.4168 -1.1857  2.6295
 1095TIP3   OH224775   6.355   0.539  13.996  0.6896 -0.0593 -0.7316
 1095TIP3    H124776   6.414   0.541  13.921 -0.4405  0.5961 -1.6313
 1095TIP3    H224777   6.269   0.518  13.960  0.2270 -0.3288  0.4566
 1096TIP3   OH224778   5.390   0.387   3.135 -0.4900 -0.3250 -0.8404
 1096TIP3    H124779   5.381   0.411   3.227  0.3909  2.0779 -1.3034
 1096TIP3    H224780   5.401   0.292   3.136 -1.3566 -0.4587  1.4471
 1097TIP3   OH224781   2.312   4.002  11.595  0.7127 -0.4545  0.1605
 1097TIP3    H124782   2.394   3.963  11.566  0.6057 -0.0692 -0.6721
 1097TIP3    H224783   2.319   4.003  11.691  1.1190 -1.6076  0.1545
 1098TIP3   OH224784   5.167   2.140  14.547  0.6357 -0.1682 -0.4008
 1098TIP3    H124785   5.232   2.150  14.616  0.0362  0.1441  0.1329
 1098TIP3    H224786   5.083   2.147  14.592  0.2132  2.1420 -1.4193
 1099TIP3   OH224787   4.082   2.227  16.850 -0.2713  0.0398  0.5874
 1099TIP3    H124788   4.007   2.239  16.792 -0.3425  0.2199  0.7185
 1099TIP3    H224789   4.151   2.194  16.793 -0.1020  0.9498  0.2449
 1100TIP3   OH224790   0.370   5.797  13.444  0.3185  0.6995 -0.5468
 1100TIP3    H124791   0.405   5.721  13.398  0.6435 -1.0771  2.4041
 1100TIP3    H224792   0.283   5.810  13.405 -0.3130 -2.0820 -0.2274
 1101TIP3   OH224793   0.967   1.523  16.789 -0.3002 -0.0189 -0.1321
 1101TIP3    H124794   0.916   1.492  16.864  0.9853  0.5488  1.0305
 1101TIP3    H224795   0.994   1.611  16.814  2.1517 -0.6864 -0.1932
 1102TIP3   OH224796   4.172   6.104  14.562  0.3691  0.4748  0.1008
 1102TIP3    H124797   4.114   6.029  14.578  0.8831  0.1972  0.6911
 1102TIP3    H224798   4.119   6.164  14.509  0.0177 -0.3838 -0.5442
 1103TIP3   OH224799   5.458   1.397   6.099 -0.4090  0.6149 -0.2252
 1103TIP3    H124800   5.390   1.330   6.094 -0.4682  0.6014  0.6828
 1103TIP3    H224801   5.418   1.475   6.061 -1.3505  0.9287  1.3296
 1104TIP3   OH224802   1.033   0.358   0.279 -0.0063 -0.3681 -0.0015
 1104TIP3    H124803   0.993   0.444   0.289  0.0706 -0.0644 -2.0099
 1104TIP3    H224804   0.961   0.300   0.255  0.3442 -0.3211 -1.1982
 1105TIP3   OH224805   1.352   5.919   2.163 -0.4258 -0.1166 -0.1072
 1105TIP3    H124806   1.408   5.903   2.239 -0.7921 -1.0312 -0.0284
 1105TIP3    H224807   1.309   6.002   2.183 -2.3322 -1.4582  1.8149
 1106TIP3   OH224808   0.486   5.166   3.734 -0.1852  0.2031  0.5389
 1106TIP3    H124809   0.518   5.187   3.646 -0.3957 -2.0216 -0.1297
 1106TIP3    H224810   0.535   5.088   3.760 -0.2131  0.7434  2.3665
 1107TIP3   OH224811   6.086   1.837   5.334 -0.2118  0.6125  0.1775
 1107TIP3    H124812   6.028   1.906   5.367  1.1978  1.5353  0.8204
 1107TIP3    H224813   6.125   1.875   5.255 -1.5387 -0.5674 -1.1176
 1108TIP3   OH224814   5.873   0.977   1.079 -0.2195  0.5019 -0.2050
 1108TIP3    H124815   5.870   0.946   0.988 -0.2150  0.6670 -0.2610
 1108TIP3    H224816   5.782   0.999   1.100 -0.9674 -3.1131  1.0733
 1109TIP3   OH224817   3.171   5.370   1.137 -0.1429  0.0221  0.0778
 1109TIP3    H124818   3.137   5.319   1.063  0.3067 -0.0418 -0.0935
 1109TIP3    H224819   3.266   5.357   1.133  0.0665  1.4565 -0.4255
 1110TIP3   OH224820   1.773   3.669   2.848 -0.5406  0.3888 -0.1684
 1110TIP3    H124821   1.750   3.641   2.759  0.3459 -1.0706  0.0343
 1110TIP3    H224822   1.705   3.733   2.871 -0.8890  0.6565 -1.8188
 1111TIP3   OH224823   3.348   6.724  15.678 -0.0787  0.2864 -0.4929
 1111TIP3    H124824   3.294   6.790  15.634 -0.1524  1.5984  1.4213
 1111TIP3    H224825   3.356   6.757  15.768  2.3899 -0.8071 -0.2409
 1112TIP3   OH224826   0.112   5.352  11.294  0.8875  0.3011  0.4525
 1112TIP3    H124827   0.115   5.308  11.209  0.0779  2.1846 -0.6274
 1112TIP3    H224828   0.195   5.329  11.336  0.1669 -2.8329  0.3380
 1113TIP3   OH224829   5.346   3.344   1.662 -0.5166 -0.3015  0.0711
 1113TIP3    H124830   5.322   3.254   1.683 -0.6804 -0.7849 -1.9597
 1113TIP3    H224831   5.281   3.397   1.707 -1.0526 -1.2564  0.4472
 1114TIP3   OH224832   2.088   5.948   1.475 -0.2077 -0.1671  0.0871
 1114TIP3    H124833   2.124   5.873   1.428  2.3573  1.2439 -0.3777
 1114TIP3    H224834   2.007   5.915   1.515  0.9250 -3.2125  0.1101
 1115TIP3   OH224835   1.717   1.785  15.415 -0.7525 -0.0736 -0.8471
 1115TIP3    H124836   1.673   1.775  15.499  1.0416 -0.1493  0.1477
 1115TIP3    H224837   1.810   1.796  15.438 -0.3670  1.1407 -2.7646
 1116TIP3   OH224838   4.328   3.900  12.388  0.7447  0.2913  0.7293
 1116TIP3    H124839   4.399   3.960  12.410  0.2259  0.9075  0.7513
 1116TIP3    H224840   4.293   3.934  12.306 -0.2177  0.6359  1.2680
 1117TIP3   OH224841   0.362   3.259  14.090 -0.3821  0.2384  0.1288
 1117TIP3    H124842   0.371   3.346  14.128 -1.4507  0.4831 -0.1257
 1117TIP3    H224843   0.411   3.263  14.008  0.5101  0.2418  0.6581
 1118TIP3   OH224844   5.252   0.931   1.826 -0.3186  0.8027  0.1559
 1118TIP3    H124845   5.311   0.879   1.771  0.7698  2.4990 -0.3440
 1118TIP3    H224846   5.167   0.927   1.781  0.1265  0.7330 -0.6821
 1119TIP3   OH224847   4.632   4.277  15.066 -0.2027 -0.6486 -0.1754
 1119TIP3    H124848   4.680   4.247  14.989  0.5093 -0.2763  0.1154
 1119TIP3    H224849   4.669   4.363  15.085 -0.3790 -0.7344  0.5724
 1120TIP3   OH224850   1.546   5.015   0.616  0.0599 -0.3958  0.4715
 1120TIP3    H124851   1.557   5.108   0.599  0.6352 -0.6062 -0.4247
 1120TIP3    H224852   1.599   4.972   0.548 -1.3463 -1.3956 -0.0399
 1121TIP3   OH224853   1.539   5.053   4.845 -0.2022 -0.5250 -0.7217
 1121TIP3    H124854   1.523   5.103   4.924 -0.2209 -0.1172 -0.9809
 1121TIP3    H224855   1.519   5.113   4.773 -0.7867 -1.0763 -1.0376
 1122TIP3   OH224856   1.532   6.307  12.890 -0.3936  0.2523  0.3901
 1122TIP3    H124857   1.443   6.275  12.879 -0.4798  0.2062  1.1860
 1122TIP3    H224858   1.528   6.363  12.967  0.0643  1.0397 -0.1408
 1123TIP3   OH224859   0.464   0.038  12.652  0.0993  0.3377 -0.0150
 1123TIP3    H124860   0.553   0.017  12.625  0.0879  0.1452  0.0909
 1123TIP3    H224861   0.459   0.008  12.743  0.0255  0.6431  0.0818
 1124TIP3   OH224862   1.063   0.743   1.882 -0.0788 -0.4448  0.5268
 1124TIP3    H124863   1.083   0.751   1.976 -0.1506  1.0052  0.4449
 1124TIP3    H224864   1.115   0.811   1.841 -0.0090 -1.1077 -0.5106
 1125TIP3   OH224865   1.195   5.981  16.719 -0.1443  0.3567 -0.4013
 1125TIP3    H124866   1.141   5.904  16.737  0.0869  0.4144  0.5509
 1125TIP3    H224867   1.281   5.945  16.695 -0.4791  0.2782 -1.5496
 1126TIP3   OH224868   4.122   2.224  13.970 -0.6137 -0.9719  0.2142
 1126TIP3    H124869   4.111   2.149  13.911 -0.3863  0.2923 -1.5412
 1126TIP3    H224870   4.067   2.292  13.931 -0.4390 -0.0744  1.4895
 1127TIP3   OH224871   5.280   5.933  14.369 -0.1034 -0.5770  0.2791
 1127TIP3    H124872   5.197   5.958  14.410 -0.4069  1.2538 -1.3023
 1127TIP3    H224873   5.295   6.000  14.302  2.2108 -1.3724 -0.0928
 1128TIP3   OH224874   3.435   5.357   5.628 -0.1207 -0.8274 -0.3199
 1128TIP3    H124875   3.441   5.272   5.585 -0.1304 -1.9376  1.7491
 1128TIP3    H224876   3.390   5.339   5.711  1.3175  0.8710  0.9044
 1129TIP3   OH224877   2.278   2.036  15.258 -0.1830 -0.3870 -0.5132
 1129TIP3    H124878   2.296   1.951  15.298  0.2036 -0.0410  0.0723
 1129TIP3    H224879   2.286   2.021  15.164  1.6937 -0.6143 -0.3695
 1130TIP3   OH224880   3.697   1.046   2.341 -0.3501 -0.1824 -0.0909
 1130TIP3    H124881   3.621   1.103   2.331  0.4099  0.6294 -1.5179
 1130TIP3    H224882   3.771   1.106   2.351  0.2563 -0.9366  0.0103
 1131TIP3   OH224883   4.992   5.556   5.475  0.0670 -0.5371  0.2730
 1131TIP3    H124884   5.057   5.585   5.411  0.2036 -0.6713  0.3505
 1131TIP3    H224885   4.998   5.620   5.546 -0.9186  0.3024 -0.3728
 1132TIP3   OH224886   5.586   1.354  15.750  0.4154 -0.1886 -0.3608
 1132TIP3    H124887   5.525   1.288  15.717 -0.8037  0.7975 -0.1823
 1132TIP3    H224888   5.616   1.320  15.834 -0.0682 -0.5952 -0.3504
 1133TIP3   OH224889   4.849   6.704  15.425 -0.3427  0.1943 -0.0543
 1133TIP3    H124890   4.758   6.715  15.396 -0.0792  0.5553 -0.7936
 1133TIP3    H224891   4.898   6.692  15.343  0.1418 -1.0685  0.3920
 1134TIP3   OH224892   4.720   0.348   4.397  0.0819 -0.0886 -0.2525
 1134TIP3    H124893   4.746   0.427   4.349 -0.9052 -1.1416 -2.7392
 1134TIP3    H224894   4.626   0.340   4.380  0.1237 -1.6812  0.1070
 1135TIP3   OH224895   0.558   6.262  13.327 -0.6445 -0.1088 -0.1313
 1135TIP3    H124896   0.627   6.200  13.301 -0.6668  0.3015 -1.2180
 1135TIP3    H224897   0.606   6.336  13.364 -0.6611 -1.3803  2.7223
 1136TIP3   OH224898   5.202   1.317   3.629  0.0861 -0.4548  0.0409
 1136TIP3    H124899   5.162   1.371   3.561  0.8414  1.6546  1.1886
 1136TIP3    H224900   5.209   1.230   3.590 -1.3890  0.1973 -1.8053
 1137TIP3   OH224901   0.947   0.047  12.913  0.1091  0.0183  0.3381
 1137TIP3    H124902   1.016   0.048  12.847  0.8405  0.2731  1.0885
 1137TIP3    H224903   0.991   0.075  12.994 -1.0391  0.9183  0.6642
 1138TIP3   OH224904   0.211   6.303  14.881 -0.1167 -0.0098 -0.2802
 1138TIP3    H124905   0.297   6.321  14.843  0.4866 -0.2074  0.9414
 1138TIP3    H224906   0.179   6.390  14.907 -0.2163  0.0488 -0.6036
 1139TIP3   OH224907   6.118   1.282  15.566 -0.3239 -0.2749  0.1907
 1139TIP3    H124908   6.071   1.340  15.507  0.0877 -0.4269 -0.2934
 1139TIP3    H224909   6.198   1.259  15.519 -0.0821 -0.5569  0.7247
 1140TIP3   OH224910   0.439   4.172  16.898  0.2944  0.5097 -0.1044
 1140TIP3    H124911   0.371   4.226  16.858  0.5744  1.7557  1.0145
 1140TIP3    H224912   0.417   4.171  16.992  0.7955 -0.6079  0.0174
 1141TIP3   OH224913   2.463   4.757  14.906 -0.1388  0.6651  0.1684
 1141TIP3    H124914   2.518   4.805  14.845 -0.9683  3.0047  1.1567
 1141TIP3    H224915   2.392   4.817  14.927 -0.1891 -0.2422  2.9994
 1142TIP3   OH224916   4.497   4.720   3.711 -0.0771 -0.0138 -0.6185
 1142TIP3    H124917   4.568   4.681   3.763  0.5287 -0.4815 -1.7476
 1142TIP3    H224918   4.480   4.805   3.753 -0.4023 -0.8311  1.0078
 1143TIP3   OH224919   6.802   5.764   0.732  0.3046  0.4895  0.0212
 1143TIP3    H124920   6.884   5.799   0.768  0.9049 -3.5071  3.2250
 1143TIP3    H224921   6.829   5.699   0.668 -0.2977 -0.6129  0.8472
 1144TIP3   OH224922   1.638   5.090   4.220  0.0314 -0.1521 -0.5139
 1144TIP3    H124923   1.552   5.097   4.178  0.1008 -0.5423 -0.7278
 1144TIP3    H224924   1.647   5.171   4.270 -1.5484 -1.1764  1.5712
 1145TIP3   OH224925   2.598   0.865  10.661  0.2133  0.2296  0.1448
 1145TIP3    H124926   2.630   0.888  10.748  1.1403 -1.3083  0.2372
 1145TIP3    H224927   2.571   0.949  10.623  1.0258  1.1037  1.4145
 1146TIP3   OH224928   6.273   0.473  10.605 -0.5406 -0.2522 -0.2061
 1146TIP3    H124929   6.196   0.526  10.625 -1.2594 -1.4708  0.3555
 1146TIP3    H224930   6.268   0.399  10.666  1.3487 -0.1057  0.2121
 1147TIP3   OH224931   4.232   2.032  12.340 -0.0109 -0.5065 -0.7483
 1147TIP3    H124932   4.211   1.950  12.296 -0.6127 -0.1966 -1.0348
 1147TIP3    H224933   4.151   2.083  12.338  0.9020  1.0136 -2.5380
 1148TIP3   OH224934   4.573   5.317  10.805 -0.6443  0.1388 -0.0644
 1148TIP3    H124935   4.658   5.357  10.786  1.6499 -2.7619  3.0799
 1148TIP3    H224936   4.580   5.228  10.771 -2.4534 -0.1778  0.3184
 1149TIP3   OH224937   6.391   0.653   3.253 -0.4158 -0.3852 -0.0461
 1149TIP3    H124938   6.316   0.667   3.311 -0.8515  0.3919 -0.7743
 1149TIP3    H224939   6.404   0.738   3.211  0.0581 -0.8747 -0.8938
 1150TIP3   OH224940   4.603   6.543   0.238  0.2630 -0.0411 -0.2696
 1150TIP3    H124941   4.634   6.631   0.258 -2.2961  0.8389  0.1978
 1150TIP3    H224942   4.619   6.493   0.319 -0.7362  0.7531  0.4385
 1151TIP3   OH224943   2.390   4.329  16.572  0.0271  0.3757  0.0360
 1151TIP3    H124944   2.312   4.335  16.517  0.5816  1.9963 -0.6679
 1151TIP3    H224945   2.357   4.340  16.661 -0.5866  0.7100 -0.2222
 1152TIP3   OH224946   3.631   2.785  12.185 -0.6975 -0.1411 -0.3214
 1152TIP3    H124947   3.562   2.826  12.236 -0.9879 -1.1983  0.1510
 1152TIP3    H224948   3.586   2.720  12.131 -0.0616 -1.0564  0.2164
 1153TIP3   OH224949   2.482   4.976  11.887  0.3680 -0.5014  0.3608
 1153TIP3    H124950   2.521   4.984  11.800 -0.1801 -0.1603  0.1414
 1153TIP3    H224951   2.467   5.066  11.915 -0.3722 -0.6239  0.3853
 1154TIP3   OH224952   4.864   6.510  14.966 -0.2431 -0.1213  0.4925
 1154TIP3    H124953   4.953   6.517  14.932 -0.8530  0.9471 -1.0401
 1154TIP3    H224954   4.833   6.425  14.936 -0.8509  0.8841 -2.0730
 1155TIP3   OH224955   0.295   1.770  16.375 -0.6209  0.2052  0.4685
 1155TIP3    H124956   0.244   1.817  16.309 -0.9788 -1.7789 -0.7259
 1155TIP3    H224957   0.231   1.748  16.443  0.0271  3.6677  2.4795
 1156TIP3   OH224958   1.061   6.448  15.410  0.6959  0.1299 -0.3143
 1156TIP3    H124959   1.014   6.531  15.406  1.8553  0.7859 -0.6934
 1156TIP3    H224960   1.005   6.387  15.362 -0.8260  0.3246  1.1299
 1157TIP3   OH224961   1.390   2.563  14.145  0.0187  0.0629 -0.0650
 1157TIP3    H124962   1.434   2.647  14.155  0.3432 -0.1206  0.0993
 1157TIP3    H224963   1.437   2.520  14.074 -1.4239  0.8161 -1.5185
 1158TIP3   OH224964   4.255   4.747  11.991  0.4453 -0.2895 -0.0930
 1158TIP3    H124965   4.278   4.769  11.901 -3.3219 -0.2364 -1.2120
 1158TIP3    H224966   4.288   4.821  12.043  0.6328  0.8434 -1.7516
 1159TIP3   OH224967   6.038   1.994   0.408 -0.2901 -0.4209  0.6845
 1159TIP3    H124968   6.082   1.990   0.323 -1.9484  1.5560 -0.3253
 1159TIP3    H224969   6.108   2.013   0.471  0.5324  1.1606 -0.6665
 1160TIP3   OH224970   4.636   0.353   4.062  0.1469 -0.0455  0.2164
 1160TIP3    H124971   4.554   0.359   4.110 -0.8335  1.0210 -1.4855
 1160TIP3    H224972   4.670   0.443   4.061  0.0894 -0.0149 -1.1045
 1161TIP3   OH224973   5.983   4.997   4.367 -0.0432 -0.6052 -0.1148
 1161TIP3    H124974   5.952   4.946   4.293 -0.8884  0.8795 -0.8204
 1161TIP3    H224975   5.937   5.081   4.360 -0.9654 -0.7863  2.6816
 1162TIP3   OH224976   4.150   1.892  15.753 -0.3753 -0.3074  0.3563
 1162TIP3    H124977   4.171   1.867  15.663  0.1085  0.3212  0.2887
 1162TIP3    H224978   4.216   1.850  15.807 -1.8340 -2.3531  0.6425
 1163TIP3   OH224979   4.880   2.776  11.320  0.3649  0.4054  0.3693
 1163TIP3    H124980   4.912   2.776  11.411  1.0556  0.7233  0.1348
 1163TIP3    H224981   4.927   2.848  11.278  0.1824  0.1454 -0.2898
 1164TIP3   OH224982   5.734   1.006  13.370  0.0497  0.2654 -0.8779
 1164TIP3    H124983   5.665   1.064  13.400  0.8197  0.2828  0.9670
 1164TIP3    H224984   5.814   1.059  13.374  0.7434 -0.8295  0.7087
 1165TIP3   OH224985   3.655   1.839   4.135  0.0664 -0.6027 -0.5535
 1165TIP3    H124986   3.645   1.845   4.230 -2.7428 -2.0272 -0.6590
 1165TIP3    H224987   3.643   1.929   4.103  0.2667 -0.2413  0.3741
 1166TIP3   OH224988   5.979   6.809  14.747  0.4468 -0.1337 -0.2821
 1166TIP3    H124989   5.910   6.869  14.776 -1.3942 -2.9368  1.5599
 1166TIP3    H224990   6.034   6.862  14.689 -1.6738  2.9735  0.3331
 1167TIP3   OH224991   0.032   6.677   5.435 -0.9939 -0.1964 -0.4099
 1167TIP3    H124992   0.081   6.707   5.358  0.1469 -3.4105 -1.1058
 1167TIP3    H224993  -0.019   6.603   5.403 -1.5740 -0.7359  1.6482
 1168TIP3   OH224994   4.216   2.913  12.446  0.0445  0.0325  0.0051
 1168TIP3    H124995   4.181   2.915  12.357 -1.7996 -1.5717  0.6293
 1168TIP3    H224996   4.182   2.992  12.487 -0.6738 -0.1690 -0.1846
 1169TIP3   OH224997   6.231   1.592  16.513  0.5629  0.1431  0.3447
 1169TIP3    H124998   6.240   1.668  16.571 -1.1137  0.7787 -0.1438
 1169TIP3    H224999   6.138   1.569  16.518  0.6937 -0.7742 -0.8780
 1170TIP3   OH225000   5.794   0.497   0.069  0.2454  0.1698  0.5435
 1170TIP3    H125001   5.704   0.465   0.081  0.1620  0.7219  1.5403
 1170TIP3    H225002   5.806   0.499  -0.026 -1.1569  1.0284  0.3391
 1171TIP3   OH225003   5.100   3.377   5.689 -0.1929 -0.1546  0.3352
 1171TIP3    H125004   5.167   3.371   5.757  1.0690  1.2123 -0.6796
 1171TIP3    H225005   5.031   3.317   5.716  1.7651 -2.1943  1.0853
 1172TIP3   OH225006   5.924   4.351  16.390  0.2830 -0.1981  0.9947
 1172TIP3    H125007   5.840   4.396  16.396 -0.3669 -1.0936 -0.7619
 1172TIP3    H225008   5.911   4.285  16.322  2.5847  0.0461  0.2451
 1173TIP3   OH225009   1.109   5.244  15.277  0.1527 -0.3763  0.0301
 1173TIP3    H125010   1.039   5.299  15.241 -0.4595 -0.6976  0.7024
 1173TIP3    H225011   1.161   5.220  15.201  0.4433  1.1301 -0.2727
 1174TIP3   OH225012   0.462   1.105  13.349 -0.5168  0.0597  0.3729
 1174TIP3    H125013   0.541   1.131  13.302  0.6789 -0.8459  1.7732
 1174TIP3    H225014   0.478   1.014  13.375 -2.0152 -0.1477  0.7042
 1175TIP3   OH225015   0.775   6.271  13.995 -0.7943 -0.1641  0.6724
 1175TIP3    H125016   0.709   6.272  13.925  0.2944 -0.9698 -0.3868
 1175TIP3    H225017   0.736   6.326  14.063 -1.7652  0.9207 -0.6681
 1176TIP3   OH225018   6.784   3.207   5.693  0.3569  0.0120 -1.0961
 1176TIP3    H125019   6.749   3.194   5.605  1.5475  0.1364 -1.6120
 1176TIP3    H225020   6.776   3.301   5.709  1.0690  0.1407 -1.4864
 1177TIP3   OH225021   5.654   4.496   3.770  0.5883  0.5379  0.3103
 1177TIP3    H125022   5.659   4.435   3.844 -0.0636 -0.9565 -0.8108
 1177TIP3    H225023   5.710   4.569   3.796  1.6658 -0.6586  1.6081
 1178TIP3   OH225024   3.864   1.454   1.955 -0.0220 -0.1198  0.3079
 1178TIP3    H125025   3.883   1.527   2.014 -0.5163 -0.1977  0.5645
 1178TIP3    H225026   3.943   1.399   1.958  1.6772  1.9104 -2.2159
 1179TIP3   OH225027   5.483   0.491   1.348 -0.1877  0.7706  0.0038
 1179TIP3    H125028   5.493   0.509   1.255 -0.1600 -1.5645 -0.4906
 1179TIP3    H225029   5.520   0.568   1.392  1.2477  1.2030 -1.8827
 1180TIP3   OH225030   1.040   2.537   4.486  0.7743  0.4796 -0.5430
 1180TIP3    H125031   0.986   2.469   4.526  1.6965 -1.5563 -2.5332
 1180TIP3    H225032   0.979   2.585   4.429  0.7976 -1.1915 -2.0546
 1181TIP3   OH225033   6.525   3.775  13.525  0.5689 -0.1455  0.9484
 1181TIP3    H125034   6.584   3.760  13.599  0.8362 -3.0218  0.2881
 1181TIP3    H225035   6.498   3.687  13.499 -1.4665  0.9371 -0.8312
 1182TIP3   OH225036   0.626   3.011  16.129 -0.5096 -0.8463 -0.0463
 1182TIP3    H125037   0.570   3.034  16.204  0.2605 -1.4903  0.7593
 1182TIP3    H225038   0.715   3.023  16.162 -0.1139 -2.8348 -0.2636
 1183TIP3   OH225039   3.205   5.781   5.533  0.3491 -0.1799 -0.7549
 1183TIP3    H125040   3.279   5.727   5.559 -1.6655 -3.2011 -0.8584
 1183TIP3    H225041   3.130   5.745   5.580 -0.9540  3.7467  0.6243
 1184TIP3   OH225042   4.721   6.045   6.175 -0.2819 -0.0933  0.0292
 1184TIP3    H125043   4.787   5.989   6.134 -1.1260  0.3408 -2.0601
 1184TIP3    H225044   4.658   5.984   6.213  0.2888 -0.5123  0.3239
 1185TIP3   OH225045   1.142   2.451  15.267 -0.3737  0.3069 -0.4202
 1185TIP3    H125046   1.164   2.521  15.327 -0.1523 -0.7466  0.7776
 1185TIP3    H225047   1.174   2.480  15.182 -1.8053  2.3890 -0.3256
 1186TIP3   OH225048   0.704   3.744  17.265 -0.2732 -0.1742  0.0820
 1186TIP3    H125049   0.615   3.727  17.234 -0.4180 -0.4366  0.6140
 1186TIP3    H225050   0.691   3.786  17.351  0.1035  1.0933 -0.4596
 1187TIP3   OH225051   1.844   2.004  17.246 -0.4711  0.2125 -0.1687
 1187TIP3    H125052   1.793   1.957  17.311  0.3087 -0.8637 -0.3054
 1187TIP3    H225053   1.921   2.034  17.294 -1.8455  3.1531  0.4232
 1188TIP3   OH225054   3.885   4.185  16.674 -0.5647  0.6978  0.4069
 1188TIP3    H125055   3.945   4.136  16.618 -1.8865  0.0330 -0.5083
 1188TIP3    H225056   3.883   4.273  16.636 -1.1015  0.3758 -0.3549
 1189TIP3   OH225057   5.452   2.801  14.290  0.4123  0.0064  0.0288
 1189TIP3    H125058   5.486   2.890  14.290 -0.3298  0.3022 -0.5880
 1189TIP3    H225059   5.523   2.748  14.252  1.1824  0.1773  1.1704
 1190TIP3   OH225060   6.260   0.717   6.163 -0.7632  0.1747  0.5127
 1190TIP3    H125061   6.319   0.710   6.238 -0.5704  1.0361  0.4469
 1190TIP3    H225062   6.173   0.700   6.199 -0.9814  2.7553  1.4223
 1191TIP3   OH225063   2.423   3.286   3.171  0.0693  0.5827 -0.1624
 1191TIP3    H125064   2.345   3.235   3.152  0.6118  0.1451 -1.2874
 1191TIP3    H225065   2.437   3.274   3.265 -1.5830  1.2150  0.1780
 1192TIP3   OH225066   6.182   6.805   5.881  0.0452  0.3157  0.6438
 1192TIP3    H125067   6.203   6.893   5.911  0.1066  0.0756  1.3308
 1192TIP3    H225068   6.201   6.749   5.957 -0.6897 -0.1945  0.4599
 1193TIP3   OH225069   4.096   2.104  14.399  0.1414 -0.6156 -0.3045
 1193TIP3    H125070   4.120   2.032  14.341 -1.8234 -1.0765 -0.6263
 1193TIP3    H225071   4.061   2.061  14.477  1.6466  0.0114  0.7824
 1194TIP3   OH225072   1.062   1.285   2.294 -0.1552 -0.0944  0.5483
 1194TIP3    H125073   1.111   1.277   2.212 -0.2882 -0.7582  0.5290
 1194TIP3    H225074   1.122   1.253   2.361 -0.2266 -0.0320  0.6413
 1195TIP3   OH225075   3.815   3.060   1.789 -0.1311 -0.0152  0.2939
 1195TIP3    H125076   3.897   3.011   1.776  0.2956  0.9120 -0.8055
 1195TIP3    H225077   3.773   3.018   1.863  0.5707 -1.5519 -0.1274
 1196TIP3   OH225078   0.602   1.481  11.108  0.2248  0.2528 -0.7619
 1196TIP3    H125079   0.589   1.507  11.200 -2.0733 -0.7551 -0.7445
 1196TIP3    H225080   0.635   1.391  11.114 -1.5252 -0.4340 -0.8868
 1197TIP3   OH225081   0.471   1.075  16.011  0.0583 -0.3885 -0.5815
 1197TIP3    H125082   0.559   1.037  16.002 -0.0585 -0.3207 -2.2554
 1197TIP3    H225083   0.420   1.034  15.942 -0.9490  0.3718 -0.3052
 1198TIP3   OH225084   1.135   2.231  15.843 -0.0284  0.1611  0.4792
 1198TIP3    H125085   1.223   2.269  15.848 -0.2094  0.4487  1.6872
 1198TIP3    H225086   1.077   2.307  15.850 -0.3811 -0.1046  0.4328
 1199TIP3   OH225087   6.599   3.293  16.094  0.3075  0.1917  0.1222
 1199TIP3    H125088   6.559   3.306  16.180  0.8505 -1.0147  0.5912
 1199TIP3    H225089   6.689   3.267  16.114  1.1554  2.1985 -0.8812
 1200TIP3   OH225090   3.051   2.819   3.280 -0.0464  0.1325 -0.5880
 1200TIP3    H125091   3.098   2.832   3.198 -0.0045  0.3347 -0.5342
 1200TIP3    H225092   3.102   2.868   3.345  1.7188 -2.5584  0.2196
 1201TIP3   OH225093   2.674   5.561  16.224 -1.2721  0.6766 -0.1530
 1201TIP3    H125094   2.646   5.630  16.284 -3.0157  1.0735 -1.3572
 1201TIP3    H225095   2.647   5.480  16.267  2.1475  0.5051  2.0034
 1202TIP3   OH225096   5.591   0.805   2.624  0.3398  0.4354 -0.2233
 1202TIP3    H125097   5.642   0.740   2.672  0.2353  0.0103 -0.6827
 1202TIP3    H225098   5.580   0.877   2.686 -0.5933 -0.4824  0.7380
 1203TIP3   OH225099   0.984   0.261  12.276  0.1003 -0.4808 -0.6236
 1203TIP3    H125100   1.022   0.321  12.211  1.1064 -0.9359 -0.4637
 1203TIP3    H225101   0.976   0.314  12.355 -0.4980 -0.1142 -0.9253
 1204TIP3   OH225102   2.670   0.339   2.252  0.0276 -0.1187 -0.2073
 1204TIP3    H125103   2.654   0.246   2.269  0.1127 -0.5852 -2.3744
 1204TIP3    H225104   2.582   0.377   2.243 -0.0106 -0.3180 -0.7544
 1205TIP3   OH225105   6.291   5.940   5.870  0.5051 -0.3260 -0.6803
 1205TIP3    H125106   6.209   5.958   5.824  0.4015  0.0701 -0.3467
 1205TIP3    H225107   6.314   5.852   5.843 -0.0907 -0.4861 -0.6931
 1206TIP3   OH225108   0.751   2.907  10.438  0.0162 -1.1031  0.1055
 1206TIP3    H125109   0.839   2.936  10.413  0.4202 -0.8978  1.6673
 1206TIP3    H225110   0.693   2.951  10.375  0.9253 -0.1634 -0.1087
 1207TIP3   OH225111   1.710   2.375  12.432 -0.2851 -0.3117 -0.0323
 1207TIP3    H125112   1.687   2.310  12.499  1.6192 -1.3502 -0.2919
 1207TIP3    H225113   1.692   2.459  12.472  1.1703 -0.8893  2.0027
 1208TIP3   OH225114   4.241   6.504  13.212 -0.4148 -0.4640  0.4321
 1208TIP3    H125115   4.225   6.435  13.148  0.0021 -0.2289  0.0699
 1208TIP3    H225116   4.309   6.559  13.172 -0.7385  0.1523  0.7191
 1209TIP3   OH225117   3.719   4.274   0.660 -1.0159 -0.2180 -0.0808
 1209TIP3    H125118   3.777   4.347   0.640 -1.7188  2.7717  6.5268
 1209TIP3    H225119   3.777   4.207   0.698 -0.9187 -1.7525 -2.6443
 1210TIP3   OH225120   5.907   5.090  13.387 -0.4401 -0.2351 -0.0032
 1210TIP3    H125121   5.939   5.153  13.452  1.4782 -0.4630 -0.6429
 1210TIP3    H225122   5.980   5.082  13.325 -1.4994 -1.4335 -1.1404
 1211TIP3   OH225123   3.266   5.143  15.352 -0.0380 -0.2040 -0.1281
 1211TIP3    H125124   3.187   5.098  15.323  0.7066 -1.9305  0.3915
 1211TIP3    H225125   3.236   5.230  15.379 -1.7927 -0.8921  0.2832
 1212TIP3   OH225126   3.087   5.051   2.200 -0.1046  0.1539  0.1821
 1212TIP3    H125127   2.994   5.040   2.179  0.1946 -1.1055 -0.5758
 1212TIP3    H225128   3.091   5.040   2.295 -0.8177  0.9734  0.3248
 1213TIP3   OH225129   3.062   2.732  11.545 -0.6904  0.2303  0.5551
 1213TIP3    H125130   3.070   2.672  11.471 -0.5023  0.0295  0.7355
 1213TIP3    H225131   3.020   2.810  11.509 -1.4804 -0.2360  0.4528
 1214TIP3   OH225132   5.235   6.675   4.954 -0.0840  0.0533  0.1270
 1214TIP3    H125133   5.228   6.633   4.868  1.8012 -0.3604  0.1344
 1214TIP3    H225134   5.217   6.605   5.017 -0.6524  0.1686  0.1033
 1215TIP3   OH225135   3.011   3.712   4.213  0.0579 -0.3306 -0.8648
 1215TIP3    H125136   2.945   3.644   4.222 -0.5902 -0.0437 -2.8800
 1215TIP3    H225137   3.079   3.688   4.275 -0.5219 -2.3793 -0.9503
 1216TIP3   OH225138   6.180   3.399  17.082 -0.0837  0.8612 -0.2558
 1216TIP3    H125139   6.151   3.313  17.113 -0.4446  1.3507  0.8574
 1216TIP3    H225140   6.270   3.386  17.053 -0.2627  0.0361 -0.4535
 1217TIP3   OH225141   1.922   4.030  16.582  0.4982 -0.3187 -0.0713
 1217TIP3    H125142   1.919   4.060  16.491  1.4553 -1.2002 -0.4177
 1217TIP3    H225143   1.923   3.934  16.576 -1.7722 -0.4757  0.9788
 1218TIP3   OH225144   1.648   4.211   2.177 -0.3224 -0.4422  0.0679
 1218TIP3    H125145   1.603   4.177   2.255  0.0712  2.0958  1.5221
 1218TIP3    H225146   1.578   4.232   2.116 -1.0825  1.4640  1.4700
 1219TIP3   OH225147   4.190   3.362  11.859 -0.2765 -0.4767 -0.0397
 1219TIP3    H125148   4.116   3.315  11.898  0.3120 -1.5058 -0.1212
 1219TIP3    H225149   4.210   3.431  11.921 -1.4822  0.0098 -0.1528
 1220TIP3   OH225150   4.636   1.170   2.657 -0.1099  0.3696  0.5182
 1220TIP3    H125151   4.650   1.206   2.569  1.1718 -0.7812  0.2181
 1220TIP3    H225152   4.679   1.233   2.716 -0.6955  0.9780  0.3005
 1221TIP3   OH225153   5.636   6.302  10.838  0.4994  0.2110  0.8200
 1221TIP3    H125154   5.702   6.333  10.775 -0.0686 -1.0613 -0.4471
 1221TIP3    H225155   5.594   6.228  10.795 -1.2069  0.4608  1.9471
 1222TIP3   OH225156   1.365   6.292  14.226 -0.5005  0.3667 -0.3026
 1222TIP3    H125157   1.317   6.251  14.155 -0.5268  0.7848 -0.5340
 1222TIP3    H225158   1.457   6.280  14.203 -0.4494 -1.4068  0.6999
 1223TIP3   OH225159   0.821   2.146  11.263 -0.1167  0.4994  0.1191
 1223TIP3    H125160   0.799   2.082  11.195  2.5561  0.1190 -0.4986
 1223TIP3    H225161   0.749   2.140  11.326 -1.4034 -0.9611 -1.4070
 1224TIP3   OH225162   4.624   3.391   2.302 -0.2130 -0.0218 -0.1046
 1224TIP3    H125163   4.635   3.346   2.219 -1.3599  0.8213 -0.7365
 1224TIP3    H225164   4.593   3.479   2.278  0.1369  0.4792  1.1735
 1225TIP3   OH225165   0.079   4.130   2.206  0.1334 -0.2815 -0.5320
 1225TIP3    H125166   0.081   4.036   2.190 -1.5712 -0.3894 -0.3288
 1225TIP3    H225167   0.034   4.139   2.291 -0.0945  0.7186 -0.7446
 1226TIP3   OH225168   1.022   3.540  10.305  0.7931  0.3618  0.2440
 1226TIP3    H125169   1.057   3.483  10.235 -0.9431  1.1460 -1.3394
 1226TIP3    H225170   0.946   3.492  10.338  0.1797  1.0714 -0.1050
 1227TIP3   OH225171   3.444   4.928   3.196  0.2667 -0.1934  0.0029
 1227TIP3    H125172   3.445   4.833   3.186  3.2413 -0.1134 -1.6078
 1227TIP3    H225173   3.511   4.947   3.261 -0.2008  0.8366  0.2177
 1228TIP3   OH225174   6.812   2.475  14.738 -0.3237  0.4432  0.0282
 1228TIP3    H125175   6.882   2.504  14.797 -0.2980  2.9591 -1.0886
 1228TIP3    H225176   6.858   2.428  14.668 -0.1997 -1.1683  1.1363
 1229TIP3   OH225177   2.869   3.506  12.576 -0.5450  0.4878 -0.5075
 1229TIP3    H125178   2.956   3.529  12.541 -0.0958  0.7279  0.7060
 1229TIP3    H225179   2.831   3.449  12.509  1.2688 -1.0838 -0.2973
 1230TIP3   OH225180   5.155   4.997   4.929  0.0910 -0.6693  0.4451
 1230TIP3    H125181   5.088   5.020   4.865  0.7561 -0.9046 -0.3571
 1230TIP3    H225182   5.116   4.927   4.980 -1.4428  1.2212  2.0307
 1231TIP3   OH225183   5.288   6.404  10.286 -0.6691 -0.7145  0.1995
 1231TIP3    H125184   5.306   6.356  10.367  0.2817 -1.0164 -0.1736
 1231TIP3    H225185   5.368   6.394  10.234 -0.9414  0.2081 -0.4188
 1232TIP3   OH225186   1.916   5.002   0.623 -0.6712 -0.7455 -0.1704
 1232TIP3    H125187   1.938   5.044   0.540  0.3675 -0.9144  0.0033
 1232TIP3    H225188   1.906   4.910   0.601 -0.7316 -0.7387 -0.1702
 1233TIP3   OH225189   0.693   1.996   2.259  0.3192  0.2185  0.4623
 1233TIP3    H125190   0.654   1.911   2.276 -1.2601  0.8527  0.1200
 1233TIP3    H225191   0.784   1.976   2.236 -0.2936 -1.4697 -0.6918
 1234TIP3   OH225192   2.445   5.089  16.917  0.0190  0.8883 -0.0031
 1234TIP3    H125193   2.379   5.094  16.986 -0.5864  1.7601 -0.6200
 1234TIP3    H225194   2.527   5.112  16.960  0.1005 -0.9643  0.9515
 1235TIP3   OH225195   6.528   6.071  13.972 -0.1217 -0.7051  0.0612
 1235TIP3    H125196   6.522   6.163  13.999  2.8928  0.4055 -2.4547
 1235TIP3    H225197   6.446   6.055  13.925  0.1498  1.4741 -1.3205
 1236TIP3   OH225198   1.654   3.415   5.211 -0.4803 -0.5109  0.1959
 1236TIP3    H125199   1.741   3.425   5.248  0.3605 -0.7312 -1.6097
 1236TIP3    H225200   1.621   3.504   5.201  0.2970 -0.3050 -0.7458
 1237TIP3   OH225201   0.799   2.540  13.060  0.1525  0.2332  0.3781
 1237TIP3    H125202   0.732   2.479  13.026  1.1089 -0.2150 -0.7868
 1237TIP3    H225203   0.762   2.573  13.141 -0.6648 -1.4722  0.7530
 1238TIP3   OH225204   3.290   5.818   2.546  0.1694  0.3213 -0.0621
 1238TIP3    H125205   3.290   5.745   2.607 -1.1988  0.3493  0.0200
 1238TIP3    H225206   3.212   5.869   2.570  0.8786  1.5976 -0.3609
 1239TIP3   OH225207   2.127   1.530  15.875 -0.0076 -0.4553 -0.4289
 1239TIP3    H125208   2.112   1.449  15.826 -2.2259  0.4864 -1.4721
 1239TIP3    H225209   2.076   1.596  15.828 -1.4622  0.7554  2.5367
 1240TIP3   OH225210   0.235   6.461  12.993  0.1529 -0.2772 -0.2122
 1240TIP3    H125211   0.224   6.378  12.947 -0.6109 -0.2046 -0.1762
 1240TIP3    H225212   0.328   6.464  13.016 -0.0382 -1.7566  0.9820
 1241TIP3   OH225213   5.255   1.392  15.610  0.6562 -0.2386  0.4844
 1241TIP3    H125214   5.257   1.338  15.530  0.4426 -0.7672  0.8307
 1241TIP3    H225215   5.238   1.481  15.578  1.2600 -0.3304 -0.1155
 1242TIP3   OH225216   3.738   0.657   1.475 -0.3837 -0.1979 -0.3050
 1242TIP3    H125217   3.803   0.727   1.481 -1.2314  0.8082 -2.1132
 1242TIP3    H225218   3.665   0.687   1.530  0.1815 -0.8216  0.8383
 1243TIP3   OH225219   5.354   0.193  15.520 -0.5395  0.3066  0.3021
 1243TIP3    H125220   5.367   0.099  15.534 -3.7793 -0.7254 -2.2895
 1243TIP3    H225221   5.431   0.220  15.469  0.8162 -0.6801  1.7336
 1244TIP3   OH225222   5.374   3.047   2.290  0.1466 -0.0922 -0.0371
 1244TIP3    H125223   5.403   3.130   2.253 -0.8415  0.8027  1.1082
 1244TIP3    H225224   5.424   2.981   2.243  0.3387  1.0904 -1.5799
 1245TIP3   OH225225   2.421   4.699  17.186 -0.3505  0.3424  0.1642
 1245TIP3    H125226   2.350   4.735  17.133  1.0026  0.0997 -1.8961
 1245TIP3    H225227   2.411   4.604  17.179 -0.8402  0.2799  1.3571
 1246TIP3   OH225228   0.306   0.665  13.228 -0.2613  0.4674  0.9601
 1246TIP3    H125229   0.254   0.689  13.151 -0.7622  1.0728  1.4685
 1246TIP3    H225230   0.397   0.673  13.200 -0.4195  1.8812  0.7576
 1247TIP3   OH225231   2.867   1.221   3.762 -0.1893  0.2916  0.1320
 1247TIP3    H125232   2.885   1.306   3.802  1.5005  0.3029 -0.5807
 1247TIP3    H225233   2.926   1.161   3.807 -2.0858 -0.7690  1.3701
 1248TIP3   OH225234   0.325   2.383  15.323  0.0103  0.5807  0.3864
 1248TIP3    H125235   0.351   2.464  15.368 -0.2903  1.0273 -0.2399
 1248TIP3    H225236   0.399   2.363  15.266  0.8675 -0.5765  1.8158
 1249TIP3   OH225237   0.062   0.432   6.917  0.6305  0.0755  0.1632
 1249TIP3    H125238   0.137   0.375   6.901  0.7121  0.0525  0.6210
 1249TIP3    H225239  -0.014   0.374   6.912  0.4327  0.4131 -2.2991
 1250TIP3   OH225240   1.873   6.068  11.570 -0.0108  0.6472 -0.0606
 1250TIP3    H125241   1.941   6.135  11.581  0.6917 -0.1166  0.3720
 1250TIP3    H225242   1.894   6.027  11.486 -1.6614  2.2982 -1.3669
 1251TIP3   OH225243   1.225   0.896   3.592  0.1784  0.6616  0.3869
 1251TIP3    H125244   1.210   0.979   3.638 -2.4761  0.8633 -0.6469
 1251TIP3    H225245   1.266   0.922   3.510  0.4741  0.8051  0.5752
 1252TIP3   OH225246   1.762   5.579  13.596  0.0916 -0.3886  0.1636
 1252TIP3    H125247   1.834   5.638  13.617 -1.0067  0.5809  1.3937
 1252TIP3    H225248   1.734   5.544  13.680  0.8630 -2.9348 -0.5410
 1253TIP3   OH225249   3.195   6.181   5.817  0.0645 -0.1794 -0.2508
 1253TIP3    H125250   3.138   6.254   5.793  0.2633  0.1108  0.1460
 1253TIP3    H225251   3.180   6.168   5.910 -1.9926 -2.4244 -0.8021
 1254TIP3   OH225252   2.862   5.559  11.246  0.4213 -0.0874 -0.5918
 1254TIP3    H125253   2.908   5.642  11.236 -0.8575  0.6700 -0.3717
 1254TIP3    H225254   2.851   5.549  11.341 -1.3680  0.6133 -0.6946
 1255TIP3   OH225255   6.250   1.227  10.592 -0.0490 -0.0961  0.0445
 1255TIP3    H125256   6.311   1.297  10.569 -0.1318 -0.3669 -1.0550
 1255TIP3    H225257   6.173   1.273  10.626  0.1761  0.3155  0.0105
 1256TIP3   OH225258   2.688   1.063   0.724  0.1272  0.6582  0.2504
 1256TIP3    H125259   2.616   1.121   0.701 -1.0377 -0.5245  0.7870
 1256TIP3    H225260   2.727   1.102   0.802 -0.5727  0.7893  0.5399
 1257TIP3   OH225261   2.093   1.141   2.966  0.0832 -0.1461 -0.0941
 1257TIP3    H125262   2.044   1.072   3.012 -1.4572 -0.3479 -1.9143
 1257TIP3    H225263   2.128   1.098   2.888  1.5782  0.4823  0.1951
 1258TIP3   OH225264   3.220   3.936   3.832 -0.3575  0.5267  0.5409
 1258TIP3    H125265   3.131   3.938   3.797 -0.2923 -0.0727  0.3227
 1258TIP3    H225266   3.212   3.893   3.917 -0.4476  1.5686  1.0719
 1259TIP3   OH225267   4.771   1.475   2.675  0.2759 -0.4863  0.0007
 1259TIP3    H125268   4.813   1.509   2.754 -0.7213 -0.7698  0.6726
 1259TIP3    H225269   4.835   1.414   2.638  1.2247  0.5234 -0.0642
 1260TIP3   OH225270   6.354   1.559  16.238 -0.2444 -0.1055 -0.2036
 1260TIP3    H125271   6.274   1.524  16.278  0.0120 -0.2608  0.1741
 1260TIP3    H225272   6.413   1.483  16.232 -0.3998 -0.1602 -1.1884
 1261TIP3   OH225273   5.840   0.897   0.800  0.4475  0.4252 -0.3270
 1261TIP3    H125274   5.757   0.867   0.836 -0.4400 -0.0101 -2.5900
 1261TIP3    H225275   5.827   0.990   0.784  0.7188  0.5412  0.0932
 1262TIP3   OH225276   0.493   1.153  12.937  0.5173  0.0137 -0.4410
 1262TIP3    H125277   0.471   1.211  13.010 -0.2593 -0.0346 -0.6297
 1262TIP3    H225278   0.589   1.152  12.936  0.5442 -0.0464  0.6241
 1263TIP3   OH225279   5.857   1.121   5.917  0.1864  0.1480 -0.2064
 1263TIP3    H125280   5.853   1.135   5.822 -0.9724 -0.1361 -0.2096
 1263TIP3    H225281   5.819   1.200   5.954  1.2019  0.5310  0.0641
 1264TIP3   OH225282   2.989   6.204   0.849 -0.1926 -0.0654 -0.2148
 1264TIP3    H125283   3.061   6.174   0.904 -0.2536 -1.1415 -0.7135
 1264TIP3    H225284   2.919   6.140   0.863 -1.0742  0.9654  0.2679
 1265TIP3   OH225285   0.897   2.179   0.383  0.8862  0.1781 -0.0721
 1265TIP3    H125286   0.991   2.187   0.393  0.5537  1.2619  4.2542
 1265TIP3    H225287   0.861   2.213   0.465 -3.3414  0.5399 -1.7958
 1266TIP3   OH225288   1.178   4.911  11.162  0.1539 -0.2657  0.0138
 1266TIP3    H125289   1.169   4.877  11.250 -2.4427 -0.6556 -0.3253
 1266TIP3    H225290   1.178   4.833  11.106 -0.2959  0.0532 -0.4394
 1267TIP3   OH225291   2.635   1.214   3.394  0.7103 -0.0245  0.0705
 1267TIP3    H125292   2.704   1.197   3.330  2.4010  0.4324  1.6943
 1267TIP3    H225293   2.661   1.164   3.471 -0.1924  1.0237  1.0880
 1268TIP3   OH225294   2.856   0.414  11.724  0.2924 -0.3216  0.2242
 1268TIP3    H125295   2.882   0.413  11.632 -0.4318 -0.2199  0.0143
 1268TIP3    H225296   2.903   0.488  11.762  1.3458 -0.9406  0.1649
 1269TIP3   OH225297   4.410   0.605   4.211  0.0343  0.2254 -0.0394
 1269TIP3    H125298   4.408   0.654   4.129  0.7366  0.1147 -0.1287
 1269TIP3    H225299   4.317   0.590   4.232 -0.2687  2.5815  0.6003
 1270TIP3   OH225300   2.026   1.459  16.342  0.2147  0.1069 -0.4449
 1270TIP3    H125301   1.953   1.432  16.397  1.9108 -1.7249  1.0740
 1270TIP3    H225302   2.049   1.547  16.374 -1.4908  0.8660 -1.2066
 1271TIP3   OH225303   1.000   0.194  11.585  0.0032 -0.9590 -0.5480
 1271TIP3    H125304   1.090   0.210  11.615 -0.6115 -0.8054  1.3152
 1271TIP3    H225305   0.999   0.228  11.495  1.2549  0.9901  0.0998
 1272TIP3   OH225306   3.555   3.222   1.647  0.2467 -0.2988  0.3781
 1272TIP3    H125307   3.575   3.225   1.554  1.3329  0.2123  0.6190
 1272TIP3    H225308   3.600   3.144   1.679  0.6457  0.0464  0.6531
 1273TIP3   OH225309   4.921   2.316  13.817 -0.0702  0.1003  0.4979
 1273TIP3    H125310   4.962   2.390  13.862 -1.4217 -0.2439  2.4022
 1273TIP3    H225311   4.957   2.238  13.860 -1.7226 -0.2261  1.3786
 1274TIP3   OH225312   0.795   5.330  17.211 -0.4325  0.0562  0.0742
 1274TIP3    H125313   0.765   5.239  17.219 -0.4283  0.0731  0.2866
 1274TIP3    H225314   0.843   5.346  17.292  1.1347 -0.3378 -0.7276
 1275TIP3   OH225315   4.348   0.861   4.722  0.4734 -0.5026  0.8096
 1275TIP3    H125316   4.310   0.797   4.784 -0.5993  0.2267  0.9466
 1275TIP3    H225317   4.406   0.809   4.667  2.0932 -1.0754  2.8899
 1276TIP3   OH225318   5.175   1.260  13.812 -0.2995 -0.3374 -0.2066
 1276TIP3    H125319   5.228   1.315  13.870 -0.3109 -0.5036 -0.0369
 1276TIP3    H225320   5.151   1.318  13.739 -0.7442  0.0315  0.2219
 1277TIP3   OH225321   5.685   0.581   3.279 -0.3462  0.2427 -0.3994
 1277TIP3    H125322   5.646   0.569   3.192  0.4092 -2.4032 -0.4613
 1277TIP3    H225323   5.655   0.505   3.329  1.7682  0.0427  0.6583
 1278TIP3   OH225324   6.629   0.247  15.873  0.2608  0.2470  0.3471
 1278TIP3    H125325   6.671   0.161  15.870  0.6660  0.4662 -1.8483
 1278TIP3    H225326   6.653   0.288  15.790 -0.4386  2.2454  1.0835
 1279TIP3   OH225327   5.246   3.130  14.669 -0.1744  0.3941  0.1292
 1279TIP3    H125328   5.327   3.179  14.654 -0.4314  1.3282  1.5390
 1279TIP3    H225329   5.273   3.038  14.673  0.6347  0.5959 -0.5063
 1280TIP3   OH225330   1.110   3.260  12.823  0.3260  0.1797 -0.2950
 1280TIP3    H125331   1.064   3.265  12.907 -1.7804 -1.1172 -1.2816
 1280TIP3    H225332   1.172   3.189  12.834 -1.1515 -1.1803 -0.2914
 1281TIP3   OH225333   4.173   4.808   0.108  0.2879  0.2095  0.3550
 1281TIP3    H125334   4.206   4.875   0.048 -3.0191 -0.0615 -2.0891
 1281TIP3    H225335   4.132   4.857   0.179 -0.6181  0.8059 -0.5437
 1282TIP3   OH225336   4.574   0.746   6.213 -0.1432 -0.0113  0.2093
 1282TIP3    H125337   4.554   0.703   6.297  0.2514 -0.1057  0.2532
 1282TIP3    H225338   4.563   0.840   6.232 -0.0399 -0.0304  0.3723
 1283TIP3   OH225339   5.168   0.529  13.102 -0.0588  1.0255  0.2346
 1283TIP3    H125340   5.072   0.532  13.112 -0.0363  0.5407  0.6608
 1283TIP3    H225341   5.194   0.620  13.089 -0.9569  0.8747 -3.7601
 1284TIP3   OH225342   2.149   5.780   3.704  0.6869 -0.5583  0.0447
 1284TIP3    H125343   2.157   5.708   3.766  1.3145 -1.1673 -0.7321
 1284TIP3    H225344   2.142   5.858   3.759  1.8619 -1.0205  0.8819
 1285TIP3   OH225345   0.133   1.360   0.450 -0.1225  0.0050  0.1332
 1285TIP3    H125346   0.091   1.373   0.535 -1.7315  3.1411 -0.9814
 1285TIP3    H225347   0.160   1.448   0.424 -2.0600 -0.3472 -3.6981
 1286TIP3   OH225348   1.616   4.563  13.155  0.0567  0.0898 -0.0060
 1286TIP3    H125349   1.665   4.577  13.074 -0.4099 -2.7323 -0.8571
 1286TIP3    H225350   1.547   4.630  13.153 -0.7999 -0.7342 -2.6913
 1287TIP3   OH225351   0.358   3.876  13.545  0.3499  0.4627 -0.4480
 1287TIP3    H125352   0.436   3.908  13.590  1.5518 -0.1259 -2.0195
 1287TIP3    H225353   0.294   3.947  13.555  0.3215  0.1482  2.5929
 1288TIP3   OH225354   5.612   4.183  15.426  0.9180  0.0842  0.1638
 1288TIP3    H125355   5.529   4.139  15.445  1.1288 -0.2730  0.2677
 1288TIP3    H225356   5.600   4.221  15.340  0.8565 -0.4811 -0.0815
 1289TIP3   OH225357   2.044   4.599  13.662  0.0439  0.7443  0.0327
 1289TIP3    H125358   2.139   4.595  13.670  0.1370  2.0980 -0.1842
 1289TIP3    H225359   2.028   4.627  13.572 -0.6021 -0.2645 -0.1917
 1290TIP3   OH225360   3.552   0.879  17.050 -0.2686  0.2245  0.1001
 1290TIP3    H125361   3.627   0.925  17.090 -0.2852 -0.6067  1.1389
 1290TIP3    H225362   3.509   0.945  16.996  0.4981  1.0530  0.4817
 1291TIP3   OH225363   3.381   4.695   2.787  0.1821 -0.3845 -0.1806
 1291TIP3    H125364   3.325   4.680   2.711 -1.3055 -1.0725  0.9926
 1291TIP3    H225365   3.459   4.642   2.770  0.3925  0.3530 -1.7089
 1292TIP3   OH225366   6.341   2.632   2.974  0.0098 -0.5249  0.1322
 1292TIP3    H125367   6.370   2.715   2.936  0.9997 -0.9330 -0.0440
 1292TIP3    H225368   6.412   2.607   3.033  1.0463 -2.5668 -1.8261
 1293TIP3   OH225369   1.031   4.312   1.853  0.1623  0.0036  0.2426
 1293TIP3    H125370   1.044   4.315   1.758 -0.9183 -0.7508  0.0609
 1293TIP3    H225371   1.089   4.242   1.882  0.8081  0.5120  0.2049
 1294TIP3   OH225372   0.032   6.256   5.250  0.4589  0.2284  0.0194
 1294TIP3    H125373  -0.031   6.185   5.267  1.3020 -0.0459  2.3779
 1294TIP3    H225374   0.094   6.220   5.187  0.3612 -0.8198  0.5132
 1295TIP3   OH225375   4.650   1.228   4.852 -0.1367 -0.6917  0.7953
 1295TIP3    H125376   4.557   1.218   4.870 -0.2429 -2.2554 -0.4035
 1295TIP3    H225377   4.685   1.274   4.928 -1.8063 -0.4389  1.4398
 1296TIP3   OH225378   6.054   0.940   1.293  0.5780 -0.1688 -0.6078
 1296TIP3    H125379   6.004   0.978   1.221  0.0494 -0.2414 -0.2856
 1296TIP3    H225380   6.030   0.994   1.369  0.6702 -0.4642 -0.3678
 1297TIP3   OH225381   5.686   6.143   1.345  0.3007 -0.0853 -0.3691
 1297TIP3    H125382   5.591   6.147   1.343  0.3621  2.2707 -1.5692
 1297TIP3    H225383   5.709   6.140   1.438 -0.9157 -0.5105 -0.0681
 1298TIP3   OH225384   3.402   1.358  12.890 -0.2084 -0.3479 -0.4766
 1298TIP3    H125385   3.309   1.372  12.873 -0.1357 -0.1367 -0.7023
 1298TIP3    H225386   3.446   1.388  12.811  0.2529  2.0220  0.5962
 1299TIP3   OH225387   3.281   0.196   3.590 -0.6399 -0.2384  0.3280
 1299TIP3    H125388   3.325   0.117   3.621 -0.7188 -1.2080 -1.8659
 1299TIP3    H225389   3.280   0.188   3.495 -0.2398  2.6621 -0.0106
 1300TIP3   OH225390   1.554   3.721  11.073 -0.2638  0.0127 -0.4057
 1300TIP3    H125391   1.502   3.797  11.046 -0.8020 -0.3232 -0.3371
 1300TIP3    H225392   1.490   3.650  11.082  0.3429 -0.6612 -1.2746
 1301TIP3   OH225393   2.190   5.738  10.592  0.4462 -0.9303  0.3248
 1301TIP3    H125394   2.257   5.725  10.525  0.3577 -2.7972  0.5379
 1301TIP3    H225395   2.111   5.701  10.555 -0.2244  0.2490  0.5229
 1302TIP3   OH225396   3.962   0.538  14.860 -0.1340  0.5110 -0.0412
 1302TIP3    H125397   4.054   0.533  14.833  0.6274 -1.4132  2.4202
 1302TIP3    H225398   3.916   0.479  14.801  0.9077 -1.2083  0.7679
 1303TIP3   OH225399   1.939   2.574   2.688  0.2776  0.0733  0.1743
 1303TIP3    H125400   1.927   2.668   2.690  0.4084  0.1176 -0.7102
 1303TIP3    H225401   2.014   2.558   2.745  0.0448  0.4674  0.5912
 1304TIP3   OH225402   1.772   4.972   5.127 -0.4471  0.3317  0.0528
 1304TIP3    H125403   1.812   4.902   5.076  0.7418  0.9377  0.1237
 1304TIP3    H225404   1.781   4.944   5.218 -0.9056  0.1056  0.0313
 1305TIP3   OH225405   6.803   3.952   4.459 -0.0519 -0.5978 -0.0685
 1305TIP3    H125406   6.844   3.973   4.543  2.6103 -0.3851 -1.3386
 1305TIP3    H225407   6.796   4.036   4.414 -1.0560 -0.7778 -0.2780
 1306TIP3   OH225408   5.210   5.212   3.254  0.1684  0.0824  0.5364
 1306TIP3    H125409   5.175   5.299   3.238  3.2676  1.2933 -0.3683
 1306TIP3    H225410   5.272   5.223   3.327 -1.1348 -1.9142  2.0656
 1307TIP3   OH225411   2.075   1.777  15.303 -0.0096 -0.7790  0.0191
 1307TIP3    H125412   2.043   1.792  15.392  0.5239  0.0309  0.0853
 1307TIP3    H225413   2.168   1.760  15.314  0.3969  0.8904 -0.4857
 1308TIP3   OH225414   6.667   5.914  11.462 -0.3918 -0.2949  0.0775
 1308TIP3    H125415   6.635   6.004  11.473 -3.0639 -1.1652 -0.0148
 1308TIP3    H225416   6.762   5.923  11.462 -0.5634  2.4591  0.6898
 1309TIP3   OH225417   0.162   2.927  10.498 -0.5514 -0.1648  0.1716
 1309TIP3    H125418   0.189   2.840  10.469  0.2756  0.6695 -1.6920
 1309TIP3    H225419   0.185   2.985  10.426 -2.5893  1.3849  0.6637
 1310TIP3   OH225420   2.919   2.676   2.933 -0.1423  0.6050 -0.4702
 1310TIP3    H125421   3.002   2.628   2.927 -0.9079 -0.6743 -1.3851
 1310TIP3    H225422   2.899   2.676   3.027  0.0782 -0.5605 -0.4070
 1311TIP3   OH225423   2.211   5.939  14.282  0.4158 -0.3331  0.7435
 1311TIP3    H125424   2.161   6.012  14.245  0.2940 -0.5076  0.5688
 1311TIP3    H225425   2.271   5.913  14.213  2.1743  1.1831  1.6057
 1312TIP3   OH225426   4.652   2.830  15.241  1.1296 -0.4781  0.3106
 1312TIP3    H125427   4.655   2.744  15.282 -0.3329 -0.2320  1.0226
 1312TIP3    H225428   4.685   2.816  15.153 -1.0850 -2.2547 -0.3413
 1313TIP3   OH225429   6.369   3.616   1.262  0.2300 -0.2277 -0.2818
 1313TIP3    H125430   6.378   3.700   1.216 -0.0432  0.9426  1.6757
 1313TIP3    H225431   6.332   3.640   1.347  0.8202 -2.2727  0.6038
 1314TIP3   OH225432   1.102   0.230  13.526 -0.1504  0.5268  0.4374
 1314TIP3    H125433   1.009   0.223  13.501 -0.4390 -0.9373  1.7679
 1314TIP3    H225434   1.121   0.147  13.568  1.3801  1.3893  1.5078
 1315TIP3   OH225435   5.280   6.682   2.202  0.3607 -0.0566  0.2050
 1315TIP3    H125436   5.192   6.718   2.212 -0.3817 -1.2491 -1.4920
 1315TIP3    H225437   5.278   6.600   2.253  0.5085 -0.0670  0.1943
 1316TIP3   OH225438   4.657   3.346  11.404  0.6896 -0.2687  0.2220
 1316TIP3    H125439   4.635   3.258  11.374  0.1170  0.9149 -3.2652
 1316TIP3    H225440   4.752   3.345  11.415  0.6226 -1.4575  0.8942
 1317TIP3   OH225441   5.817   3.808   1.135 -0.1460  0.2602  0.6669
 1317TIP3    H125442   5.741   3.784   1.187 -0.3574 -1.8337 -0.4646
 1317TIP3    H225443   5.780   3.833   1.050  0.3871 -0.3577  0.2473
 1318TIP3   OH225444   6.140   4.669   3.859 -0.4349  0.2121  0.0661
 1318TIP3    H125445   6.139   4.638   3.769  1.1300 -0.2305  0.1728
 1318TIP3    H225446   6.150   4.590   3.912  3.1472  0.7259  0.3721
 1319TIP3   OH225447   3.492   2.358   4.245  0.3337 -0.0448  0.4228
 1319TIP3    H125448   3.508   2.330   4.335 -0.7380  0.7098  0.8716
 1319TIP3    H225449   3.562   2.420   4.226  0.5534 -0.1953  0.7433
 1320TIP3   OH225450   0.744   4.421  17.032  0.8157 -0.0551 -0.2311
 1320TIP3    H125451   0.731   4.326  17.039  1.5832 -0.3201 -1.9823
 1320TIP3    H225452   0.827   4.437  17.079  0.6630 -0.2375  0.1023
 1321TIP3   OH225453   3.298   2.812  13.713 -0.2637 -0.3121  0.0992
 1321TIP3    H125454   3.300   2.758  13.792  0.4269  1.0376  1.0586
 1321TIP3    H225455   3.205   2.820  13.692 -0.4516 -0.7256  0.7511
 1322TIP3   OH225456   4.604   3.709  14.987  0.2018  0.1583 -0.4106
 1322TIP3    H125457   4.623   3.678  14.898 -3.5476 -3.3702 -0.2681
 1322TIP3    H225458   4.522   3.757  14.978  0.0493  0.1976  1.0427
 1323TIP3   OH225459   6.074   6.226  11.153  0.0100  0.4534  0.1461
 1323TIP3    H125460   6.131   6.152  11.174  0.6699  0.4982 -1.3731
 1323TIP3    H225461   6.123   6.303  11.180  1.0186  0.5337 -1.7366
 1324TIP3   OH225462   4.717   4.454  11.895  0.4041 -0.0598  0.2808
 1324TIP3    H125463   4.718   4.383  11.830 -0.4383 -0.8543  1.0997
 1324TIP3    H225464   4.666   4.418  11.968 -0.2080  1.4668  0.6377
 1325TIP3   OH225465   4.193   5.560   3.587  0.4466  0.1066  0.2167
 1325TIP3    H125466   4.137   5.637   3.588 -0.0365 -0.2380 -0.0726
 1325TIP3    H225467   4.196   5.532   3.679  0.0753  0.0770  0.2204
 1326TIP3   OH225468   2.875   2.958  16.786 -0.0189  0.0405  0.4757
 1326TIP3    H125469   2.896   3.035  16.733  2.2064 -0.4607  0.5202
 1326TIP3    H225470   2.850   2.994  16.871 -1.0928  0.7545 -0.1120
 1327TIP3   OH225471   0.583   2.999  13.095 -0.5503  0.7763  0.4047
 1327TIP3    H125472   0.549   2.982  13.183  1.0297  0.4169  0.9860
 1327TIP3    H225473   0.678   3.004  13.107 -0.4637  3.5262 -0.8431
 1328TIP3   OH225474   6.767   5.628   3.613  0.2880  0.4982  0.3125
 1328TIP3    H125475   6.802   5.540   3.625 -0.7277 -0.1230 -1.0284
 1328TIP3    H225476   6.736   5.654   3.700 -1.0224 -1.2103  0.4080
 1329TIP3   OH225477   4.794   0.713  11.619  0.1166  0.4448  0.3091
 1329TIP3    H125478   4.847   0.635  11.607  0.2907  0.3184  1.7146
 1329TIP3    H225479   4.743   0.721  11.538  2.0660  0.4439 -0.9757
 1330TIP3   OH225480   3.570   2.396   5.320  0.1601  0.0816 -0.3045
 1330TIP3    H125481   3.555   2.488   5.342 -0.2519  0.0378 -0.4074
 1330TIP3    H225482   3.665   2.389   5.310  0.1117  0.7583 -1.4436
 1331TIP3   OH225483   1.841   6.818  12.881  0.4835  0.4257  0.1494
 1331TIP3    H125484   1.772   6.806  12.815 -0.8234  3.3341  0.8049
 1331TIP3    H225485   1.882   6.901  12.856  1.6457  0.3108  1.5762
 1332TIP3   OH225486   5.707   0.764  11.212  0.6070  0.2314  0.3566
 1332TIP3    H125487   5.777   0.825  11.188 -0.1967  0.5530 -1.3285
 1332TIP3    H225488   5.661   0.747  11.130 -2.2834  1.2571  1.6365
 1333TIP3   OH225489   1.488   4.601   5.312  0.5059 -0.2582 -0.0740
 1333TIP3    H125490   1.455   4.512   5.297  1.4083 -0.5690 -0.2302
 1333TIP3    H225491   1.560   4.611   5.250  0.5349  0.5200  0.0735
 1334TIP3   OH225492   0.198   2.324   1.678  0.5364 -0.4298  0.1057
 1334TIP3    H125493   0.263   2.357   1.741  0.5243  1.9581 -0.9888
 1334TIP3    H225494   0.248   2.267   1.620  0.5055 -2.8592  2.2645
 1335TIP3   OH225495   0.640   0.921   1.971 -0.1588 -0.6961 -0.3927
 1335TIP3    H125496   0.702   0.939   1.900 -0.2870  0.3324 -0.2499
 1335TIP3    H225497   0.610   0.832   1.953  0.1262 -0.6112 -1.3951
 1336TIP3   OH225498   5.523   5.460  14.663 -0.1787  0.0405  0.4088
 1336TIP3    H125499   5.478   5.488  14.583 -1.5624 -0.4300  0.9878
 1336TIP3    H225500   5.556   5.372  14.642 -0.9305 -0.2674  0.4881
 1337TIP3   OH225501   6.496   5.258   4.481  0.2106  0.4462  0.3915
 1337TIP3    H125502   6.529   5.336   4.526  1.5243 -0.1223  0.4520
 1337TIP3    H225503   6.463   5.202   4.551  1.7587 -0.2046  0.6330
 1338TIP3   OH225504   2.056   3.160  14.888 -0.0872  0.1497  0.0821
 1338TIP3    H125505   2.031   3.070  14.908  0.5718  0.4453  2.6190
 1338TIP3    H225506   2.150   3.156  14.872 -0.0217  0.3943  0.3836
 1339TIP3   OH225507   1.256   2.612  11.856  0.0823  0.9339  0.4295
 1339TIP3    H125508   1.303   2.555  11.795  2.5024 -0.2610  3.1667
 1339TIP3    H225509   1.258   2.698  11.815 -0.5424 -0.2109 -2.2107
 1340TIP3   OH225510   2.501   6.211  15.044  0.2542  0.4920  0.1750
 1340TIP3    H125511   2.438   6.181  14.978 -1.2013 -1.2901  2.2239
 1340TIP3    H225512   2.555   6.134  15.062  0.6801  0.9678  0.9886
 1341TIP3   OH225513   5.791   3.420  14.948 -0.3885  0.1932  0.5705
 1341TIP3    H125514   5.776   3.502  14.901 -0.4354  0.3393  0.8389
 1341TIP3    H225515   5.847   3.369  14.889 -0.1639  0.5127  0.5035
 1342TIP3   OH225516   5.438   2.821  11.721 -0.2096  0.1413 -0.1392
 1342TIP3    H125517   5.374   2.852  11.785  1.4768  0.1767  1.6013
 1342TIP3    H225518   5.397   2.839  11.636 -2.8358 -0.5569  0.8665
 1343TIP3   OH225519   0.002   1.377   1.586  0.3938 -0.2619  0.1976
 1343TIP3    H125520  -0.030   1.324   1.660 -2.0620 -2.1720 -2.0406
 1343TIP3    H225521   0.078   1.328   1.553  1.2292  0.3693  1.1056
 1344TIP3   OH225522   4.163   5.750  13.115 -0.3667  1.0511 -0.0378
 1344TIP3    H125523   4.231   5.818  13.114 -0.5228  1.2151  0.4362
 1344TIP3    H225524   4.082   5.796  13.093 -0.3495  0.8760 -0.4820
 1345TIP3   OH225525   1.013   1.428  17.184  0.2266  0.1383  0.5138
 1345TIP3    H125526   0.950   1.477  17.236  1.0060  2.0146 -0.2377
 1345TIP3    H225527   1.074   1.391  17.248 -0.6479 -0.2706  1.1219
 1346TIP3   OH225528   1.318   4.151   2.847 -0.1481 -0.1597 -0.5120
 1346TIP3    H125529   1.320   4.225   2.908  0.6437  0.3088 -1.0896
 1346TIP3    H225530   1.363   4.081   2.894  0.4078  0.1831 -0.5257
 1347TIP3   OH225531   1.377   1.905  16.963 -0.2076  0.1631 -0.0040
 1347TIP3    H125532   1.373   1.828  16.906  0.5255  0.4102 -0.3984
 1347TIP3    H225533   1.286   1.919  16.990 -0.1098 -2.0570  1.7307
 1348TIP3   OH225534   2.330   4.530  12.960 -0.3271  0.5904 -0.6485
 1348TIP3    H125535   2.341   4.457  13.021  0.5704  0.9812 -0.3267
 1348TIP3    H225536   2.235   4.537  12.948 -0.4158 -0.9932 -1.1359
 1349TIP3   OH225537   5.095   5.883   5.278  0.8843 -0.7286 -0.2044
 1349TIP3    H125538   5.107   5.945   5.349 -1.1297 -1.2835  0.6775
 1349TIP3    H225539   5.162   5.816   5.293  1.9442  0.2969 -0.1825
 1350TIP3   OH225540   6.577   0.894  13.994 -0.3410  0.3940  0.5488
 1350TIP3    H125541   6.664   0.928  14.014  0.1211  0.1885 -0.9971
 1350TIP3    H225542   6.568   0.906  13.900 -1.4459 -0.8308  0.4804
 1351TIP3   OH225543   3.655   3.356  16.367  0.2625 -0.0775 -0.5249
 1351TIP3    H125544   3.607   3.408  16.431 -0.2068  0.2769 -1.1506
 1351TIP3    H225545   3.707   3.295  16.419 -0.2826  0.0538  0.1817
 1352TIP3   OH225546   2.877   6.424   2.176 -0.0147 -0.0821 -0.3136
 1352TIP3    H125547   2.781   6.432   2.172  0.0598  1.2108  0.2790
 1352TIP3    H225548   2.892   6.329   2.172 -1.5176 -0.6120  2.9932
 1353TIP3   OH225549   6.073   4.134   4.945  0.3604  0.0425 -0.0551
 1353TIP3    H125550   6.135   4.118   4.873  0.6873  0.7027  0.0807
 1353TIP3    H225551   6.039   4.222   4.928  0.8911  0.4481  0.9317
 1354TIP3   OH225552   1.464   2.836  15.700  0.0127 -0.4700 -0.1191
 1354TIP3    H125553   1.455   2.815  15.607 -0.5445  0.4873 -0.2966
 1354TIP3    H225554   1.497   2.755  15.740  0.7238 -0.7492 -1.2165
 1355TIP3   OH225555   2.910   3.070   2.408  0.0950 -0.2316  0.4606
 1355TIP3    H125556   2.840   3.088   2.470  1.3219  2.3338  1.2210
 1355TIP3    H225557   2.981   3.034   2.461  0.8737  1.2485  0.4561
 1356TIP3   OH225558   0.123   4.238  13.615 -0.1151  0.1619 -0.0106
 1356TIP3    H125559   0.028   4.241  13.603 -0.0931 -0.2413 -0.3146
 1356TIP3    H225560   0.158   4.293  13.545 -0.1415  0.7062  0.3974
 1357TIP3   OH225561   5.485   2.864   1.681 -0.0506 -0.3436  0.0744
 1357TIP3    H125562   5.549   2.928   1.710  0.7947 -1.4283  0.6892
 1357TIP3    H225563   5.534   2.805   1.624 -0.4844 -1.2112  0.5772
 1358TIP3   OH225564   4.445   0.700  12.249  0.4004  0.3462  0.1553
 1358TIP3    H125565   4.408   0.612  12.261  1.0104  0.0382 -0.2007
 1358TIP3    H225566   4.474   0.701  12.158 -0.5431  1.2868 -0.1552
 1359TIP3   OH225567   3.573   4.445   0.283  0.1796 -0.1509  0.1061
 1359TIP3    H125568   3.547   4.355   0.266 -0.7356  0.1647 -0.2693
 1359TIP3    H225569   3.499   4.482   0.333 -0.5467  1.0248 -1.7250
 1360TIP3   OH225570   2.625   6.766   2.749  0.3069 -0.4048 -0.4469
 1360TIP3    H125571   2.666   6.726   2.825 -1.8345  0.9114  1.5537
 1360TIP3    H225572   2.638   6.860   2.761 -1.2086 -0.0940 -0.9231
 1361TIP3   OH225573   2.196   5.626  16.651  0.4504  0.3332 -0.5495
 1361TIP3    H125574   2.157   5.553  16.602 -0.7026  1.0802 -0.7790
 1361TIP3    H225575   2.146   5.630  16.732  1.8427 -0.3949  0.3951
 1362TIP3   OH225576   2.738   0.572  14.991 -0.2336  0.1646 -0.5013
 1362TIP3    H125577   2.702   0.531  14.913 -1.3760  0.9270 -0.3934
 1362TIP3    H225578   2.825   0.533  15.001 -0.5472 -0.8142 -1.4630
 1363TIP3   OH225579   3.023   1.682  14.999 -0.3132  0.5939 -0.4513
 1363TIP3    H125580   2.956   1.738  14.963  0.6023  1.8240 -0.3029
 1363TIP3    H225581   3.021   1.603  14.944 -0.4889  1.4681 -1.7412
 1364TIP3   OH225582   0.070   2.732  12.465 -0.3727 -0.1689  0.1357
 1364TIP3    H125583   0.126   2.678  12.408  0.7132  1.0300  0.0340
 1364TIP3    H225584   0.129   2.761  12.534 -1.0427  0.5934  0.3864
 1365TIP3   OH225585   6.541   2.826  16.651  0.0309  0.4761 -0.4460
 1365TIP3    H125586   6.580   2.766  16.714  0.3443  0.8156 -0.3116
 1365TIP3    H225587   6.448   2.829  16.673  0.4047  1.9010  1.0866
 1366TIP3   OH225588   0.848   5.385   4.558 -0.4044 -0.1952 -0.4709
 1366TIP3    H125589   0.785   5.445   4.598 -1.5172 -0.1757 -2.1712
 1366TIP3    H225590   0.794   5.315   4.521  0.5484 -0.1467 -2.0379
 1367TIP3   OH225591   3.548   2.325   2.618  0.1133  0.0477 -0.0214
 1367TIP3    H125592   3.567   2.232   2.607 -1.0484 -0.2158  0.1078
 1367TIP3    H225593   3.492   2.347   2.544 -2.1532 -0.1141  1.5569
 1368TIP3   OH225594   6.516   4.580   0.783 -0.7159  0.0509  0.2769
 1368TIP3    H125595   6.494   4.608   0.872 -1.2619  1.1005 -0.1719
 1368TIP3    H225596   6.593   4.633   0.760 -2.0941  1.6867 -0.7888
 1369TIP3   OH225597   6.091   3.982   0.814  0.5347 -0.1565  0.4805
 1369TIP3    H125598   6.025   3.912   0.817  0.9746 -0.6507 -0.7551
 1369TIP3    H225599   6.045   4.056   0.775  0.5766 -0.3674  0.0183
 1370TIP3   OH225600   5.932   1.426   5.521  0.3930  0.3285 -0.3204
 1370TIP3    H125601   5.913   1.490   5.590 -1.5936  0.8242 -1.2417
 1370TIP3    H225602   5.874   1.352   5.540  0.0543  0.3373 -1.2269
 1371TIP3   OH225603   6.072   1.714   6.459  0.0886  0.2111  0.2728
 1371TIP3    H125604   6.007   1.785   6.461  0.3931  0.4938  0.2323
 1371TIP3    H225605   6.154   1.758   6.440 -0.0064 -0.3692 -1.6917
 1372TIP3   OH225606   0.559   3.073   2.256 -0.3140  0.0216  0.2532
 1372TIP3    H125607   0.548   3.096   2.164 -1.2626 -0.0888  0.3304
 1372TIP3    H225608   0.629   3.131   2.287 -0.0963  0.1676 -0.4909
 1373TIP3   OH225609   3.646   3.176  16.893 -0.6461  0.0287 -0.6020
 1373TIP3    H125610   3.621   3.252  16.841 -1.6275 -0.7031 -1.2516
 1373TIP3    H225611   3.612   3.195  16.981  2.7999  2.2030  0.4710
 1374TIP3   OH225612   1.593   6.233   5.920 -0.1106  0.1219 -0.1979
 1374TIP3    H125613   1.535   6.248   5.995 -3.8502 -1.6558 -2.4037
 1374TIP3    H225614   1.545   6.270   5.846  1.3397 -1.8910 -2.2692
 1375TIP3   OH225615   3.569   5.411   0.095  0.1456  0.0859  0.5049
 1375TIP3    H125616   3.524   5.491   0.070 -0.3752 -0.7244 -1.3505
 1375TIP3    H225617   3.546   5.398   0.187  0.3040  2.0613  0.8668
 1376TIP3   OH225618   1.355   3.881   1.617  0.1451  0.5065  0.2044
 1376TIP3    H125619   1.309   3.799   1.603  2.2880 -1.5244  3.5648
 1376TIP3    H225620   1.448   3.858   1.612  0.8272  2.8308  0.7178
 1377TIP3   OH225621   4.344   5.183   4.345 -0.6453 -0.1329  0.2015
 1377TIP3    H125622   4.428   5.151   4.312 -0.9202  0.4412 -1.1020
 1377TIP3    H225623   4.280   5.159   4.278 -1.0819  1.8569 -0.1762
 1378TIP3   OH225624   1.528   4.003   4.873  0.1122 -0.0821 -0.5602
 1378TIP3    H125625   1.611   4.009   4.921 -1.3631 -1.5200  2.4288
 1378TIP3    H225626   1.546   3.940   4.803  2.1278  1.4597 -1.5302
 1379TIP3   OH225627   3.380   3.524   1.230 -0.4047 -0.6461  0.2731
 1379TIP3    H125628   3.384   3.560   1.141  0.3282 -3.8645 -1.1412
 1379TIP3    H225629   3.286   3.514   1.248 -0.6267  1.5617  0.6430
 1380TIP3   OH225630   3.347   5.373   4.839 -0.4581  0.6133  0.4630
 1380TIP3    H125631   3.408   5.435   4.800 -0.4499 -0.5449 -1.4978
 1380TIP3    H225632   3.399   5.327   4.905 -0.0031  1.5253  0.7491
 1381TIP3   OH225633   1.141   4.828  11.679 -0.2532  0.3996 -0.1840
 1381TIP3    H125634   1.236   4.813  11.683 -0.4865 -1.2581 -0.1072
 1381TIP3    H225635   1.108   4.795  11.763 -0.9614  0.3433 -0.4753
 1382TIP3   OH225636   0.976   0.322  15.087 -0.0025 -0.1511 -0.1310
 1382TIP3    H125637   0.955   0.232  15.113 -0.0016  0.0177  0.4707
 1382TIP3    H225638   1.043   0.311  15.019 -0.8491 -0.6325 -0.9088
 1383TIP3   OH225639   2.395   4.281   5.049 -0.3188 -0.4524  0.2443
 1383TIP3    H125640   2.356   4.362   5.081 -0.0036 -0.7643  1.4704
 1383TIP3    H225641   2.321   4.220   5.040 -0.3302 -0.5690  1.0649
 1384TIP3   OH225642   5.199   3.464   2.204  0.2237  0.0573  0.4611
 1384TIP3    H125643   5.181   3.498   2.291  1.8818  2.6809 -0.1102
 1384TIP3    H225644   5.130   3.501   2.149 -1.4283 -2.4048  0.7027
 1385TIP3   OH225645   4.047   3.834  15.479 -0.0155 -0.3693 -0.5327
 1385TIP3    H125646   4.076   3.857  15.568  1.1648  0.5817 -1.1209
 1385TIP3    H225647   4.033   3.740  15.481  0.8013 -0.4888  0.4696
 1386TIP3   OH225648   4.414   3.810  16.566 -0.3345  0.1310  0.2247
 1386TIP3    H125649   4.495   3.769  16.595 -1.7348 -3.3041 -0.2654
 1386TIP3    H225650   4.435   3.850  16.482  0.9066 -0.4188  0.2581
 1387TIP3   OH225651   2.466   5.485   1.383 -0.4993  0.2563  1.4337
 1387TIP3    H125652   2.496   5.562   1.335 -2.7231  0.0125 -0.5512
 1387TIP3    H225653   2.501   5.411   1.334 -0.0077 -0.0220  2.1870
 1388TIP3   OH225654   0.350   2.190   3.969  0.0645  0.0984  0.0868
 1388TIP3    H125655   0.425   2.188   3.910 -0.7144  0.9915 -0.9924
 1388TIP3    H225656   0.388   2.189   4.057  1.2551 -1.1938 -0.4190
 1389TIP3   OH225657   6.385   3.958  13.245 -0.0394  0.3695 -0.3106
 1389TIP3    H125658   6.457   4.004  13.290 -0.7151 -0.7305  2.0252
 1389TIP3    H225659   6.401   3.866  13.262 -1.6037  0.0539 -0.4093
 1390TIP3   OH225660   3.598   6.809  13.490 -0.2343 -0.0877  0.2370
 1390TIP3    H125661   3.620   6.898  13.462 -2.2811  1.3133  2.6236
 1390TIP3    H225662   3.523   6.785  13.435 -0.5053  0.2085  0.4740
 1391TIP3   OH225663   6.411   3.714  16.420  0.2997  0.3519 -0.1094
 1391TIP3    H125664   6.332   3.661  16.423  0.2164  0.2485 -2.4325
 1391TIP3    H225665   6.391   3.791  16.474 -2.1381  1.2239 -2.0838
 1392TIP3   OH225666   4.370   2.950  17.219  0.4552 -0.4541  0.3422
 1392TIP3    H125667   4.377   2.856  17.238  0.3308 -0.8385 -1.3938
 1392TIP3    H225668   4.454   2.987  17.246  0.4996 -1.0450  1.0466
 1393TIP3   OH225669   5.135   3.739   2.110 -0.3311 -0.3610 -0.1766
 1393TIP3    H125670   5.070   3.800   2.076  1.5594  0.0377 -3.5469
 1393TIP3    H225671   5.190   3.792   2.167 -1.3159 -0.0541  0.5087
 1394TIP3   OH225672   0.300   0.722  16.584  0.1339 -0.0891 -0.3884
 1394TIP3    H125673   0.222   0.750  16.633  1.2920  2.9454 -0.0690
 1394TIP3    H225674   0.270   0.713  16.494 -1.1623 -1.8575  0.1612
 1395TIP3   OH225675   6.585   6.548   2.845  0.6296  0.2060 -0.4652
 1395TIP3    H125676   6.614   6.461   2.871 -0.1664  0.1947  0.4580
 1395TIP3    H225677   6.531   6.534   2.767 -1.4156 -0.4434  0.9850
 1396TIP3   OH225678   0.803   4.354   4.731  0.4525 -0.0809  0.5081
 1396TIP3    H125679   0.877   4.380   4.677 -1.2903 -0.3349 -2.1931
 1396TIP3    H225680   0.819   4.261   4.752  1.1470  0.0210  0.4426
 1397TIP3   OH225681   5.832   0.398   3.492  0.7380 -0.0842  0.0203
 1397TIP3    H125682   5.810   0.487   3.519 -1.4768 -0.1000 -1.4592
 1397TIP3    H225683   5.748   0.352   3.490  1.3081 -1.2136 -2.6041
 1398TIP3   OH225684   6.366   0.374  11.238  0.2490 -0.1417 -0.5352
 1398TIP3    H125685   6.392   0.465  11.249  0.1484 -0.1907  0.1928
 1398TIP3    H225686   6.289   0.365  11.294  1.0342 -0.9979  0.4549
 1399TIP3   OH225687   1.796   0.853   4.147  0.0820  0.0749 -0.1873
 1399TIP3    H125688   1.846   0.926   4.184 -0.2638  1.5135 -2.3688
 1399TIP3    H225689   1.705   0.872   4.169 -0.0720  0.6585 -1.3031
 1400TIP3   OH225690   4.882   3.775  12.743 -0.0601  0.4053 -0.1232
 1400TIP3    H125691   4.953   3.747  12.801  0.3214 -0.3555 -0.9293
 1400TIP3    H225692   4.807   3.788  12.801  0.2576 -0.5222  0.5281
 1401TIP3   OH225693   6.470   3.000   0.362 -0.2682  0.1194  0.1655
 1401TIP3    H125694   6.540   2.984   0.425 -0.2859 -1.6552 -0.2146
 1401TIP3    H225695   6.391   2.968   0.406 -1.0179  2.5868  0.8130
 1402TIP3   OH225696   3.623   2.768   4.488  0.3834  0.2839 -0.0339
 1402TIP3    H125697   3.596   2.851   4.450 -0.8994  0.3013  0.8443
 1402TIP3    H225698   3.691   2.790   4.551  2.1501  0.3116 -1.8296
 1403TIP3   OH225699   2.744   5.438  16.521  0.7482 -0.8003  0.1612
 1403TIP3    H125700   2.817   5.394  16.565  1.3504  0.9507  1.0323
 1403TIP3    H225701   2.782   5.472  16.439  1.6810  2.1198  1.6520
 1404TIP3   OH225702   1.829   6.182  17.115  0.1281  0.3555  0.4379
 1404TIP3    H125703   1.753   6.198  17.172  1.0439  0.5497  1.6592
 1404TIP3    H225704   1.877   6.113  17.160  0.9342  0.5910 -0.0542
 1405TIP3   OH225705   1.536   6.310   6.454 -0.7428  0.0635  0.2102
 1405TIP3    H125706   1.473   6.267   6.511 -1.2297 -1.7732 -1.6037
 1405TIP3    H225707   1.618   6.309   6.503 -1.2309 -1.1025  1.0366
 1406TIP3   OH225708   0.949   0.029  15.846 -0.4560  0.4523  0.2246
 1406TIP3    H125709   1.004  -0.021  15.906  0.3181  0.3188 -0.5783
 1406TIP3    H225710   1.010   0.080  15.794 -1.1227  0.6506 -0.3793
 1407TIP3   OH225711   5.968   1.237  10.702  0.2107 -0.6018 -0.1253
 1407TIP3    H125712   5.908   1.221  10.775  0.2420  0.5135  0.1667
 1407TIP3    H225713   5.911   1.248  10.626  0.0795 -0.2469  0.0210
 1408TIP3   OH225714   2.736   2.669  12.341 -0.1134 -0.1706  0.3196
 1408TIP3    H125715   2.831   2.660  12.341 -0.0613  0.2289  1.6984
 1408TIP3    H225716   2.721   2.762  12.326 -0.3148 -0.3062 -0.3742
 1409TIP3   OH225717   0.702   0.270   5.387  0.3513  0.1892  0.1334
 1409TIP3    H125718   0.721   0.177   5.378  0.5421  0.2062  0.3426
 1409TIP3    H225719   0.613   0.274   5.423  0.5594  0.0767  0.6658
 1410TIP3   OH225720   1.219   4.826  13.137 -0.0007 -0.0318  0.3244
 1410TIP3    H125721   1.250   4.786  13.218 -1.0099  0.0957  0.7983
 1410TIP3    H225722   1.126   4.843  13.154 -0.2067  0.0609 -0.8372
 1411TIP3   OH225723   3.653   2.496  11.579 -0.0757  0.0106  0.7096
 1411TIP3    H125724   3.682   2.470  11.492  2.2433  0.9489  1.1320
 1411TIP3    H225725   3.573   2.445  11.594 -0.3380 -0.4213 -1.7968
 1412TIP3   OH225726   1.405   4.532  10.927  0.0900  0.5488 -0.0398
 1412TIP3    H125727   1.484   4.532  10.872 -0.7602 -1.2627 -1.3912
 1412TIP3    H225728   1.353   4.606  10.894  0.2039  0.3214 -0.7445
 1413TIP3   OH225729   3.144   5.212   3.500 -0.4882  0.4562 -0.1568
 1413TIP3    H125730   3.162   5.299   3.536  0.4647 -0.3058  1.2687
 1413TIP3    H225731   3.208   5.201   3.430 -1.4423  1.3755 -1.2337
 1414TIP3   OH225732   4.995   5.928   6.057  0.2739  0.4294 -0.0141
 1414TIP3    H125733   4.985   5.889   6.143  0.0623 -0.4129 -0.4125
 1414TIP3    H225734   4.986   5.855   5.996 -0.8800  1.2037 -0.8121
 1415TIP3   OH225735   5.039   5.059   1.742  0.4812 -0.1895  0.2270
 1415TIP3    H125736   5.083   5.059   1.657  0.4342  0.1372  0.2037
 1415TIP3    H225737   5.053   5.147   1.777  0.3736 -0.2771  0.4920
 1416TIP3   OH225738   4.364   6.803   5.224 -0.7088 -0.4381  0.3873
 1416TIP3    H125739   4.311   6.725   5.207 -0.9577 -0.4042  0.9715
 1416TIP3    H225740   4.383   6.839   5.138 -2.8611  0.3599  0.1775
 1417TIP3   OH225741   1.881   5.461   4.775 -0.3351  0.1738  0.0636
 1417TIP3    H125742   1.921   5.428   4.856  1.2814  1.1654 -0.2899
 1417TIP3    H225743   1.828   5.536   4.803 -2.6783 -1.5828  0.6355
 1418TIP3   OH225744   4.696   1.787   5.429 -0.1879 -0.5090 -0.0520
 1418TIP3    H125745   4.759   1.806   5.360  1.5851  1.1598  1.8920
 1418TIP3    H225746   4.675   1.872   5.467 -3.3713 -1.0519 -0.3110
 1419TIP3   OH225747   2.524   6.629   4.727  0.6579 -0.0325 -0.0020
 1419TIP3    H125748   2.591   6.563   4.740  0.1081 -0.4374  0.9157
 1419TIP3    H225749   2.550   6.702   4.783  0.4572 -0.0989  0.1808
 1420TIP3   OH225750   3.926   0.003   0.115 -0.5395 -0.3919  0.1397
 1420TIP3    H125751   3.913  -0.028   0.204 -0.2029 -0.6851  0.0873
 1420TIP3    H225752   3.995   0.069   0.121 -0.2606 -0.6743  0.0433
 1421TIP3   OH225753   5.358   6.012   5.396  0.1245 -0.7216  0.0900
 1421TIP3    H125754   5.271   6.036   5.428  0.0613  1.0894 -1.2190
 1421TIP3    H225755   5.359   5.917   5.397 -1.7422 -0.7814  0.5016
 1422TIP3   OH225756   5.630   0.874  12.789  0.5883 -0.8749 -0.7099
 1422TIP3    H125757   5.560   0.834  12.737 -1.1465  0.4673  0.4827
 1422TIP3    H225758   5.673   0.800  12.833 -1.7902 -1.5727  0.5650
 1423TIP3   OH225759   1.907   6.494  15.523  0.3323 -0.0778 -0.0179
 1423TIP3    H125760   1.980   6.519  15.579 -0.2611  2.6251 -0.2968
 1423TIP3    H225761   1.937   6.516  15.434  0.5442 -2.5249 -0.6224
 1424TIP3   OH225762   4.173   5.812   5.697  0.0528  0.3755  0.0506
 1424TIP3    H125763   4.170   5.780   5.607  0.3992  0.0854  0.1389
 1424TIP3    H225764   4.243   5.761   5.738 -0.2141  0.3934  0.5284
 1425TIP3   OH225765   4.845   4.746   0.588 -0.5802 -0.3602 -0.6402
 1425TIP3    H125766   4.757   4.755   0.552 -0.4367  1.0775 -0.7189
 1425TIP3    H225767   4.898   4.712   0.516 -0.8816 -0.2730 -0.9013
 1426TIP3   OH225768   3.067   3.482  10.715  0.7200 -0.8382  0.3462
 1426TIP3    H125769   3.023   3.456  10.634  0.3072  0.4472  0.1403
 1426TIP3    H225770   2.996   3.494  10.778  1.0510 -1.9965  0.9705
 1427TIP3   OH225771   0.214   4.445   3.043 -0.3133  0.3730 -0.2086
 1427TIP3    H125772   0.203   4.350   3.051  1.0614  0.3390  2.5418
 1427TIP3    H225773   0.144   4.482   3.097  0.2447  0.8533  0.1969
 1428TIP3   OH225774   3.744   3.003  16.265  0.0983 -0.1491  0.4931
 1428TIP3    H125775   3.671   2.994  16.325 -0.9239  1.3236 -0.4475
 1428TIP3    H225776   3.709   3.053  16.191  2.5051  2.3482  0.8558
 1429TIP3   OH225777   4.350   4.863   2.990 -0.7637 -0.1305  0.4461
 1429TIP3    H125778   4.411   4.857   2.916 -0.5061 -0.2659  0.6671
 1429TIP3    H225779   4.392   4.813   3.060 -1.4724 -0.8564  0.3689
 1430TIP3   OH225780   6.400   3.790   1.946 -0.3150  0.2353  0.0538
 1430TIP3    H125781   6.327   3.728   1.950 -2.2983  2.3883 -0.3055
 1430TIP3    H225782   6.370   3.866   1.997  1.4126  1.4557 -0.6420
 1431TIP3   OH225783   1.857   2.354   4.201 -0.0954 -0.2665  0.0883
 1431TIP3    H125784   1.790   2.354   4.132 -0.0487 -1.1346  0.0381
 1431TIP3    H225785   1.857   2.265   4.235  1.3152 -0.3840 -0.1666
 1432TIP3   OH225786   4.514   2.681   2.837 -0.4690  0.1629 -0.3236
 1432TIP3    H125787   4.436   2.628   2.823 -0.8022  0.3681  0.7156
 1432TIP3    H225788   4.523   2.687   2.932  0.2169  1.0014 -0.4253
 1433TIP3   OH225789   2.808   1.485  14.646 -0.0939  0.4350 -0.1906
 1433TIP3    H125790   2.873   1.544  14.610  1.5103 -0.8986  0.3516
 1433TIP3    H225791   2.748   1.541  14.694  0.3363  1.7685 -1.1671
 1434TIP3   OH225792   0.893   1.582   4.508  0.6359  0.2630 -0.1023
 1434TIP3    H125793   0.911   1.495   4.473 -0.2896  0.2035 -0.4634
 1434TIP3    H225794   0.819   1.614   4.456  0.4769  0.9590  0.5285
 1435TIP3   OH225795   1.914   6.502  11.537 -0.5029 -0.1304  0.8942
 1435TIP3    H125796   1.842   6.438  11.536  1.0261 -1.9587 -0.2764
 1435TIP3    H225797   1.989   6.452  11.569  0.1680  1.8894  2.6783
 1436TIP3   OH225798   2.912   3.073  12.422 -0.3136  0.3546  0.3803
 1436TIP3    H125799   2.947   3.152  12.380 -1.0965  0.3173 -0.3657
 1436TIP3    H225800   2.896   3.100  12.512  1.3940  0.4389  0.6835
 1437TIP3   OH225801   2.721   6.486  11.933  0.0453 -0.3197 -0.1794
 1437TIP3    H125802   2.710   6.459  11.841  1.2173 -2.5240  0.2659
 1437TIP3    H225803   2.804   6.446  11.960  0.6255  1.7397  1.3726
 1438TIP3   OH225804   4.243   2.323  16.053  0.3666 -0.6798  0.4851
 1438TIP3    H125805   4.192   2.247  16.025 -0.5529  0.5704 -1.3839
 1438TIP3    H225806   4.185   2.398  16.041  1.1848  0.3709  2.4488
 1439TIP3   OH225807   6.728   5.414   1.983  0.5822 -0.3971  0.4045
 1439TIP3    H125808   6.645   5.387   1.945  0.4585  0.9899 -0.3498
 1439TIP3    H225809   6.787   5.341   1.965 -0.3390 -1.2149  0.5844
 1440TIP3   OH225810   1.865   3.758  16.503 -0.2101 -0.1795 -0.1400
 1440TIP3    H125811   1.949   3.752  16.458 -0.0810  1.2083 -0.1324
 1440TIP3    H225812   1.804   3.710  16.447  0.3694 -0.2531 -0.7152
 1441TIP3   OH225813   5.479   2.784  12.449 -0.5833 -0.0514  0.6013
 1441TIP3    H125814   5.570   2.808  12.464 -0.3432  0.4804 -1.4243
 1441TIP3    H225815   5.429   2.852  12.495  0.0231 -0.1842  1.4862
 1442TIP3   OH225816   0.575   3.557  16.730 -0.0223  0.0672 -0.3284
 1442TIP3    H125817   0.546   3.573  16.640  0.8672 -0.5486 -0.7327
 1442TIP3    H225818   0.653   3.611  16.741 -0.7564  0.9985  0.4505
 1443TIP3   OH225819   5.825   3.357   4.499  0.3477 -0.0490 -0.3893
 1443TIP3    H125820   5.796   3.274   4.537  2.5419 -0.0324  1.5292
 1443TIP3    H225821   5.905   3.336   4.452  0.4509  0.8355 -0.6327
 1444TIP3   OH225822   1.063   6.735   2.597  0.7030  0.3373 -0.2922
 1444TIP3    H125823   0.983   6.700   2.636  1.2827  0.3336  0.9401
 1444TIP3    H225824   1.060   6.828   2.616  0.8501  0.3801 -0.4833
 1445TIP3   OH225825   0.053   0.679  13.059  0.4992  0.5180  0.4880
 1445TIP3    H125826   0.041   0.766  13.021  1.9086  1.0939  1.2679
 1445TIP3    H225827   0.108   0.632  12.996 -1.1975 -0.2575 -0.4948
 1446TIP3   OH225828   2.104   2.868  14.851  0.1557  0.0854 -0.1804
 1446TIP3    H125829   2.063   2.905  14.772 -0.1133 -0.8267 -0.4732
 1446TIP3    H225830   2.136   2.783  14.824  0.1499 -0.1987  0.6773
 1447TIP3   OH225831   4.682   4.073  14.374 -0.1915 -0.4158 -0.3036
 1447TIP3    H125832   4.761   4.034  14.336  0.6428  0.3926  0.5346
 1447TIP3    H225833   4.651   4.135  14.308 -0.1671 -0.7956 -0.6703
 1448TIP3   OH225834   3.227   5.855  10.870  0.7410 -0.0132 -0.0052
 1448TIP3    H125835   3.227   5.911  10.793 -0.8792 -0.0179 -0.0599
 1448TIP3    H225836   3.297   5.792  10.855  1.3730  0.8606 -0.7985
 1449TIP3   OH225837   3.563   6.644   2.261  1.0252  0.0656  0.2886
 1449TIP3    H125838   3.521   6.659   2.346  2.1049  0.5625  0.7441
 1449TIP3    H225839   3.573   6.731   2.223  1.1093 -0.1052 -0.0869
 1450TIP3   OH225840   0.414   1.593   1.778  0.3558  0.1778 -0.2987
 1450TIP3    H125841   0.350   1.618   1.712 -0.7253  0.9014  0.9809
 1450TIP3    H225842   0.401   1.499   1.790 -0.3064  0.2768 -0.2174
 1451TIP3   OH225843   3.625   4.939   5.242  0.0597 -0.5425  0.1043
 1451TIP3    H125844   3.705   4.939   5.190  0.9883 -0.0820  1.4631
 1451TIP3    H225845   3.655   4.930   5.332 -1.6043 -3.3810  0.4770
 1452TIP3   OH225846   3.095   6.474   6.494  0.1397 -0.2208  0.8474
 1452TIP3    H125847   3.000   6.469   6.479  0.1549 -0.2377  0.7584
 1452TIP3    H225848   3.114   6.567   6.500 -0.3262 -0.2215  3.6223
 1453TIP3   OH225849   1.653   4.399   1.896  0.3960 -0.9139  0.0178
 1453TIP3    H125850   1.577   4.370   1.846  0.5590 -0.2692 -0.6291
 1453TIP3    H225851   1.696   4.318   1.924 -0.0225 -1.2890 -0.4038
 1454TIP3   OH225852   4.943   6.255  11.363 -0.0975 -0.1399  0.3577
 1454TIP3    H125853   4.853   6.265  11.333  0.1487 -1.0335 -0.7395
 1454TIP3    H225854   4.984   6.340  11.345 -0.1924 -0.3765 -1.0817
 1455TIP3   OH225855   6.774   2.877   1.720  0.0390  0.5354  0.1984
 1455TIP3    H125856   6.705   2.910   1.662  0.0783  4.5517  2.0535
 1455TIP3    H225857   6.729   2.818   1.780 -2.0386  3.2710  1.5416
 1456TIP3   OH225858   3.014   0.632  14.394  0.3861  0.0552 -0.1159
 1456TIP3    H125859   2.973   0.655  14.478 -0.0229 -0.0861 -0.2759
 1456TIP3    H225860   3.038   0.540  14.403  2.0466  0.5136  0.5335
 1457TIP3   OH225861   2.457   3.448   1.521  0.4441 -0.0120 -0.8153
 1457TIP3    H125862   2.437   3.355   1.535 -0.4779  0.3063  0.0983
 1457TIP3    H225863   2.378   3.483   1.479 -0.6444  1.0339  1.8587
 1458TIP3   OH225864   3.624   6.285   1.504  0.2121  0.2084  0.2139
 1458TIP3    H125865   3.591   6.351   1.444 -0.6438 -1.4027 -1.1799
 1458TIP3    H225866   3.584   6.306   1.589  1.9904  2.9235  0.4791
 1459TIP3   OH225867   0.055   4.642  15.870  0.4033 -0.7751 -0.2101
 1459TIP3    H125868   0.147   4.631  15.892  0.4237  0.4186  0.3452
 1459TIP3    H225869   0.015   4.559  15.895  1.5508 -1.8726 -1.8180
 1460TIP3   OH225870   4.971   2.422  17.125  0.0131  0.1730 -0.0241
 1460TIP3    H125871   4.954   2.506  17.082  0.9405 -0.1794 -1.1365
 1460TIP3    H225872   5.060   2.430  17.160  0.0263 -0.2624  0.0517
 1461TIP3   OH225873   3.866   4.702  11.219 -0.0748 -0.5996 -0.2974
 1461TIP3    H125874   3.853   4.638  11.149  0.3543 -1.4955  0.4244
 1461TIP3    H225875   3.780   4.712  11.260 -0.5210  0.5432 -1.4370
 1462TIP3   OH225876   3.380   2.509  14.628  0.6596 -0.1587 -0.2713
 1462TIP3    H125877   3.356   2.433  14.680 -2.0368  0.9699  0.3034
 1462TIP3    H225878   3.304   2.526  14.573  0.9048  2.4683  0.0764
 1463TIP3   OH225879   4.052   5.664  14.696  0.0046  0.2376 -0.3653
 1463TIP3    H125880   4.138   5.660  14.654 -0.1668  0.6411 -0.7607
 1463TIP3    H225881   4.071   5.663  14.790  0.6086  2.5172 -0.3838
 1464TIP3   OH225882   5.325   4.136   2.759 -0.1263 -0.1209 -0.1940
 1464TIP3    H125883   5.252   4.197   2.750 -0.2548 -0.0470  1.1594
 1464TIP3    H225884   5.283   4.052   2.779 -0.0122 -0.9250 -2.8866
 1465TIP3   OH225885   2.702   1.203   6.036 -0.0074  0.2199  0.2849
 1465TIP3    H125886   2.615   1.177   6.066  0.9311  1.5280  4.9686
 1465TIP3    H225887   2.709   1.295   6.059  2.4464  0.3178 -0.5113
 1466TIP3   OH225888   5.217   4.597   4.610  0.2294  0.0551  0.3901
 1466TIP3    H125889   5.181   4.634   4.690  0.0159  0.9412 -0.1061
 1466TIP3    H225890   5.298   4.646   4.595  0.8569 -0.8770  0.6655
 1467TIP3   OH225891   3.284   0.917   3.509 -0.2102  0.3950  0.2197
 1467TIP3    H125892   3.256   1.001   3.472 -1.2652  0.5414  1.2941
 1467TIP3    H225893   3.244   0.851   3.452 -1.7470  0.6190  1.0008
 1468TIP3   OH225894   6.197   4.842  13.502  0.5073  0.1476 -0.1512
 1468TIP3    H125895   6.233   4.926  13.530  0.1495  0.6944 -1.2679
 1468TIP3    H225896   6.103   4.856  13.499  0.4665 -0.2026 -0.6291
 1469TIP3   OH225897   1.600   4.201  16.626  0.1055 -0.3767  0.0352
 1469TIP3    H125898   1.649   4.122  16.602  0.8291  0.0919 -0.0621
 1469TIP3    H225899   1.656   4.273  16.598 -0.0373  0.1791  1.1137
 1470TIP3   OH225900   6.608   3.523  15.615 -0.4635 -0.9423 -0.3686
 1470TIP3    H125901   6.650   3.602  15.580  1.6197 -0.7302  2.2327
 1470TIP3    H225902   6.521   3.522  15.574 -0.2980  2.2304 -1.1239
 1471TIP3   OH225903   3.936   2.014  12.492 -0.4212 -0.3172 -0.4223
 1471TIP3    H125904   3.928   2.085  12.429  1.4627  0.0036 -0.3793
 1471TIP3    H225905   3.847   1.998  12.523 -0.9750  1.5656 -0.9243
 1472TIP3   OH225906   4.196   4.534  14.864 -0.2150 -0.0872 -0.3801
 1472TIP3    H125907   4.250   4.456  14.856  1.1190  0.6567  0.9320
 1472TIP3    H225908   4.148   4.538  14.781  2.1255 -0.5192 -1.8602
 1473TIP3   OH225909   5.522   3.229   2.004  0.5032 -0.2912 -0.5027
 1473TIP3    H125910   5.536   3.294   2.072 -1.1686  1.8583 -2.0510
 1473TIP3    H225911   5.426   3.221   1.998  0.6465 -1.7593 -1.3894
 1474TIP3   OH225912   1.891   1.563  15.285  0.1382 -0.0131  0.5279
 1474TIP3    H125913   1.955   1.625  15.319  0.2569 -0.4522  1.1200
 1474TIP3    H225914   1.944   1.497  15.240 -0.0020  0.4361 -0.3229
 1475TIP3   OH225915   6.055   3.606   1.009 -0.1236 -0.6585 -0.7702
 1475TIP3    H125916   6.042   3.570   1.097  0.5147 -0.4228 -0.5672
 1475TIP3    H225917   6.108   3.540   0.965  2.0338  0.4662 -0.0309
 1476TIP3   OH225918   2.824   2.080  13.886  0.5270  0.0288  1.1183
 1476TIP3    H125919   2.798   2.067  13.794 -0.2860  0.6907  1.2417
 1476TIP3    H225920   2.780   2.010  13.933  1.8008 -0.9654  0.8839
 1477TIP3   OH225921   0.019   3.971   2.841 -0.1035 -0.1138 -0.4291
 1477TIP3    H125922   0.103   4.005   2.810  0.0928 -1.6739 -1.7190
 1477TIP3    H225923   0.041   3.913   2.914 -0.1074 -0.2249 -0.5171
 1478TIP3   OH225924   6.353   1.125   0.338 -0.2567  1.0437 -0.3088
 1478TIP3    H125925   6.325   1.088   0.421 -1.0650  3.5132  0.6191
 1478TIP3    H225926   6.272   1.142   0.290  0.2064 -0.4579 -1.7032
 1479TIP3   OH225927   3.775   4.045  17.171 -0.6581  0.3526 -0.0849
 1479TIP3    H125928   3.860   4.033  17.213 -1.0840 -0.9279  0.4492
 1479TIP3    H225929   3.793   4.101  17.096  1.2182 -2.1926 -1.6814
 1480TIP3   OH225930   2.868   4.826  15.270  0.4400  0.9380  0.1082
 1480TIP3    H125931   2.869   4.829  15.175 -2.2655 -1.5027 -0.1467
 1480TIP3    H225932   2.795   4.883  15.295 -0.7240 -0.6022  0.4199
 1481TIP3   OH225933   5.960   2.071  16.612 -0.1779  0.0397 -0.1944
 1481TIP3    H125934   6.055   2.071  16.600 -0.2160 -1.6055 -0.7219
 1481TIP3    H225935   5.925   2.060  16.524 -0.8684  0.6837 -0.0042
 1482TIP3   OH225936   1.850   6.606   1.883  0.1762  0.8966 -0.4701
 1482TIP3    H125937   1.823   6.519   1.855  1.9911  0.5643 -1.2874
 1482TIP3    H225938   1.773   6.661   1.865 -0.2811 -0.1466 -1.9037
 1483TIP3   OH225939   0.586   3.927   4.682  0.0939 -0.5475 -0.1255
 1483TIP3    H125940   0.583   3.977   4.600 -2.2960 -1.8516 -0.9438
 1483TIP3    H225941   0.667   3.955   4.724  1.0828  0.6676 -2.6106
 1484TIP3   OH225942   5.620   3.787   3.122  0.0362  0.3016  0.5874
 1484TIP3    H125943   5.641   3.880   3.110  1.4146  0.2077  1.8970
 1484TIP3    H225944   5.571   3.784   3.204 -3.6383  0.2532 -1.4184
 1485TIP3   OH225945   6.349   4.655   0.240 -0.5349 -0.2972  0.1529
 1485TIP3    H125946   6.283   4.644   0.308 -1.4906 -0.8709 -0.8215
 1485TIP3    H225947   6.301   4.693   0.166  0.7967  1.7581  0.2740
 1486TIP3   OH225948   4.931   6.790   3.315  0.3772 -0.2517 -0.9175
 1486TIP3    H125949   4.975   6.795   3.399  2.7680  2.6204 -2.1705
 1486TIP3    H225950   4.841   6.817   3.333  0.1086 -2.1605  1.0239
 1487TIP3   OH225951   5.146   1.615   2.973  0.4140  0.5986  0.3709
 1487TIP3    H125952   5.205   1.550   2.934 -0.1701 -0.6326  1.4591
 1487TIP3    H225953   5.134   1.681   2.905  0.2643 -0.9249 -1.1463
 1488TIP3   OH225954   3.514   6.576   1.030  0.0203  0.0374  0.3467
 1488TIP3    H125955   3.508   6.629   0.951  0.1838  0.4040  0.5788
 1488TIP3    H225956   3.602   6.538   1.027 -0.6626 -1.5920 -0.6771
 1489TIP3   OH225957   4.536   5.488  13.252  0.4085  0.3994  0.2537
 1489TIP3    H125958   4.484   5.513  13.175 -1.6439 -2.3190  0.6104
 1489TIP3    H225959   4.612   5.442  13.215 -0.3217 -0.4731 -0.2052
 1490TIP3   OH225960   1.093   0.167   5.844 -0.5526  0.6100  0.4938
 1490TIP3    H125961   1.165   0.230   5.857 -0.5320  0.6869  0.0265
 1490TIP3    H225962   1.094   0.149   5.750 -1.0506  0.4944  0.5085
 1491TIP3   OH225963   2.328   5.760  16.065 -0.1392  0.1724 -0.2683
 1491TIP3    H125964   2.313   5.722  15.979 -1.9164 -0.3727  0.2300
 1491TIP3    H225965   2.362   5.687  16.118 -2.8963 -0.6944  0.5030
 1492TIP3   OH225966   2.796   6.254   3.434  0.5872 -0.4499  0.0519
 1492TIP3    H125967   2.725   6.276   3.494  1.1311 -2.9607  1.7552
 1492TIP3    H225968   2.812   6.335   3.385 -0.3230  1.5489  2.8088
 1493TIP3   OH225969   5.813   3.026  14.055 -0.4256  0.0424 -0.3677
 1493TIP3    H125970   5.825   2.940  14.015  0.2849 -0.2288  0.4106
 1493TIP3    H225971   5.764   3.076  13.990 -0.6065 -0.8623 -0.9424
 1494TIP3   OH225972   0.048   3.223   4.384  0.0263  0.2550 -0.0399
 1494TIP3    H125973   0.042   3.247   4.292 -0.6865 -1.8258 -0.6084
 1494TIP3    H225974   0.004   3.294   4.431 -0.0512  1.0948 -1.3355
 1495TIP3   OH225975   5.287   0.095  11.970 -0.0443  0.6122  0.1429
 1495TIP3    H125976   5.266   0.069  12.059 -0.2561  0.2459 -0.0150
 1495TIP3    H225977   5.381   0.078  11.961 -0.1700 -0.0407  0.0595
 1496TIP3   OH225978   5.336   3.008   1.167  0.4164 -0.1478 -0.0112
 1496TIP3    H125979   5.314   3.001   1.260  1.5705 -0.6093  0.2410
 1496TIP3    H225980   5.387   3.089   1.161 -1.1356  0.8220 -0.5570
 1497TIP3   OH225981   0.628   0.736   4.346  0.2969 -0.5065  0.3189
 1497TIP3    H125982   0.675   0.818   4.364  0.0868 -0.2442 -0.2781
 1497TIP3    H225983   0.545   0.745   4.394 -0.2085  0.1349 -0.6269
 1498TIP3   OH225984   1.222   5.593   0.995 -0.2076 -0.6588  0.1980
 1498TIP3    H125985   1.210   5.600   0.900 -0.1294 -0.8674  0.1724
 1498TIP3    H225986   1.145   5.637   1.032 -0.2337 -0.5684  0.0383
 1499TIP3   OH225987   5.581   0.837  13.129  0.4027 -0.3317 -0.0232
 1499TIP3    H125988   5.660   0.784  13.143  0.5711 -0.0839 -0.0399
 1499TIP3    H225989   5.614   0.925  13.111  0.1001  0.0685  1.2339
 1500TIP3   OH225990   1.434   2.837   5.159 -0.3150 -0.0354 -0.5589
 1500TIP3    H125991   1.353   2.789   5.175 -0.0853  0.0704  1.0604
 1500TIP3    H225992   1.501   2.769   5.148  0.1183 -0.1748  2.3051
 1501TIP3   OH225993   3.764   5.816  16.005 -0.1349 -0.3743  0.4706
 1501TIP3    H125994   3.679   5.777  16.025 -0.0040 -0.7228  0.3444
 1501TIP3    H225995   3.824   5.742  16.000 -0.2387 -0.4008 -1.7213
 1502TIP3   OH225996   3.013   1.934   0.339  0.4890  0.3805 -0.0862
 1502TIP3    H125997   2.931   1.982   0.350 -0.9146 -2.2430  2.2463
 1502TIP3    H225998   3.043   1.918   0.429  3.5751  1.1688 -0.8816
 1503TIP3   OH225999   3.267   6.472   5.132 -0.8747 -0.2337  0.6081
 1503TIP3    H126000   3.352   6.455   5.093 -0.3561 -0.3281  1.7520
 1503TIP3    H226001   3.208   6.409   5.089 -0.3151 -0.3900  0.0553
 1504TIP3   OH226002   5.885   6.051  14.978 -0.3555 -0.0302 -0.1220
 1504TIP3    H126003   5.873   6.124  15.038  1.9582  1.7622 -1.6878
 1504TIP3    H226004   5.975   6.060  14.946 -0.4709 -2.7248 -1.4988
 1505TIP3   OH226005   4.369   1.146   4.091  0.9287  0.1890  0.9241
 1505TIP3    H126006   4.342   1.057   4.113 -0.1525 -0.5929 -2.8933
 1505TIP3    H226007   4.462   1.138   4.071  0.3177 -0.7741 -1.9382
 1506TIP3   OH226008   6.740   4.060   0.205 -0.0236  0.0374  0.2445
 1506TIP3    H126009   6.709   4.051   0.115 -1.2095 -0.1566  0.6574
 1506TIP3    H226010   6.776   3.974   0.227  0.2159  0.0681 -0.0139
 1507TIP3   OH226011   1.145   1.919  15.427 -0.3519  0.0723  0.3617
 1507TIP3    H126012   1.051   1.903  15.429 -0.7115  2.0798  0.9676
 1507TIP3    H226013   1.169   1.934  15.518  0.1914  1.4247  0.0184
 1508TIP3   OH226014   2.244   5.536  12.937 -0.0760 -0.1675  0.0253
 1508TIP3    H126015   2.217   5.568  12.851  2.7154  1.0247 -0.5106
 1508TIP3    H226016   2.325   5.489  12.921  2.7287  3.3514  2.2886
 1509TIP3   OH226017   0.344   1.168   0.429 -0.1348  0.6925  0.6213
 1509TIP3    H126018   0.293   1.226   0.485 -0.9854 -0.4823  1.0983
 1509TIP3    H226019   0.299   1.170   0.345 -0.4745  0.3309  0.7905
 1510TIP3   OH226020   2.840   4.420  13.498 -0.0508 -0.1911 -0.2535
 1510TIP3    H126021   2.917   4.394  13.549  0.3173 -1.9508 -1.5992
 1510TIP3    H226022   2.872   4.488  13.438  0.4425 -0.7917 -0.6866
 1511TIP3   OH226023   3.658   1.011   6.079  0.0262  0.6544 -0.2038
 1511TIP3    H126024   3.719   0.953   6.125 -0.6797 -0.8062 -1.0216
 1511TIP3    H226025   3.705   1.094   6.069  1.5305 -0.1496 -0.0272
 1512TIP3   OH226026   4.675   1.089  12.350  0.2773 -0.3073  0.3482
 1512TIP3    H126027   4.704   1.010  12.395 -0.9104  0.0636  1.8444
 1512TIP3    H226028   4.746   1.108  12.288  1.1839 -1.7923  0.8666
 1513TIP3   OH226029   0.627   1.857  10.579  0.1408  0.3293  0.6450
 1513TIP3    H126030   0.577   1.833  10.657 -1.7528  1.1515 -0.2679
 1513TIP3    H226031   0.563   1.857  10.508  1.7761 -0.1967 -0.9021
 1514TIP3   OH226032   3.269   5.445   3.052  0.1374 -0.1409 -0.1784
 1514TIP3    H126033   3.257   5.539   3.042  1.2485  0.1044  0.5708
 1514TIP3    H226034   3.340   5.423   2.991 -0.5652 -0.6215 -0.8361
 1515TIP3   OH226035   2.417   2.005   1.515  0.1557  0.4605  0.5377
 1515TIP3    H126036   2.358   1.960   1.455  0.0796 -0.4518  1.2750
 1515TIP3    H226037   2.499   1.958   1.508  0.1856  0.4316  1.0463
 1516TIP3   OH226038   0.846   2.290   3.944  0.1143 -0.7825  0.1271
 1516TIP3    H126039   0.866   2.296   3.850  0.2995 -0.0245  0.2073
 1516TIP3    H226040   0.892   2.212   3.974 -0.3222 -1.3003 -0.5042
 1517TIP3   OH226041   6.023   1.868   1.475 -0.5020  0.3808 -0.5541
 1517TIP3    H126042   6.007   1.960   1.495  1.0087  0.4464  0.5172
 1517TIP3    H226043   6.005   1.822   1.558  0.5120 -0.0527 -0.5649
 1518TIP3   OH226044   3.118   5.724  15.940 -0.8545  0.1499 -0.6029
 1518TIP3    H126045   3.200   5.677  15.927 -1.3235 -0.9469  0.2929
 1518TIP3    H226046   3.103   5.768  15.856  1.2581  1.4137 -0.4171
 1519TIP3   OH226047   4.484   2.258  16.787  0.3494 -0.2173  0.2970
 1519TIP3    H126048   4.498   2.353  16.786 -0.3501 -0.1070 -0.9722
 1519TIP3    H226049   4.545   2.225  16.853  4.1310  0.5811 -2.4721
 1520TIP3   OH226050   6.810   2.173  11.791  0.5118 -0.5840 -0.5431
 1520TIP3    H126051   6.746   2.125  11.844 -0.1713 -0.0911 -0.9052
 1520TIP3    H226052   6.803   2.132  11.705  0.0598  0.0364 -0.8045
 1521TIP3   OH226053   6.482   2.370  11.141 -0.1358  0.7429 -0.0616
 1521TIP3    H126054   6.533   2.343  11.218 -1.4442  1.7923  1.2374
 1521TIP3    H226055   6.431   2.293  11.118  0.3519  0.3824  0.0366
 1522TIP3   OH226056   2.893   2.185  13.307 -0.0354 -0.0825 -0.8954
 1522TIP3    H126057   2.899   2.091  13.318 -2.0279 -0.0222  1.4578
 1522TIP3    H226058   2.807   2.199  13.268 -0.5530  0.8352  0.5167
 1523TIP3   OH226059   4.316   4.984  14.143 -0.3937  0.4702 -0.0002
 1523TIP3    H126060   4.286   5.067  14.106 -0.4960  0.5991  0.3716
 1523TIP3    H226061   4.243   4.924  14.127  0.8990 -0.4483 -3.2278
 1524TIP3   OH226062   2.565   5.621   0.284  0.0657 -0.7064 -0.1579
 1524TIP3    H126063   2.543   5.696   0.339 -1.1501 -0.3485 -1.0887
 1524TIP3    H226064   2.525   5.546   0.329  2.0175 -1.0043  1.2415
 1525TIP3   OH226065   6.679   1.316  15.767  0.0382  0.1860 -0.8540
 1525TIP3    H126066   6.624   1.373  15.821  0.4409  0.5838 -0.8537
 1525TIP3    H226067   6.760   1.307  15.818  0.3461  0.4021 -1.3024
 1526TIP3   OH226068   1.436   0.437  14.132 -0.2900 -0.3916  0.4212
 1526TIP3    H126069   1.394   0.368  14.080  0.4098 -1.4919  1.2497
 1526TIP3    H226070   1.372   0.508  14.135 -0.4791 -0.4043 -1.6551
 1527TIP3   OH226071   4.146   4.263  16.914 -0.6415 -0.3644  0.1266
 1527TIP3    H126072   4.241   4.253  16.923 -0.3457  2.8336  2.0533
 1527TIP3    H226073   4.135   4.311  16.832 -0.5402 -0.2563  0.1764
 1528TIP3   OH226074   4.781   3.433   3.051 -0.3620  0.0713  0.2369
 1528TIP3    H126075   4.796   3.486   3.130 -2.8728  0.2421  0.6850
 1528TIP3    H226076   4.714   3.481   3.003 -0.9801 -1.5194 -0.5521
 1529TIP3   OH226077   4.552   3.733  15.264  0.0728  0.2702  0.1078
 1529TIP3    H126078   4.599   3.816  15.263 -0.2816  0.4773  0.3569
 1529TIP3    H226079   4.571   3.693  15.179  0.4264  0.5000  0.0768
 1530TIP3   OH226080   3.704   1.144  12.310 -0.0164  0.0388  0.4153
 1530TIP3    H126081   3.795   1.117  12.316 -0.4340 -1.2639  1.5435
 1530TIP3    H226082   3.703   1.234  12.341  1.1876  0.8748 -1.8097
 1531TIP3   OH226083   5.750   0.960  11.830  0.0558 -0.2958  0.3340
 1531TIP3    H126084   5.784   0.871  11.843 -0.5226 -0.3033  2.0905
 1531TIP3    H226085   5.686   0.951  11.760  0.3003 -1.1851  0.2083
 1532TIP3   OH226086   4.619   3.239   3.601  0.2875 -0.1436  0.0976
 1532TIP3    H126087   4.671   3.208   3.527  0.1692 -0.3615  0.1040
 1532TIP3    H226088   4.615   3.163   3.660 -0.7306 -0.3986 -0.2819
 1533TIP3   OH226089   3.057   2.368   3.182 -0.3091 -0.5146  0.0222
 1533TIP3    H126090   3.089   2.301   3.242  1.1492  0.5424  0.4867
 1533TIP3    H226091   2.966   2.343   3.164  0.4892 -3.2447 -0.7450
 1534TIP3   OH226092   5.679   2.288  14.060 -0.1551 -0.0927  0.0247
 1534TIP3    H126093   5.700   2.381  14.048  1.9816 -0.5116  0.0723
 1534TIP3    H226094   5.586   2.282  14.038 -0.3942  2.0736  0.1671
 1535TIP3   OH226095   6.570   3.023   1.915  0.6481  0.0982 -0.2404
 1535TIP3    H126096   6.655   3.021   1.959 -1.4410 -0.5391  4.4158
 1535TIP3    H226097   6.556   3.115   1.895  1.3397  0.6791  1.6581
 1536TIP3   OH226098   5.772   4.387  12.956  0.6503 -0.2453 -0.5793
 1536TIP3    H126099   5.850   4.410  12.905  0.8047  2.8585  0.8643
 1536TIP3    H226100   5.806   4.337  13.031  1.0018 -0.5820 -0.9605
 1537TIP3   OH226101   3.706   6.208   2.103  0.2878 -0.3466 -0.2490
 1537TIP3    H126102   3.650   6.286   2.111  0.4453 -0.2511 -0.0874
 1537TIP3    H226103   3.762   6.227   2.028  1.8341  0.6458  1.0873
 1538TIP3   OH226104   3.209   3.395  12.476  0.3543  0.0760  0.1402
 1538TIP3    H126105   3.143   3.406  12.407  0.4302  0.6891  0.1643
 1538TIP3    H226106   3.207   3.477  12.525  1.4434  0.2730 -0.1242
 1539TIP3   OH226107   0.735   4.799   4.271 -0.0421 -0.4826  1.0155
 1539TIP3    H126108   0.761   4.853   4.197 -2.3367  0.5182  0.8395
 1539TIP3    H226109   0.740   4.858   4.347 -1.1254 -0.4128  1.0553
 1540TIP3   OH226110   2.956   5.905   0.074  0.3463  0.2243 -0.1326
 1540TIP3    H126111   2.909   5.893   0.157  1.1717  2.3404  0.6815
 1540TIP3    H226112   2.948   5.998   0.055  0.8375 -0.0966 -2.0502
 1541TIP3   OH226113   5.106   3.450  14.613  0.0456 -0.6726 -0.2573
 1541TIP3    H126114   5.091   3.384  14.681  2.0284  0.6411  1.5662
 1541TIP3    H226115   5.197   3.478  14.626 -0.1534  1.1108 -2.1692
 1542TIP3   OH226116   2.504   3.429  13.231  0.2797  0.3036  0.3340
 1542TIP3    H126117   2.540   3.401  13.315 -1.7868 -0.8084  0.9071
 1542TIP3    H226118   2.576   3.417  13.169  0.4429 -3.7369  1.0516
 1543TIP3   OH226119   5.518   3.936   0.608  0.1202 -0.1997 -0.3474
 1543TIP3    H126120   5.470   3.962   0.687 -0.6277 -0.9008 -0.5582
 1543TIP3    H226121   5.452   3.937   0.539  0.6057 -0.3365 -0.8212
 1544TIP3   OH226122   3.547   3.161  15.267 -0.4313  0.7506  0.0620
 1544TIP3    H126123   3.513   3.208  15.344 -0.6629 -0.5010  0.7496
 1544TIP3    H226124   3.566   3.073  15.299 -0.1260  0.3264 -1.2258
 1545TIP3   OH226125   0.763   5.634  12.124 -0.3388 -0.6505 -0.8052
 1545TIP3    H126126   0.752   5.668  12.213  0.6786  0.1277 -0.9677
 1545TIP3    H226127   0.751   5.539  12.134  1.5147 -0.8055  0.4944
 1546TIP3   OH226128   2.365   6.421   2.368  0.2474 -0.0259  0.1138
 1546TIP3    H126129   2.325   6.339   2.340  1.4859 -0.9717  1.0349
 1546TIP3    H226130   2.452   6.420   2.327 -0.4980  1.9128 -1.7184
 1547TIP3   OH226131   1.043   4.847   3.994 -0.4470  1.3101  0.1365
 1547TIP3    H126132   1.075   4.864   4.083  1.1284  1.3322 -0.4172
 1547TIP3    H226133   1.095   4.904   3.938  0.6199 -0.7813 -1.1108
 1548TIP3   OH226134   6.418   5.623  14.102 -0.3194  0.1105  0.2952
 1548TIP3    H126135   6.502   5.669  14.096 -0.9354  1.4243  1.2634
 1548TIP3    H226136   6.354   5.687  14.070 -0.9065 -1.1107 -1.0615
 1549TIP3   OH226137   3.579   2.466  15.838 -0.0541 -0.7325 -0.4961
 1549TIP3    H126138   3.551   2.375  15.828 -1.9904 -0.0515 -1.7586
 1549TIP3    H226139   3.565   2.505  15.752  2.9207  0.2549 -0.6341
 1550TIP3   OH226140   6.609   0.993   4.355  0.0136 -0.6058  0.1029
 1550TIP3    H126141   6.522   1.029   4.372  0.6906  1.2335 -0.0012
 1550TIP3    H226142   6.593   0.908   4.316 -1.7298 -0.4479  0.3857
 1551TIP3   OH226143   2.044   1.902   2.430 -0.0592  0.0157  0.1528
 1551TIP3    H126144   2.025   1.811   2.410 -2.0463  0.8111 -2.1694
 1551TIP3    H226145   2.140   1.908   2.427  0.2678 -2.3467  2.6120
 1552TIP3   OH226146   2.424   5.240  11.258 -0.0345  0.1362 -0.3253
 1552TIP3    H126147   2.497   5.250  11.319 -0.0341  0.6242 -0.3985
 1552TIP3    H226148   2.346   5.234  11.314  0.2331 -2.8771 -0.1030
 1553TIP3   OH226149   2.493   4.328  14.567  0.2212  0.2666  0.3278
 1553TIP3    H126150   2.443   4.283  14.636  0.7126  0.7732  1.0251
 1553TIP3    H226151   2.517   4.258  14.506  1.7135 -0.6232  1.8214
 1554TIP3   OH226152   2.803   1.012  12.640  0.4395 -0.1429 -0.4080
 1554TIP3    H126153   2.713   0.991  12.613  0.3117  0.7851 -0.7491
 1554TIP3    H226154   2.795   1.033  12.734  0.0737  1.0789 -0.6871
 1555TIP3   OH226155   2.928   2.461   1.757 -0.2730 -0.1790  0.3607
 1555TIP3    H126156   2.856   2.507   1.714 -0.2728 -0.5835 -0.0778
 1555TIP3    H226157   2.974   2.417   1.686 -0.1022 -0.6268  0.7445
 1556TIP3   OH226158   4.256   3.843  11.446  0.4049  0.0130 -0.1443
 1556TIP3    H126159   4.350   3.861  11.445  0.7690 -1.3697  2.1719
 1556TIP3    H226160   4.215   3.928  11.464  1.3141  0.3827  0.2149
 1557TIP3   OH226161   4.009   2.972  14.701 -0.1678  0.4783 -0.0933
 1557TIP3    H126162   3.949   2.938  14.635 -0.4171  1.8198 -0.5924
 1557TIP3    H226163   3.956   2.978  14.781 -0.7784  1.7350 -0.5507
 1558TIP3   OH226164   1.307   1.949   0.352 -0.1268  0.5357  0.1156
 1558TIP3    H126165   1.213   1.935   0.345 -0.0088 -0.1376 -0.2305
 1558TIP3    H226166   1.346   1.865   0.328  0.5358  0.3508  1.7029
 1559TIP3   OH226167   1.546   5.156   2.709 -0.3474  0.0762  0.2620
 1559TIP3    H126168   1.462   5.163   2.754 -0.0749  1.1611  0.6125
 1559TIP3    H226169   1.577   5.068   2.731  0.5005  1.0555  3.5302
 1560TIP3   OH226170   4.938   0.627  15.161  0.2188 -0.3677  0.2471
 1560TIP3    H126171   4.965   0.698  15.102  0.3602  0.1701  0.9501
 1560TIP3    H226172   5.014   0.611  15.217 -0.0893 -0.5141  0.6314
 1561TIP3   OH226173   4.088   3.074  15.029  0.0359  0.3152  0.1003
 1561TIP3    H126174   4.182   3.071  15.011  0.5248  1.3153  2.1722
 1561TIP3    H226175   4.068   2.987  15.064 -0.2684 -0.5497 -2.0561
 1562TIP3   OH226176   1.832   2.914   5.848 -0.1674 -0.3434  0.4457
 1562TIP3    H126177   1.873   2.902   5.934 -0.3196  0.9141  0.7241
 1562TIP3    H226178   1.775   2.990   5.860 -0.5973 -0.4839 -0.6281
 1563TIP3   OH226179   6.161   2.281  15.945  0.3113  0.2984  0.8616
 1563TIP3    H126180   6.099   2.330  15.891  0.5496  0.3403  0.6284
 1563TIP3    H226181   6.246   2.321  15.928  1.0259 -1.9061 -1.5137
 1564TIP3   OH226182   3.931   5.113   5.664 -0.4863 -0.4485  0.0916
 1564TIP3    H126183   3.998   5.163   5.617 -0.1691 -0.7734  0.1884
 1564TIP3    H226184   3.957   5.022   5.652 -0.4140 -0.5410  0.8597
 1565TIP3   OH226185   6.564   1.623   1.198 -0.1399  0.1790  0.6163
 1565TIP3    H126186   6.647   1.597   1.238 -0.4715 -1.5208  0.2910
 1565TIP3    H226187   6.539   1.703   1.243  0.3110 -0.7699  2.6616
 1566TIP3   OH226188   4.730   2.058  11.400 -0.0150  0.3105  0.6219
 1566TIP3    H126189   4.697   2.044  11.311  0.6580  0.9996  0.2466
 1566TIP3    H226190   4.800   2.122  11.389 -0.1891  0.7046  1.7045
 1567TIP3   OH226191   3.828   1.752   0.008  0.0916  0.0615  0.2343
 1567TIP3    H126192   3.881   1.672   0.010  0.3705  0.2519  1.9062
 1567TIP3    H226193   3.760   1.737   0.074  0.3288  1.3090  0.7809
 1568TIP3   OH226194   0.326   0.452   3.677  0.2928 -0.1244 -0.0959
 1568TIP3    H126195   0.291   0.529   3.634  1.2684  0.3121 -0.1304
 1568TIP3    H226196   0.405   0.483   3.722  0.1622 -0.8969  0.6932
 1569TIP3   OH226197   3.322   2.897  16.791  0.3235 -0.3308 -0.6692
 1569TIP3    H126198   3.303   2.868  16.702 -3.4142  0.6935 -0.4010
 1569TIP3    H226199   3.303   2.821  16.846  0.2000 -0.2483 -0.5965
 1570TIP3   OH226200   2.638   5.267  15.295  0.7596 -0.0623  0.2966
 1570TIP3    H126201   2.612   5.331  15.229 -1.0968 -1.6916 -0.6396
 1570TIP3    H226202   2.583   5.285  15.371 -1.5753 -1.9485 -0.8165
 1571TIP3   OH226203   0.401   0.534   4.242 -0.2703 -0.6610 -0.5064
 1571TIP3    H126204   0.375   0.607   4.298 -1.7564 -0.4531 -1.4348
 1571TIP3    H226205   0.402   0.570   4.154 -1.0471 -1.7519 -0.9786
 1572TIP3   OH226206   4.457   5.193   4.642  0.1061  0.2019 -0.8801
 1572TIP3    H126207   4.450   5.272   4.588 -0.2651  0.4188 -0.5177
 1572TIP3    H226208   4.436   5.222   4.730 -0.7508 -0.4460 -0.8647
 1573TIP3   OH226209   5.947   3.897   3.709  0.0321  0.2380 -0.7100
 1573TIP3    H126210   6.002   3.911   3.632 -0.8385 -1.7072 -1.7549
 1573TIP3    H226211   5.960   3.805   3.731 -3.0557 -0.4467 -1.2719
 1574TIP3   OH226212   0.246   2.450  12.513  0.1520 -0.1577 -0.1637
 1574TIP3    H126213   0.158   2.415  12.497 -0.9086  0.5680  3.2626
 1574TIP3    H226214   0.265   2.426  12.604  2.1667  2.4408  0.2169
 1575TIP3   OH226215   4.217   4.807   6.391  0.3374  0.0397 -0.3829
 1575TIP3    H126216   4.154   4.878   6.380  0.2101 -0.2954 -2.2664
 1575TIP3    H226217   4.302   4.846   6.369  0.3827 -0.1861 -0.6183
 1576TIP3   OH226218   6.485   6.332   0.844 -0.3746 -0.6806  0.3404
 1576TIP3    H126219   6.526   6.388   0.909 -2.0865 -1.5357  2.2860
 1576TIP3    H226220   6.548   6.262   0.827  0.6103  0.2630  0.0660
 1577TIP3   OH226221   3.766   6.761  12.527 -0.2784  0.4216  0.0321
 1577TIP3    H126222   3.762   6.800  12.439 -0.8389 -0.1698 -0.2107
 1577TIP3    H226223   3.860   6.751  12.544 -0.1755  0.0318 -0.7303
 1578TIP3   OH226224   3.091   2.597  13.521 -0.1564  0.0334 -0.1101
 1578TIP3    H126225   3.064   2.508  13.500  1.3156 -0.7354  1.1019
 1578TIP3    H226226   3.026   2.627  13.586  0.0215 -0.6052  0.3716
 1579TIP3   OH226227   2.759   3.706  16.343  0.6622 -0.1019  0.1918
 1579TIP3    H126228   2.849   3.726  16.319  0.2478 -0.3126 -1.6742
 1579TIP3    H226229   2.733   3.635  16.284 -1.7972  2.2365 -1.7678
 1580TIP3   OH226230   3.631   5.127  12.223  0.1553  0.2649 -0.0982
 1580TIP3    H126231   3.650   5.038  12.195  0.3543  0.0156  0.8001
 1580TIP3    H226232   3.679   5.183  12.162  1.6389 -0.2907  0.5350
 1581TIP3   OH226233   5.425   0.112   3.153 -0.3485 -0.2849 -0.1218
 1581TIP3    H126234   5.475   0.046   3.105  0.3818 -0.8163  1.3239
 1581TIP3    H226235   5.377   0.063   3.219  1.1655  0.6702  1.8018
 1582TIP3   OH226236   1.930   3.375   2.961 -0.3902  0.4849 -0.3636
 1582TIP3    H126237   1.968   3.382   3.049  0.6538  2.4913 -0.9116
 1582TIP3    H226238   1.836   3.384   2.974 -0.3781 -0.6054  0.6557
 1583TIP3   OH226239   2.445   6.449   5.257  0.4255  0.1691 -0.3323
 1583TIP3    H126240   2.541   6.448   5.254  0.4574  1.8825 -1.0285
 1583TIP3    H226241   2.423   6.406   5.340  1.7130 -1.8178 -0.9750
 1584TIP3   OH226242   4.566   4.941  14.205 -0.0473 -0.5331  0.0659
 1584TIP3    H126243   4.476   4.959  14.176  0.2881 -0.3216 -0.8948
 1584TIP3    H226244   4.566   4.964  14.298 -1.2260 -1.4365  0.3158
 1585TIP3   OH226245   6.584   2.622   3.413  0.0443  0.6624 -0.0766
 1585TIP3    H126246   6.668   2.667   3.421  0.4263 -0.1660  0.5754
 1585TIP3    H226247   6.579   2.565   3.489  0.0626 -1.2315 -1.4338
 1586TIP3   OH226248   4.705   1.197  16.021  0.4532  0.5594  0.6517
 1586TIP3    H126249   4.738   1.196  15.931  0.5741  1.8727  0.6619
 1586TIP3    H226250   4.610   1.187  16.013  0.2247  2.6530  0.2127
 1587TIP3   OH226251   6.422   4.659   1.839  0.0002  0.0211  0.2403
 1587TIP3    H126252   6.418   4.607   1.920 -0.3484 -1.8894 -0.9484
 1587TIP3    H226253   6.347   4.717   1.845 -0.9239 -1.1712  0.6110
 1588TIP3   OH226254   0.963   5.776  12.431  0.3961  0.2078  0.2509
 1588TIP3    H126255   0.968   5.763  12.525  0.5665  1.3983  0.4322
 1588TIP3    H226256   1.029   5.718  12.394 -0.3538 -0.9979  0.7789
 1589TIP3   OH226257   4.512   2.636  13.053  0.1303 -0.4329  0.3063
 1589TIP3    H126258   4.529   2.627  13.147 -0.7298 -0.1652  0.4955
 1589TIP3    H226259   4.556   2.717  13.028 -0.4890  0.0297  0.6985
 1590TIP3   OH226260   5.480   1.969   2.336 -0.5822 -0.2241  0.2011
 1590TIP3    H126261   5.404   1.974   2.277 -0.4784 -0.9209 -0.0036
 1590TIP3    H226262   5.471   1.883   2.378 -0.7195  0.3146  1.2988
 1591TIP3   OH226263   6.593   5.251   1.362  0.3016  0.1714  0.6429
 1591TIP3    H126264   6.499   5.268   1.351  0.3750  0.8489  1.0279
 1591TIP3    H226265   6.597   5.168   1.410 -0.1193  0.5800  1.4090
 1592TIP3   OH226266   6.468   0.604  16.090 -0.0171  0.4656  0.3584
 1592TIP3    H126267   6.457   0.691  16.128 -1.0375  0.7124 -0.4596
 1592TIP3    H226268   6.538   0.615  16.026 -0.8780  0.9840 -0.5367
 1593TIP3   OH226269   2.834   2.133   2.699  0.3678 -0.1035  0.6127
 1593TIP3    H126270   2.926   2.144   2.721  0.4833 -0.6240  0.3797
 1593TIP3    H226271   2.829   2.147   2.605 -0.0349  1.4779  0.8303
 1594TIP3   OH226272   5.747   3.056   3.024  0.4928  0.0030  0.2821
 1594TIP3    H126273   5.831   3.098   3.042  1.3315 -0.9223 -1.2938
 1594TIP3    H226274   5.755   2.970   3.064 -0.2421  0.3889  1.2904
 1595TIP3   OH226275   0.209   1.200  12.790  0.0597  0.0029 -0.2276
 1595TIP3    H126276   0.242   1.111  12.779  0.2090 -0.0583  0.6240
 1595TIP3    H226277   0.216   1.239  12.703 -0.6654 -1.0247 -0.7795
 1596TIP3   OH226278   1.630   1.901  16.050 -0.0443 -0.6343 -0.2987
 1596TIP3    H126279   1.569   1.848  16.102 -0.3175  1.4180  1.6085
 1596TIP3    H226280   1.591   1.988  16.050  1.5838  0.1302 -1.3142
 1597TIP3   OH226281   4.256   3.573   2.295  0.1831 -0.3002  0.2243
 1597TIP3    H126282   4.264   3.528   2.379 -1.4637 -0.8511  0.1197
 1597TIP3    H226283   4.217   3.658   2.316  0.5014 -0.1189  0.0943
 1598TIP3   OH226284   2.657   3.538   2.274 -0.4128 -0.5812 -0.0073
 1598TIP3    H126285   2.598   3.592   2.325  0.3398 -0.7709  1.1018
 1598TIP3    H226286   2.631   3.448   2.294  0.7292 -0.6880  1.1345
 1599TIP3   OH226287   1.010   6.159   4.803  0.7361 -0.2146  0.3206
 1599TIP3    H126288   1.099   6.127   4.816  0.8476 -0.0354  0.0193
 1599TIP3    H226289   0.977   6.177   4.891  0.6343 -1.2473  0.5076
 1600TIP3   OH226290   0.139   3.135  16.966 -0.1807 -0.1626 -0.6602
 1600TIP3    H126291   0.131   3.082  17.045 -2.0934 -0.6435 -1.1364
 1600TIP3    H226292   0.155   3.224  16.999 -2.4504 -0.0693  0.3783
 1601TIP3   OH226293   3.247   5.896  14.672 -0.7284 -0.1181  0.0653
 1601TIP3    H126294   3.203   5.823  14.629  1.4939 -0.9376 -0.9914
 1601TIP3    H226295   3.336   5.895  14.635  0.0115  1.7864  1.6304
 1602TIP3   OH226296   1.961   4.660   4.626 -0.2634 -0.7234 -0.1486
 1602TIP3    H126297   1.906   4.736   4.646  0.6169  0.2041 -1.0949
 1602TIP3    H226298   1.904   4.599   4.580 -1.4967 -1.5371  2.2788
 1603TIP3   OH226299   2.268   4.285   4.589  0.4761 -0.0827  0.8356
 1603TIP3    H126300   2.206   4.221   4.553  1.6943 -1.1892  0.6393
 1603TIP3    H226301   2.244   4.368   4.547  0.6202 -0.9476 -1.0660
 1604TIP3   OH226302   6.460   0.904  11.753  0.0363  0.7278  0.2811
 1604TIP3    H126303   6.470   0.822  11.704 -0.8205  1.2900 -0.8689
 1604TIP3    H226304   6.400   0.882  11.824 -1.0351  0.5975 -0.6452
 1605TIP3   OH226305   6.419   3.742   0.097 -0.0682 -0.1901 -0.2795
 1605TIP3    H126306   6.386   3.708   0.014 -1.2309 -0.9988  0.4902
 1605TIP3    H226307   6.342   3.779   0.140  0.4703 -0.0491  0.5707
 1606TIP3   OH226308   2.675   4.617  13.092  0.4534  0.6322  0.4310
 1606TIP3    H126309   2.710   4.541  13.047 -0.5028  0.5465 -0.1812
 1606TIP3    H226310   2.622   4.582  13.163  0.6436  0.7510  0.6380
 1607TIP3   OH226311   4.979   2.706  11.784 -0.0354 -0.4136  0.1224
 1607TIP3    H126312   4.893   2.745  11.802  0.1018 -0.7490  1.6629
 1607TIP3    H226313   4.964   2.612  11.791  0.1249 -0.5658 -1.2781
 1608TIP3   OH226314   2.200   5.793  12.288  0.4134 -0.0330  0.2498
 1608TIP3    H126315   2.284   5.753  12.267  0.4427 -0.4698  1.1791
 1608TIP3    H226316   2.222   5.870  12.340  0.1722 -1.5604  2.7495
 1609TIP3   OH226317   4.032   5.023   1.110 -0.2220  0.0539 -0.3683
 1609TIP3    H126318   4.119   5.062   1.123 -0.3888  0.6943 -1.1266
 1609TIP3    H226319   4.015   4.976   1.192  0.3975  0.7671  0.1876
 1610TIP3   OH226320   3.621   0.999  11.620 -0.1814  0.1108  0.4411
 1610TIP3    H126321   3.565   1.025  11.547  1.2617  1.6024 -0.1907
 1610TIP3    H226322   3.577   1.035  11.697  0.4727  2.3810 -0.1725
 1611TIP3   OH226323   5.883   5.715   2.781  0.2006  0.2440 -0.6192
 1611TIP3    H126324   5.880   5.622   2.803 -1.5576  0.3405 -0.2856
 1611TIP3    H226325   5.838   5.721   2.697  1.2729  0.6776 -1.1800
 1612TIP3   OH226326   5.686   1.363  11.906 -0.0401 -0.3086 -0.2343
 1612TIP3    H126327   5.719   1.378  11.817 -1.0831  2.3799 -0.2640
 1612TIP3    H226328   5.658   1.449  11.935 -2.1812 -1.5858  1.7331
 1613TIP3   OH226329   0.722   2.314  12.680 -0.2800 -0.1280  0.3913
 1613TIP3    H126330   0.693   2.227  12.708  1.6613 -0.0889  2.8190
 1613TIP3    H226331   0.641   2.360  12.659 -1.3487 -2.6439 -1.6046
 1614TIP3   OH226332   3.236   0.042   2.563 -0.6127  0.0498 -0.4076
 1614TIP3    H126333   3.145   0.071   2.568 -0.0429  3.3697 -4.0924
 1614TIP3    H226334   3.250   0.023   2.470  3.0968  2.6179 -0.5903
 1615TIP3   OH226335   2.853   4.063  11.093 -0.0114 -0.1350 -0.1239
 1615TIP3    H126336   2.784   4.104  11.145  1.8159  0.2888  2.1706
 1615TIP3    H226337   2.916   4.134  11.079  1.4935 -1.2345  0.7667
 1616TIP3   OH226338   6.246   3.241   2.750  0.0446  0.3919 -0.4695
 1616TIP3    H126339   6.307   3.276   2.684 -1.1205  2.7642 -0.3999
 1616TIP3    H226340   6.160   3.260   2.714 -0.9378 -4.8391 -1.6124
 1617TIP3   OH226341   6.196   1.718  17.019  0.0675 -0.0716 -0.0354
 1617TIP3    H126342   6.158   1.633  17.042  3.0719 -1.5267  0.0369
 1617TIP3    H226343   6.228   1.753  17.102 -0.4622  0.8115 -0.1872
 1618TIP3   OH226344   6.317   3.500   4.295  0.2105  0.2327 -0.0518
 1618TIP3    H126345   6.382   3.462   4.355 -0.9359 -0.0789  1.0430
 1618TIP3    H226346   6.321   3.594   4.311 -0.0679  0.1535  0.5097
 1619TIP3   OH226347   5.917   2.797  13.732  0.2669  0.1454 -0.2219
 1619TIP3    H126348   5.859   2.845  13.674 -0.8468 -1.9192 -0.9470
 1619TIP3    H226349   5.868   2.791  13.815 -0.9078 -2.0088 -0.9773
 1620TIP3   OH226350   3.269   3.322  13.631 -0.1609 -0.5176  0.2818
 1620TIP3    H126351   3.227   3.284  13.708  0.4904 -0.8665  0.4757
 1620TIP3    H226352   3.358   3.342  13.661 -0.7328  2.0713  0.4865
 1621TIP3   OH226353   6.820   3.621   2.733  0.3761  0.3354 -0.1407
 1621TIP3    H126354   6.766   3.687   2.689 -0.7196 -0.0853  0.5297
 1621TIP3    H226355   6.759   3.572   2.788  1.1665 -1.2365 -0.5923
 1622TIP3   OH226356   6.420   2.196  16.655 -0.2413  0.3223 -0.2935
 1622TIP3    H126357   6.371   2.116  16.635  0.1790 -0.3908  1.3647
 1622TIP3    H226358   6.498   2.190  16.600 -0.4239 -0.1961 -0.5050
 1623TIP3   OH226359   2.444   6.757   3.540 -0.4063 -0.2885 -0.3315
 1623TIP3    H126360   2.539   6.745   3.543 -0.3844 -0.9842 -2.2470
 1623TIP3    H226361   2.430   6.849   3.563  0.7123 -0.2164  0.1003
 1624TIP3   OH226362   1.613   3.955  15.466 -0.0387 -0.5900 -0.7664
 1624TIP3    H126363   1.704   3.951  15.436 -0.0988 -0.4258 -0.9766
 1624TIP3    H226364   1.617   3.934  15.559  0.4047  0.9130 -0.4118
 1625TIP3   OH226365   1.885   5.552   5.293 -0.3068 -0.1533  0.1210
 1625TIP3    H126366   1.946   5.499   5.242  0.5880 -0.0034  1.0081
 1625TIP3    H226367   1.888   5.514   5.381  0.5325  1.4684  0.8467
 1626TIP3   OH226368   5.082   3.635  11.558 -0.1854 -0.2386  0.0725
 1626TIP3    H126369   5.017   3.630  11.488 -1.5767 -3.6199  1.4164
 1626TIP3    H226370   5.156   3.584  11.526 -0.6627 -1.4480  0.8317
 1627TIP3   OH226371   6.288   2.590   1.452 -0.0812  0.0348 -0.3142
 1627TIP3    H126372   6.257   2.518   1.397  0.6903 -0.7120  0.1965
 1627TIP3    H226373   6.254   2.569   1.539  2.0999 -1.0170  0.3431
 1628TIP3   OH226374   3.329   4.310  11.334 -0.5736  0.1913  0.3295
 1628TIP3    H126375   3.413   4.354  11.349 -1.1810  2.6659 -2.5481
 1628TIP3    H226376   3.352   4.237  11.276 -0.3577  1.0493 -0.7160
 1629TIP3   OH226377   5.178   3.146  16.743 -0.3426 -0.0316  0.0761
 1629TIP3    H126378   5.189   3.222  16.685 -0.5954  0.4779  0.6847
 1629TIP3    H226379   5.102   3.168  16.798 -1.3461 -1.3575 -0.7179
 1630TIP3   OH226380   2.952   1.049  15.759  0.2868  0.7963  0.0066
 1630TIP3    H126381   2.873   1.101  15.768  0.1714  0.3362  2.3759
 1630TIP3    H226382   2.923   0.967  15.718  0.2668  2.0063 -2.6124
 1631TIP3   OH226383   3.190   2.701   0.816 -0.2702 -0.5380 -0.1351
 1631TIP3    H126384   3.178   2.684   0.723  0.3343 -2.8711  0.1542
 1631TIP3    H226385   3.116   2.756   0.840 -0.4286  0.1231 -1.9799
 1632TIP3   OH226386   5.821   1.011  12.460 -0.1475 -0.1028  0.2216
 1632TIP3    H126387   5.896   0.989  12.404  0.4926  0.2508  0.9221
 1632TIP3    H226388   5.809   1.105  12.449  0.4955  0.1166  1.2766
 1633TIP3   OH226389   0.323   4.075   0.673  0.4825  0.4408  0.1331
 1633TIP3    H126390   0.263   4.150   0.671  0.2315  0.3262  1.8933
 1633TIP3    H226391   0.286   4.017   0.740  1.3536 -0.6844 -0.3308
 1634TIP3   OH226392   4.402   6.534   5.856 -0.1167  0.1887 -0.0432
 1634TIP3    H126393   4.394   6.439   5.869  0.0940  0.0760 -0.7147
 1634TIP3    H226394   4.336   6.555   5.790  0.1414  0.4350 -0.2234
 1635TIP3   OH226395   1.843   2.022   3.268  0.0070 -0.3688  0.1713
 1635TIP3    H126396   1.793   2.088   3.220  1.9389  0.5226 -0.7122
 1635TIP3    H226397   1.842   1.945   3.211  3.2576  1.0318 -2.1007
 1636TIP3   OH226398   1.071   0.575  11.572  0.3555 -0.6357  0.3735
 1636TIP3    H126399   1.065   0.505  11.508  0.0481 -0.4889  0.2407
 1636TIP3    H226400   1.156   0.615  11.556  0.0717 -0.2711 -0.2886
 1637TIP3   OH226401   6.593   4.745   3.493  0.2751 -0.7327  0.2458
 1637TIP3    H126402   6.576   4.834   3.524  3.3421  0.0118  0.1659
 1637TIP3    H226403   6.565   4.746   3.401 -0.3711 -0.0714  0.4439
 1638TIP3   OH226404   4.098   6.035   1.557 -0.2606 -0.2875  0.2536
 1638TIP3    H126405   4.109   5.975   1.483 -0.2598  0.1856 -0.1355
 1638TIP3    H226406   4.024   6.091   1.532  1.1130  1.3369 -0.4008
 1639TIP3   OH226407   3.420   5.265   1.322 -0.0234 -0.4018  0.3903
 1639TIP3    H126408   3.427   5.284   1.228 -1.4212 -2.2277 -0.1564
 1639TIP3    H226409   3.355   5.327   1.354 -1.4411 -1.4053 -0.4377
 1640TIP3   OH226410   1.177   5.583   2.009 -0.4281 -0.4281  0.2157
 1640TIP3    H126411   1.105   5.520   2.016 -0.1685 -0.6082  1.4100
 1640TIP3    H226412   1.240   5.541   1.949 -0.8947 -0.6685 -0.1141
 1641TIP3   OH226413   3.176   0.566  10.940  0.0628  0.9970  0.3590
 1641TIP3    H126414   3.143   0.494  10.885  0.1364  1.2938 -0.0828
 1641TIP3    H226415   3.145   0.645  10.895  0.0016  1.2423  0.8297
 1642TIP3   OH226416   3.780   2.836  13.207  0.3359 -0.4119  0.4226
 1642TIP3    H126417   3.771   2.932  13.203 -2.1073 -0.5018  1.5610
 1642TIP3    H226418   3.795   2.810  13.116 -0.1684  0.9832 -0.0991
 1643TIP3   OH226419   1.338   1.286  15.398  0.1202 -0.2103  0.6729
 1643TIP3    H126420   1.402   1.286  15.327 -1.2936  0.7335 -0.6720
 1643TIP3    H226421   1.317   1.378  15.411 -2.4005 -0.5683 -0.3244
 1644TIP3   OH226422   3.285   1.989   4.274  0.7902 -0.0218  0.2828
 1644TIP3    H126423   3.242   1.928   4.215 -0.2352  1.9182 -1.1035
 1644TIP3    H226424   3.363   1.943   4.305 -0.3256 -2.2605 -0.0676
 1645TIP3   OH226425   6.635   6.411  13.877 -0.1166  0.3765 -0.1709
 1645TIP3    H126426   6.570   6.482  13.883  1.5334  1.9133  0.4013
 1645TIP3    H226427   6.635   6.387  13.784 -0.8793  0.9653 -0.3376
 1646TIP3   OH226428   6.221   1.353  12.261 -0.5062  0.1704  1.0351
 1646TIP3    H126429   6.302   1.314  12.226 -1.0132 -0.9292  1.0302
 1646TIP3    H226430   6.247   1.441  12.288  0.9261 -0.4646  1.8868
 1647TIP3   OH226431   5.341   0.593   4.154 -0.0921  0.7309 -0.6864
 1647TIP3    H126432   5.364   0.672   4.105 -0.2466  1.0244 -0.2942
 1647TIP3    H226433   5.409   0.529   4.130  1.1379  1.5624  0.4225
 1648TIP3   OH226434   2.972   5.569   2.659  0.3034  0.3630 -0.0522
 1648TIP3    H126435   3.000   5.636   2.723  1.1386 -0.0052 -0.0200
 1648TIP3    H226436   3.017   5.490   2.687 -0.1754 -0.0626 -0.4798
 1649TIP3   OH226437   5.741   6.382  12.268  0.4790 -0.2740  0.0755
 1649TIP3    H126438   5.691   6.311  12.227 -0.9979 -0.2191  1.6499
 1649TIP3    H226439   5.807   6.338  12.320 -0.0451 -0.4830  0.5721
 1650TIP3   OH226440   0.305   5.126   2.485 -0.2231 -0.1535  0.2045
 1650TIP3    H126441   0.298   5.200   2.546  0.4979  0.8141 -0.8530
 1650TIP3    H226442   0.305   5.165   2.398  0.6220 -1.3584 -0.3754
 1651TIP3   OH226443   5.852   1.188   4.736 -0.6147  0.1994  0.1536
 1651TIP3    H126444   5.789   1.160   4.802  1.2744 -0.2172  1.8610
 1651TIP3    H226445   5.911   1.114   4.725  0.9988  1.3962  0.3843
 1652TIP3   OH226446   0.481   1.927   0.896 -0.2055  0.6657  0.2453
 1652TIP3    H126447   0.506   1.886   0.813  0.8639  1.6224  0.0778
 1652TIP3    H226448   0.550   1.902   0.957 -2.3809 -2.4858  1.7542
 1653TIP3   OH226449   6.792   0.360   6.072  0.1382  0.3175  0.2836
 1653TIP3    H126450   6.869   0.406   6.040 -0.0911 -0.4648 -1.4561
 1653TIP3    H226451   6.825   0.276   6.104 -0.2030 -1.0162 -2.6259
 1654TIP3   OH226452   2.228   2.905   0.024  0.5634 -0.2465  0.0432
 1654TIP3    H126453   2.186   2.822   0.044  0.5066 -1.0493 -3.0081
 1654TIP3    H226454   2.159   2.971   0.039  0.4305 -0.7487  1.8758
 1655TIP3   OH226455   3.119   4.613  15.048 -0.3019  0.2940  0.1041
 1655TIP3    H126456   3.087   4.524  15.061 -1.8053  0.9069  0.9420
 1655TIP3    H226457   3.202   4.616  15.096  0.1498 -0.8430 -0.5706
 1656TIP3   OH226458   0.914   0.265   4.314  0.8203 -0.2090 -0.8033
 1656TIP3    H126459   0.898   0.339   4.372  0.2173 -0.1082 -1.0958
 1656TIP3    H226460   0.866   0.286   4.234 -0.3466 -1.4511 -0.4668
 1657TIP3   OH226461   4.312   2.580  14.730  0.2587  0.6615 -0.0642
 1657TIP3    H126462   4.305   2.608  14.821  1.4029 -0.4242  0.3931
 1657TIP3    H226463   4.390   2.625  14.697  0.4061  0.3080 -0.2027
 1658TIP3   OH226464   4.801   6.076   1.691  0.5883  0.7897  0.5275
 1658TIP3    H126465   4.742   6.106   1.622  1.2823  2.2472  0.5294
 1658TIP3    H226466   4.776   5.984   1.706 -0.8506  1.0164 -0.2998
 1659TIP3   OH226467   5.765   3.953  16.331  0.0825  0.1393  0.1289
 1659TIP3    H126468   5.729   3.885  16.388  0.1256 -0.6274 -0.7482
 1659TIP3    H226469   5.860   3.945  16.341  0.0949 -0.1517 -0.2422
 1660TIP3   OH226470   5.036   3.007   0.167 -0.4403 -0.1611 -0.1503
 1660TIP3    H126471   5.066   2.923   0.132 -0.5736 -0.1591 -0.2694
 1660TIP3    H226472   5.076   3.073   0.109 -0.7600 -0.1621 -0.3765
 1661TIP3   OH226473   4.656   6.193  17.115 -0.1784  0.1666  0.0562
 1661TIP3    H126474   4.671   6.189  17.209  0.2090 -1.4354 -0.0369
 1661TIP3    H226475   4.735   6.154  17.077 -0.6884  0.0143 -0.8849
 1662TIP3   OH226476   1.178   0.945  15.723 -0.4943  0.5238  0.2134
 1662TIP3    H126477   1.138   0.958  15.637 -0.2729  0.4024  0.0930
 1662TIP3    H226478   1.272   0.938  15.705 -0.4800  0.1775  0.4328
 1663TIP3   OH226479   1.737   0.932   3.249  0.4449  0.9035 -0.5175
 1663TIP3    H126480   1.733   0.858   3.309 -0.9247 -0.6483 -2.3899
 1663TIP3    H226481   1.796   0.994   3.291  2.1953 -1.5223  0.8371
 1664TIP3   OH226482   1.746   1.678   0.340 -0.4659 -0.2875  0.1420
 1664TIP3    H126483   1.797   1.744   0.291 -1.8656  1.2625  0.6903
 1664TIP3    H226484   1.810   1.611   0.362  0.8079  0.3485 -1.3694
 1665TIP3   OH226485   3.626   0.734  16.279 -0.1181 -0.3072  0.2797
 1665TIP3    H126486   3.720   0.748  16.263 -0.3193  0.7890 -0.0670
 1665TIP3    H226487   3.613   0.765  16.369 -0.3675  0.8222 -0.1218
 1666TIP3   OH226488   3.290   5.375  15.008 -0.3972 -0.5220  0.2550
 1666TIP3    H126489   3.342   5.335  14.939 -0.9953 -2.6104  0.9458
 1666TIP3    H226490   3.210   5.403  14.965 -0.0524 -0.2111 -0.1989
 1667TIP3   OH226491   0.301   3.060  14.281 -0.2419  0.3007 -0.6259
 1667TIP3    H126492   0.357   3.118  14.230  1.3792  0.9802  1.7318
 1667TIP3    H226493   0.271   3.115  14.354  1.0069 -1.6544  1.4626
 1668TIP3   OH226494   1.371   0.134   5.657 -0.0639  0.2609 -0.0265
 1668TIP3    H126495   1.280   0.104   5.662  0.0258  0.0381  0.2394
 1668TIP3    H226496   1.366   0.215   5.606 -0.2048 -0.5945 -1.4361
 1669TIP3   OH226497   0.412   6.156  13.521 -0.2452  0.5400  0.5036
 1669TIP3    H126498   0.433   6.063  13.512  0.0330  0.6969 -0.5393
 1669TIP3    H226499   0.447   6.197  13.442 -1.6844  1.2989  0.2220
 1670TIP3   OH226500   2.258   3.010   1.821 -0.8038  0.7237 -0.5973
 1670TIP3    H126501   2.292   3.041   1.905 -1.9123 -0.4854  0.3351
 1670TIP3    H226502   2.329   3.027   1.758  0.3611  0.9073  0.7311
 1671TIP3   OH226503   3.540   4.051  17.297 -0.3454  0.1211  0.0163
 1671TIP3    H126504   3.575   3.989  17.361 -0.6529  0.2919  0.3577
 1671TIP3    H226505   3.609   4.059  17.231  0.0292  0.0302  0.3880
 1672TIP3   OH226506   2.608   2.051   5.040 -0.3237  0.0026 -0.0420
 1672TIP3    H126507   2.686   2.076   5.089  0.7757 -1.7963 -0.7729
 1672TIP3    H226508   2.544   2.026   5.107  0.7645 -1.3310  0.5549
 1673TIP3   OH226509   4.554   1.502  16.840 -0.2889 -0.0543 -0.5606
 1673TIP3    H126510   4.566   1.547  16.757  0.2817  0.5934 -0.1450
 1673TIP3    H226511   4.627   1.533  16.894 -0.0478 -1.2583 -0.1622
 1674TIP3   OH226512   6.198   4.793  10.724  0.0130  0.6214 -0.1354
 1674TIP3    H126513   6.211   4.703  10.694  0.7410  0.7508 -0.2237
 1674TIP3    H226514   6.235   4.847  10.654  0.8834  0.9480  0.5601
 1675TIP3   OH226515   1.065   6.252   5.408  0.0460 -0.4847 -0.6565
 1675TIP3    H126516   1.014   6.174   5.428  0.4503 -0.4739  0.5078
 1675TIP3    H226517   1.142   6.219   5.361  1.0890 -1.0407  1.3267
 1676TIP3   OH226518   2.868   5.740   1.863 -1.0286  0.5727 -0.0301
 1676TIP3    H126519   2.825   5.805   1.918  2.0179  0.3302  2.9855
 1676TIP3    H226520   2.955   5.777   1.845 -0.0192 -1.6660 -0.1369
 1677TIP3   OH226521   4.718   5.406  17.141  0.4370  0.4396 -0.3950
 1677TIP3    H126522   4.796   5.461  17.144  0.0722  0.9231  0.2960
 1677TIP3    H226523   4.748   5.320  17.170  0.9784  0.2901 -1.3440
 1678TIP3   OH226524   2.637   4.578   2.932 -0.1777 -0.4318 -0.2630
 1678TIP3    H126525   2.617   4.608   2.844 -1.1605 -1.2420 -0.3397
 1678TIP3    H226526   2.690   4.499   2.919 -1.5174 -1.3726 -0.1828
 1679TIP3   OH226527   3.153   6.494  12.616 -0.5063 -0.1633  0.1076
 1679TIP3    H126528   3.100   6.556  12.565  0.6521  0.3916 -0.4710
 1679TIP3    H226529   3.182   6.430  12.551  1.0607  0.6015 -0.0125
 1680TIP3   OH226530   0.841   3.320  16.751 -0.2019 -0.3741 -0.8531
 1680TIP3    H126531   0.778   3.251  16.769 -1.8309  1.1832 -0.2039
 1680TIP3    H226532   0.911   3.307  16.815 -1.3508 -0.4097  0.4380
 1681TIP3   OH226533   1.273   6.335   4.065  0.0435 -0.1576 -0.0813
 1681TIP3    H126534   1.203   6.269   4.064 -1.3556  1.2345  0.8380
 1681TIP3    H226535   1.345   6.294   4.017 -1.4279 -1.6293 -1.1722
 1682TIP3   OH226536   5.142   4.688   1.487  0.1517 -0.2561  0.0130
 1682TIP3    H126537   5.095   4.636   1.552  0.3809  1.3956  1.5670
 1682TIP3    H226538   5.086   4.686   1.409 -0.4828 -1.6650  0.4820
 1683TIP3   OH226539   2.252   1.069  15.357 -0.1118  0.7967  0.4892
 1683TIP3    H126540   2.226   0.996  15.413  0.6074  2.2938  2.9007
 1683TIP3    H226541   2.335   1.042  15.319 -1.5375 -1.0686 -1.6360
 1684TIP3   OH226542   1.578   2.699   4.505 -0.0812 -0.1988  0.0439
 1684TIP3    H126543   1.508   2.686   4.442  0.5153  3.0781 -1.4802
 1684TIP3    H226544   1.536   2.692   4.591 -2.6879  3.0394 -0.8087
 1685TIP3   OH226545   2.163   4.457   0.311 -0.2195 -0.5470 -0.1825
 1685TIP3    H126546   2.245   4.439   0.357 -0.3353 -0.8811 -0.1079
 1685TIP3    H226547   2.190   4.506   0.233  0.1337 -1.4081 -0.6105
 1686TIP3   OH226548   2.009   5.441   3.487  0.2961 -0.3203  0.2429
 1686TIP3    H126549   1.925   5.426   3.530 -0.9365 -4.0648 -2.8930
 1686TIP3    H226550   2.011   5.535   3.471 -2.3713  0.1738  2.0749
 1687TIP3   OH226551   3.928   1.658   2.248  0.5375  0.0405 -0.1910
 1687TIP3    H126552   3.849   1.670   2.301  0.7962  1.7050 -0.1404
 1687TIP3    H226553   3.919   1.721   2.177  2.1059  0.7011  0.1577
 1688TIP3   OH226554   6.110   1.701  14.758 -0.3033 -0.0431 -0.6997
 1688TIP3    H126555   6.140   1.612  14.741  2.2262  0.1603  1.8903
 1688TIP3    H226556   6.188   1.755  14.751 -1.5491  1.8106 -1.0006
 1689TIP3   OH226557   6.670   1.883   6.251  0.9015  0.2563  0.7248
 1689TIP3    H126558   6.729   1.926   6.312  0.7185 -1.1674  1.9572
 1689TIP3    H226559   6.722   1.811   6.215  0.4782  0.0806  0.4645
 1690TIP3   OH226560   0.037   4.932  14.854  0.5234 -0.5307  0.5935
 1690TIP3    H126561  -0.005   4.928  14.940  1.6270 -0.8500  1.1385
 1690TIP3    H226562   0.050   5.026  14.838  1.2966 -0.5015  1.2936
 1691TIP3   OH226563   4.017   1.963  16.464  0.5945 -0.2968  0.0246
 1691TIP3    H126564   4.084   1.909  16.507  0.4492  0.2358  0.9619
 1691TIP3    H226565   3.938   1.910  16.467  0.1829  0.3264  1.9172
 1692TIP3   OH226566   0.085   0.895   1.482 -0.7296 -0.6081 -0.3219
 1692TIP3    H126567   0.032   0.960   1.436  0.7411  2.8992  2.5269
 1692TIP3    H226568   0.135   0.852   1.412 -3.0195 -0.0192 -2.4821
 1693TIP3   OH226569   1.422   1.115   3.872  0.4234 -0.4476 -0.2977
 1693TIP3    H126570   1.364   1.142   3.944  0.3024 -2.0962  0.2556
 1693TIP3    H226571   1.378   1.145   3.793 -0.5150 -0.4847  0.1983
 1694TIP3   OH226572   2.138   4.286  16.487  0.6261 -0.0531 -0.0830
 1694TIP3    H126573   2.107   4.299  16.397 -0.4288 -0.1863  0.2479
 1694TIP3    H226574   2.060   4.295  16.541  1.3950  0.9338  0.9118
 1695TIP3   OH226575   1.174   1.952   4.684 -0.6034 -0.3727 -0.0208
 1695TIP3    H126576   1.132   1.917   4.762 -1.0413 -1.1813 -0.5993
 1695TIP3    H226577   1.200   1.874   4.634 -0.9486  0.1246 -0.9989
 1696TIP3   OH226578   2.900   6.298  14.010  0.4356  0.1876 -0.8970
 1696TIP3    H126579   2.883   6.247  14.090 -0.2946 -0.5908 -1.5360
 1696TIP3    H226580   2.819   6.293  13.961  0.6485  1.2605 -1.3826
 1697TIP3   OH226581   3.164   6.218  13.554 -0.2535  0.7222  0.2084
 1697TIP3    H126582   3.213   6.285  13.601  2.0761 -1.6665  1.4773
 1697TIP3    H226583   3.088   6.200  13.610 -0.7484  2.0375 -0.0136
 1698TIP3   OH226584   2.510   2.506   6.056 -0.4993 -0.3927  0.6504
 1698TIP3    H126585   2.448   2.524   5.986 -1.4461 -0.2468  1.4945
 1698TIP3    H226586   2.590   2.551   6.030 -0.8933 -0.1896 -0.2343
 1699TIP3   OH226587   0.184   1.741  12.278  0.0946  0.1643 -0.8340
 1699TIP3    H126588   0.238   1.669  12.310 -0.5169  0.0519 -0.0398
 1699TIP3    H226589   0.164   1.717  12.188  0.0699 -0.5566 -0.6435
 1700TIP3   OH226590   1.994   4.016  12.576 -0.8965 -0.4281 -0.2864
 1700TIP3    H126591   2.026   4.028  12.665 -1.4302  0.2838 -0.1821
 1700TIP3    H226592   2.040   3.938  12.544  0.2031  0.0123  0.1846
 1701TIP3   OH226593   3.581   0.752   2.480  0.1722 -0.3857 -0.3273
 1701TIP3    H126594   3.576   0.668   2.434 -1.0404 -1.4876  1.6786
 1701TIP3    H226595   3.674   0.772   2.484  0.4187 -1.1536 -1.6402
 1702TIP3   OH226596   1.476   3.646   3.488  0.1677  0.0087  0.1884
 1702TIP3    H126597   1.429   3.699   3.552  0.2406 -1.5098  1.5633
 1702TIP3    H226598   1.568   3.672   3.498 -0.0973  1.6931 -1.2480
 1703TIP3   OH226599   0.151   0.218  14.319 -0.0806 -0.5920 -0.2878
 1703TIP3    H126600   0.218   0.265  14.367 -1.2764 -0.4833  1.3906
 1703TIP3    H226601   0.185   0.210  14.230  1.1614  1.3534 -0.0343
 1704TIP3   OH226602   2.361   5.582   2.234 -0.1444 -0.3701 -0.4443
 1704TIP3    H126603   2.281   5.535   2.209  0.1285 -0.8015 -0.5188
 1704TIP3    H226604   2.330   5.666   2.268 -0.8324 -1.5313  2.0285
 1705TIP3   OH226605   1.671   0.793   5.887 -0.2736  0.1973 -0.1463
 1705TIP3    H126606   1.750   0.841   5.910  0.4643 -0.3879 -1.3234
 1705TIP3    H226607   1.690   0.702   5.911 -0.6738  0.0820 -0.2452
 1706TIP3   OH226608   0.498   3.585  15.905  0.3514 -0.3274  0.0635
 1706TIP3    H126609   0.480   3.674  15.934 -0.2364 -0.7109  0.8826
 1706TIP3    H226610   0.511   3.535  15.985  2.5822 -0.6157 -0.4039
 1707TIP3   OH226611   3.585   2.779  11.696 -0.6172  0.2493  0.0203
 1707TIP3    H126612   3.508   2.803  11.748 -1.1596 -1.3795 -0.0005
 1707TIP3    H226613   3.600   2.687  11.715  1.4260  0.5469  0.1081
 1708TIP3   OH226614   3.511   3.582  14.028 -0.2974  0.2184 -0.7409
 1708TIP3    H126615   3.507   3.595  13.933 -0.8899  0.0296 -0.7457
 1708TIP3    H226616   3.420   3.570  14.054 -0.0924 -0.2285 -0.2210
 1709TIP3   OH226617   4.850   6.507   4.028 -0.3077 -0.4568 -0.4791
 1709TIP3    H126618   4.855   6.565   4.104  0.6848  0.4636 -1.2027
 1709TIP3    H226619   4.938   6.511   3.990  0.6873 -4.4751  0.8643
 1710TIP3   OH226620   6.433   2.096  16.154  0.0049 -0.5551  0.0643
 1710TIP3    H126621   6.461   2.174  16.201  0.1649 -0.3726 -0.3273
 1710TIP3    H226622   6.479   2.101  16.070  0.7958 -1.5873  0.4133
 1711TIP3   OH226623   0.337   6.390  13.624 -0.2338  0.2027 -0.5242
 1711TIP3    H126624   0.351   6.309  13.575  0.0058 -1.1629  1.6646
 1711TIP3    H226625   0.295   6.363  13.705  0.9671  2.1006  0.8386
 1712TIP3   OH226626   3.225   0.330  12.344  0.7939  0.3748  0.0074
 1712TIP3    H126627   3.308   0.365  12.376  0.5297  0.5285  0.5337
 1712TIP3    H226628   3.164   0.404  12.352  0.4386  0.0493  0.2895
 1713TIP3   OH226629   2.991   4.001  12.042 -0.3590  0.1897  0.0269
 1713TIP3    H126630   3.033   3.937  12.100  0.2506  1.0162  0.5255
 1713TIP3    H226631   2.910   4.025  12.087 -0.0244  0.6169  0.4216
 1714TIP3   OH226632   2.055   2.968  15.148 -0.4255 -0.0039 -0.2942
 1714TIP3    H126633   2.098   2.946  15.066 -0.5571 -0.4091 -0.2579
 1714TIP3    H226634   2.122   2.952  15.215  0.2516  1.9822 -0.4445
 1715TIP3   OH226635   2.023   1.474  10.386 -0.2924  0.1421  0.0465
 1715TIP3    H126636   1.951   1.435  10.336 -1.4079  1.9723  0.1271
 1715TIP3    H226637   2.049   1.550  10.334 -0.1806  0.9852  1.3207
 1716TIP3   OH226638   6.542   3.677   5.482  0.2471  0.6103  0.2371
 1716TIP3    H126639   6.547   3.764   5.442  1.4727  0.6483  0.4147
 1716TIP3    H226640   6.585   3.688   5.567 -0.1733 -0.0215  0.5312
 1717TIP3   OH226641   1.646   3.062   0.579 -0.0640 -0.4051  0.4963
 1717TIP3    H126642   1.682   3.089   0.664  0.6678 -0.3852  0.1901
 1717TIP3    H226643   1.556   3.093   0.580  0.3556  0.8704  0.6918
 1718TIP3   OH226644   5.950   2.093   4.380 -0.1185  0.1283 -0.3681
 1718TIP3    H126645   6.007   2.031   4.334 -0.1609 -0.2686  0.1115
 1718TIP3    H226646   5.862   2.057   4.368 -0.3428  1.0242 -1.5647
 1719TIP3   OH226647   0.108   0.653   3.756 -0.5713 -0.4485 -0.2136
 1719TIP3    H126648   0.158   0.690   3.829 -1.1266 -0.6907  0.3009
 1719TIP3    H226649   0.118   0.716   3.685  1.4180 -1.0386 -0.5098
 1720TIP3   OH226650   3.731   5.292  12.823  0.1831  0.2315  0.2936
 1720TIP3    H126651   3.637   5.297  12.844 -0.2382  0.0397 -1.3546
 1720TIP3    H226652   3.765   5.378  12.848 -0.4435  0.3248  0.8626
 1721TIP3   OH226653   0.939   3.387   0.171 -0.5026 -0.1453  0.0024
 1721TIP3    H126654   0.859   3.353   0.132 -0.7271 -0.8424  1.0307
 1721TIP3    H226655   0.962   3.322   0.238 -0.0018  0.8881  0.8509
 1722TIP3   OH226656   0.403   2.374  16.206  0.3858  0.2004  0.2316
 1722TIP3    H126657   0.474   2.348  16.265 -0.3908 -0.0539  1.0651
 1722TIP3    H226658   0.402   2.306  16.139  0.7386  0.0500  0.3757
 1723TIP3   OH226659   1.264   6.118   5.712 -0.1804 -0.3872  0.0780
 1723TIP3    H126660   1.269   6.096   5.806 -0.2563 -0.4663  0.0647
 1723TIP3    H226661   1.223   6.204   5.710  0.6702  0.0281  0.1591
 1724TIP3   OH226662   1.097   0.661   4.966  0.1526  0.4195  0.1964
 1724TIP3    H126663   1.042   0.653   4.888  0.6142  1.6630 -0.2966
 1724TIP3    H226664   1.036   0.678   5.037 -0.4269 -2.3769  0.4602
 1725TIP3   OH226665   4.182   4.213   4.735 -0.0794  0.0699 -0.8858
 1725TIP3    H126666   4.202   4.120   4.726 -1.1437 -0.4169  1.3059
 1725TIP3    H226667   4.096   4.223   4.695 -0.0218  0.0944 -1.0046
 1726TIP3   OH226668   0.476   0.267  14.032  0.3650  0.1349 -0.4550
 1726TIP3    H126669   0.397   0.217  14.052 -0.0504  0.8720 -0.2278
 1726TIP3    H226670   0.479   0.335  14.100  2.5062 -1.3201  1.0439
 1727TIP3   OH226671   2.282   4.818   0.721  0.5532 -0.3624 -0.1339
 1727TIP3    H126672   2.284   4.865   0.638  0.8557  0.5986  0.3938
 1727TIP3    H226673   2.245   4.881   0.783 -1.7159 -1.7869  0.0497
 1728TIP3   OH226674   2.394   5.163   1.330  0.1919  0.1523 -0.2292
 1728TIP3    H126675   2.483   5.197   1.344 -0.1729  2.3617 -2.4945
 1728TIP3    H226676   2.405   5.093   1.266  0.4867 -1.1897  1.2317
 1729TIP3   OH226677   4.877   4.344  10.692  0.4735 -0.6513  0.1199
 1729TIP3    H126678   4.966   4.308  10.689  0.4175 -0.8285  0.4601
 1729TIP3    H226679   4.883   4.427  10.645  0.9941 -0.3042  0.7704
 1730TIP3   OH226680   0.724   4.419   0.298  0.4802 -0.0578 -0.3184
 1730TIP3    H126681   0.806   4.405   0.345 -0.2222 -2.8404  0.3017
 1730TIP3    H226682   0.748   4.411   0.205  1.1211  0.7173 -0.2340
 1731TIP3   OH226683   3.694   2.033   5.441 -0.0873 -0.0887  0.1992
 1731TIP3    H126684   3.732   1.946   5.451  1.2805  0.4293 -0.2871
 1731TIP3    H226685   3.645   2.027   5.359  1.0454 -0.0644 -0.5033
 1732TIP3   OH226686   3.020   1.338  16.657 -0.2891  0.3080  0.2755
 1732TIP3    H126687   3.037   1.279  16.730  2.2936 -0.9322 -1.1702
 1732TIP3    H226688   2.969   1.286  16.595  0.4257  0.1747 -0.2161
 1733TIP3   OH226689   5.146   6.642  16.674  0.1724 -0.2556  0.1977
 1733TIP3    H126690   5.164   6.717  16.731 -0.1065 -0.6908  0.8825
 1733TIP3    H226691   5.101   6.679  16.598  2.9815  0.7109 -1.0878
 1734TIP3   OH226692   1.957   5.264  11.510 -0.3309  0.1054 -0.6179
 1734TIP3    H126693   2.037   5.300  11.471 -0.6757  1.1451 -0.3987
 1734TIP3    H226694   1.981   5.175  11.535  0.9347  0.5872 -0.0375
 1735TIP3   OH226695   0.620   1.193   3.316  0.2185  1.0463 -0.7427
 1735TIP3    H126696   0.568   1.237   3.248 -0.9002  0.2019 -0.4577
 1735TIP3    H226697   0.556   1.162   3.379  0.9467 -1.0727 -0.9677
 1736TIP3   OH226698   0.765   2.179   6.467 -0.1648 -0.2147  0.3527
 1736TIP3    H126699   0.822   2.111   6.504 -1.4386 -1.0140  0.8996
 1736TIP3    H226700   0.720   2.136   6.394  0.5381  0.6692 -0.6509
 1737TIP3   OH226701   0.621   5.252  16.785  0.6654  0.0144 -0.6590
 1737TIP3    H126702   0.601   5.174  16.733 -1.2089 -0.6542  0.9348
 1737TIP3    H226703   0.658   5.218  16.866 -0.2730  0.7502  0.1055
 1738TIP3   OH226704   3.210   6.078   4.290 -0.0623 -0.1472 -0.2506
 1738TIP3    H126705   3.294   6.118   4.268 -0.0292  0.1647  0.4189
 1738TIP3    H226706   3.229   6.020   4.363 -0.1603 -1.2255 -1.0463
 1739TIP3   OH226707   5.298   1.170  14.614  0.7450 -0.3777  0.6506
 1739TIP3    H126708   5.239   1.145  14.542  2.4215  1.7408 -1.6352
 1739TIP3    H226709   5.327   1.087  14.651 -0.0337 -1.5981 -1.2867
 1740TIP3   OH226710   1.356   5.082   5.715  0.1031  0.3620 -0.2187
 1740TIP3    H126711   1.336   5.139   5.641  2.2488  0.2584 -0.9527
 1740TIP3    H226712   1.282   5.021   5.719 -0.0833  0.3811 -2.2800
 1741TIP3   OH226713   0.794   2.001  15.708 -0.3077  0.7480 -0.3419
 1741TIP3    H126714   0.865   2.059  15.680  0.7642 -0.4121 -0.1417
 1741TIP3    H226715   0.772   1.950  15.631 -1.3354  1.4902 -0.5516
 1742TIP3   OH226716   6.242   0.705  17.159 -0.3020  0.2785 -0.3320
 1742TIP3    H126717   6.293   0.746  17.229  0.0787  0.2397 -0.5895
 1742TIP3    H226718   6.198   0.778  17.115  0.5429  0.4349 -0.9265
 1743TIP3   OH226719   0.772   0.198  11.185  0.2337 -0.6572  0.2370
 1743TIP3    H126720   0.716   0.238  11.252  0.4932  0.6930 -0.3273
 1743TIP3    H226721   0.713   0.139  11.137 -0.0915 -1.1800  1.2558
 1744TIP3   OH226722   5.517   2.240   0.918 -0.5300  0.2605 -0.2696
 1744TIP3    H126723   5.547   2.158   0.955 -1.7918 -0.5222 -0.9037
 1744TIP3    H226724   5.592   2.299   0.925  0.6485 -1.1584 -0.4978
 1745TIP3   OH226725   4.279   0.950  14.108 -0.7065 -0.3045  0.2543
 1745TIP3    H126726   4.243   1.038  14.120 -0.5428 -0.3758  1.4137
 1745TIP3    H226727   4.373   0.961  14.124 -0.5300 -0.5009 -0.6431
 1746TIP3   OH226728   3.826   5.833   4.599  0.3426 -0.2376  0.5517
 1746TIP3    H126729   3.892   5.874   4.656 -0.9123  0.8833  1.2406
 1746TIP3    H226730   3.776   5.906   4.563  0.2256 -1.0127 -0.9235
 1747TIP3   OH226731   1.464   3.564   0.207 -0.0333  0.0236 -0.2961
 1747TIP3    H126732   1.434   3.634   0.150  0.1051  0.9172  0.7007
 1747TIP3    H226733   1.435   3.590   0.295 -2.3686 -2.4393 -0.1797
 1748TIP3   OH226734   4.985   3.739  11.985  0.0277  0.1521 -0.1499
 1748TIP3    H126735   4.927   3.688  12.043  1.4895 -0.5616  0.7394
 1748TIP3    H226736   5.010   3.677  11.916 -0.2217  0.4536 -0.5182
 1749TIP3   OH226737   0.415   2.194  16.020  0.3541 -0.7622 -0.0886
 1749TIP3    H126738   0.499   2.177  15.977  1.3029 -1.4254  1.9376
 1749TIP3    H226739   0.378   2.107  16.036 -1.0729 -0.4735 -1.5259
 1750TIP3   OH226740   1.721   6.212  11.118 -0.9379 -0.0471 -0.0459
 1750TIP3    H126741   1.672   6.253  11.047 -2.5077 -0.9720  0.4467
 1750TIP3    H226742   1.667   6.136  11.143  0.4779 -0.7798  0.9165
 1751TIP3   OH226743   5.296   0.409  13.493  0.1889  0.0532  0.1075
 1751TIP3    H126744   5.362   0.479  13.492  0.5289 -0.2627 -0.1165
 1751TIP3    H226745   5.248   0.422  13.412 -1.8993  2.0019  1.5279
 1752TIP3   OH226746   5.604   0.277  11.514  0.2103  0.4912  0.3594
 1752TIP3    H126747   5.632   0.369  11.513  0.4155  0.4300 -0.5377
 1752TIP3    H226748   5.514   0.279  11.479  0.7219  0.2157 -1.0469
 1753TIP3   OH226749   1.923   4.664   2.711 -0.3683  0.3441 -0.4488
 1753TIP3    H126750   1.972   4.710   2.642 -1.8407  1.8243 -0.5590
 1753TIP3    H226751   1.961   4.575   2.712  1.2933  0.9905 -1.5070
 1754TIP3   OH226752   5.994   1.306  12.032 -0.2685 -0.6679  0.1385
 1754TIP3    H126753   6.037   1.258  12.103  0.1545 -1.3936 -0.5961
 1754TIP3    H226754   6.065   1.349  11.985 -0.6099  0.3813  0.5514
 1755TIP3   OH226755   0.196   3.546   3.767 -0.1295  0.3514 -0.4183
 1755TIP3    H126756   0.247   3.512   3.840  0.1894 -0.8047 -1.1370
 1755TIP3    H226757   0.235   3.505   3.690 -2.2791 -0.7945 -0.9820
 1756TIP3   OH226758   1.939   2.631   3.933 -0.4457  0.1835  0.3110
 1756TIP3    H126759   1.965   2.707   3.984  0.0682 -0.2861  0.7604
 1756TIP3    H226760   1.973   2.556   3.982 -0.0688 -0.2873 -0.6403
 1757TIP3   OH226761   4.380   5.627   3.045  0.5364 -0.0225  0.1311
 1757TIP3    H126762   4.356   5.539   3.015 -1.2093  0.7011 -0.7842
 1757TIP3    H226763   4.471   5.619   3.074  1.3002 -1.5749 -2.3425
 1758TIP3   OH226764   1.959   6.009  17.285 -0.3542 -0.1011  0.0857
 1758TIP3    H126765   2.009   6.078  17.330  0.4292 -0.6392  0.0485
 1758TIP3    H226766   2.008   5.929  17.302 -0.2087 -0.3641 -1.4577
 1759TIP3   OH226767   3.033   5.754  11.184 -0.4254  0.0635  0.7852
 1759TIP3    H126768   3.061   5.682  11.129 -1.7818 -0.5437  0.8518
 1759TIP3    H226769   3.114   5.791  11.219  0.3459 -0.6491 -0.2093
 1760TIP3   OH226770   5.070   4.653  16.353 -0.2602 -0.0236  0.7818
 1760TIP3    H126771   4.980   4.659  16.321  0.2482 -0.1574 -0.7241
 1760TIP3    H226772   5.080   4.730  16.409 -0.9454  0.6574 -0.0065
 1761TIP3   OH226773   2.553   6.397   5.786  0.1753 -0.8233 -0.4260
 1761TIP3    H126774   2.476   6.356   5.825 -0.1331  0.3639  0.2536
 1761TIP3    H226775   2.611   6.324   5.765 -1.7020 -1.8883 -2.2971
 1762TIP3   OH226776   3.951   5.022  16.674  0.3236  0.1364  0.1990
 1762TIP3    H126777   4.041   5.030  16.704  0.6097  1.1374 -0.8564
 1762TIP3    H226778   3.938   5.097  16.616 -1.3034  0.2155  0.6063
 1763TIP3   OH226779   0.978   0.852   6.341  0.0168  0.2178 -0.8259
 1763TIP3    H126780   0.920   0.890   6.407  0.3154 -0.3933 -0.2077
 1763TIP3    H226781   1.053   0.911   6.338  0.2537 -0.0524 -0.2227
 1764TIP3   OH226782   1.579   5.761   4.713 -0.2986 -0.6008  0.1385
 1764TIP3    H126783   1.506   5.703   4.693 -0.3883 -0.3102 -0.3785
 1764TIP3    H226784   1.619   5.780   4.629 -0.7418  0.7258  0.1973
 1765TIP3   OH226785   2.657   1.877   5.941  0.5996  0.3096 -0.4206
 1765TIP3    H126786   2.599   1.939   5.897  0.8707  0.3091 -0.7873
 1765TIP3    H226787   2.607   1.846   6.016 -0.0014  0.0540 -0.9196
 1766TIP3   OH226788   3.905   3.161   0.914  0.1789 -0.6429  0.7709
 1766TIP3    H126789   3.975   3.120   0.863  0.8326 -2.2452  2.7722
 1766TIP3    H226790   3.950   3.225   0.969 -0.1696 -0.5408  0.9386
 1767TIP3   OH226791   3.651   6.663  15.090  0.6444  0.0878 -0.1476
 1767TIP3    H126792   3.608   6.692  15.010 -0.3201  0.6075  0.5449
 1767TIP3    H226793   3.619   6.575  15.105  1.3989 -0.2945 -0.7218
 1768TIP3   OH226794   3.509   5.290  16.931 -0.3801 -0.3476 -0.2768
 1768TIP3    H126795   3.547   5.349  16.865 -1.0735 -0.0339 -0.4007
 1768TIP3    H226796   3.572   5.293  17.004 -0.2363  0.2921 -0.4130
 1769TIP3   OH226797   3.455   0.216   1.754 -0.2398 -0.4185  0.3467
 1769TIP3    H126798   3.382   0.278   1.755  0.1102  0.0002 -0.0117
 1769TIP3    H226799   3.414   0.131   1.740 -0.8702 -0.4701  2.1689
 1770TIP3   OH226800   0.930   1.170  15.332 -0.3324  0.2800 -0.1830
 1770TIP3    H126801   0.967   1.142  15.415 -1.1786 -0.0813  0.0829
 1770TIP3    H226802   0.908   1.088  15.287 -1.1087  0.4855 -0.1903
 1771TIP3   OH226803   0.874   6.064   0.046  0.2309  0.2804  1.0378
 1771TIP3    H126804   0.783   6.040   0.058 -0.0570  0.8513  0.1542
 1771TIP3    H226805   0.921   5.981   0.039 -0.3352 -0.0175  0.7511
 1772TIP3   OH226806   2.242   6.020  16.124  0.2553 -0.3664  0.1744
 1772TIP3    H126807   2.259   5.927  16.107 -1.6094 -0.7212  0.0117
 1772TIP3    H226808   2.163   6.039  16.074  1.4173  1.7282 -0.9774
 1773TIP3   OH226809   5.132   0.709   3.857  0.0900  0.3216 -0.1847
 1773TIP3    H126810   5.175   0.763   3.790  1.7843  0.9796  1.3313
 1773TIP3    H226811   5.201   0.647   3.885 -0.2167  0.7427  1.6353
 1774TIP3   OH226812   1.676   2.963   4.090  0.0761 -0.5159 -0.4321
 1774TIP3    H126813   1.686   3.058   4.105 -0.3017 -0.5890  0.3401
 1774TIP3    H226814   1.625   2.933   4.165  1.1795 -1.5327 -0.0678
 1775TIP3   OH226815   6.190   6.377   1.583 -0.5986  0.3708  0.3315
 1775TIP3    H126816   6.104   6.396   1.543  0.9285  1.6169 -2.6984
 1775TIP3    H226817   6.193   6.281   1.588 -1.6455  0.2374 -0.8726
 1776TIP3   OH226818   5.137   5.334   3.834 -0.7506 -0.1324  0.5377
 1776TIP3    H126819   5.181   5.419   3.832  0.9873 -0.9167  2.1525
 1776TIP3    H226820   5.084   5.333   3.755 -1.9325  2.9944  1.1314
 1777TIP3   OH226821   3.399   2.472   0.139 -0.1560 -0.2247  0.4656
 1777TIP3    H126822   3.450   2.425   0.205  0.3963 -2.0328 -1.1435
 1777TIP3    H226823   3.461   2.531   0.097 -0.0739 -0.3547  0.4035
 1778TIP3   OH226824   6.386   5.417  16.936 -0.3787  0.2048 -0.3551
 1778TIP3    H126825   6.468   5.465  16.926 -0.5765  0.4778 -0.6731
 1778TIP3    H226826   6.338   5.434  16.855 -0.5360 -0.3661 -0.3866
 1779TIP3   OH226827   3.866   2.866   0.791 -0.3188 -0.1160  0.0686
 1779TIP3    H126828   3.936   2.924   0.764  0.0783 -0.0164  1.2482
 1779TIP3    H226829   3.786   2.904   0.754 -0.2854  2.0538  2.0481
 1780TIP3   OH226830   5.084   6.257   4.702  0.3331 -0.1453 -0.4921
 1780TIP3    H126831   5.091   6.270   4.608 -0.1943  0.0398 -0.5070
 1780TIP3    H226832   5.028   6.180   4.712  3.2539 -2.4350 -0.4030
 1781TIP3   OH226833   0.510   1.421  13.782 -0.0647  0.3864 -0.1728
 1781TIP3    H126834   0.542   1.463  13.862 -1.1226  0.4589  0.2241
 1781TIP3    H226835   0.502   1.492  13.719  1.6926  0.1957 -0.6877
 1782TIP3   OH226836   3.986   6.461   0.614  0.0458  0.0907  0.3530
 1782TIP3    H126837   4.010   6.482   0.523  0.5044 -1.2951  0.1329
 1782TIP3    H226838   4.011   6.539   0.664 -0.7464  1.1121 -0.7758
 1783TIP3   OH226839   1.954   1.980   4.314  0.6060  0.0938  0.2857
 1783TIP3    H126840   1.956   2.000   4.408  0.4599 -0.6021  0.4441
 1783TIP3    H226841   1.861   1.981   4.292  0.5057 -1.3419  0.5207
 1784TIP3   OH226842   6.598   2.947   5.706 -0.0630  0.0727 -0.3069
 1784TIP3    H126843   6.678   3.000   5.704  1.7497 -2.4972 -1.3956
 1784TIP3    H226844   6.629   2.858   5.725 -3.0379 -0.5606  2.3097
 1785TIP3   OH226845   6.775   0.277   1.406  0.2933 -0.0780  0.0245
 1785TIP3    H126846   6.854   0.301   1.453 -0.0431 -0.5041  0.8245
 1785TIP3    H226847   6.753   0.190   1.439  0.9702 -1.1197 -2.1222
 1786TIP3   OH226848   6.443   4.536  11.172  0.6922  0.3168  0.5626
 1786TIP3    H126849   6.355   4.568  11.150  0.1858 -0.6772  1.0704
 1786TIP3    H226850   6.501   4.607  11.146  0.2051 -0.6717 -4.0229
 1787TIP3   OH226851   0.974   0.826  16.223  0.1118  0.0528  0.1616
 1787TIP3    H126852   1.056   0.864  16.254 -0.5192  0.3931  1.4932
 1787TIP3    H226853   0.968   0.852  16.131  1.9065 -0.7256 -0.2055
 1788TIP3   OH226854   5.249   2.505   4.437  0.1479  0.2975  0.4611
 1788TIP3    H126855   5.248   2.409   4.439  0.4752  0.2741 -0.2798
 1788TIP3    H226856   5.231   2.528   4.346  1.7098  0.8990  0.2664
 1789TIP3   OH226857   4.501   5.923   5.751 -0.1851  0.3544  0.1985
 1789TIP3    H126858   4.443   5.935   5.826 -1.3770 -0.8543 -0.4622
 1789TIP3    H226859   4.463   5.848   5.704  1.3495  0.1752 -0.8259
 1790TIP3   OH226860   0.613   0.973   1.545  0.0103  0.2450  0.3813
 1790TIP3    H126861   0.572   0.890   1.570  0.6146 -0.0646  0.3614
 1790TIP3    H226862   0.574   0.993   1.460  0.0084 -0.1211  0.2935
 1791TIP3   OH226863   4.950   1.588  14.953 -0.0785  0.2885  0.4901
 1791TIP3    H126864   5.018   1.626  14.897  0.4164 -0.6197  0.4701
 1791TIP3    H226865   4.955   1.639  15.034 -1.4530  2.2808 -0.5803
 1792TIP3   OH226866   4.107   0.497   2.340  0.7367 -0.1154 -0.1442
 1792TIP3    H126867   4.190   0.541   2.326  1.3161 -1.2881 -0.5456
 1792TIP3    H226868   4.129   0.419   2.391 -0.1072 -0.4554 -0.2752
 1793TIP3   OH226869   5.510   0.591   2.053  0.3606  0.3676 -0.1729
 1793TIP3    H126870   5.596   0.552   2.037 -0.0874 -0.1008 -1.5681
 1793TIP3    H226871   5.508   0.669   1.999 -0.2269  0.1745 -0.4401
 1794TIP3   OH226872   5.737   5.416   2.013 -0.5586  0.0798  0.2757
 1794TIP3    H126873   5.745   5.321   2.024  0.5567  0.2380  1.0729
 1794TIP3    H226874   5.739   5.451   2.102  0.2478  0.9212 -0.0500
 1795TIP3   OH226875   4.438   4.272   5.993  0.0178 -0.0319 -0.1824
 1795TIP3    H126876   4.429   4.334   6.065 -0.5590 -0.1894 -0.1121
 1795TIP3    H226877   4.392   4.313   5.920 -1.8573 -1.1056  0.3370
 1796TIP3   OH226878   3.545   1.018  14.853  0.1055  0.0559 -0.3755
 1796TIP3    H126879   3.461   0.979  14.877 -1.0252  2.3903 -0.1928
 1796TIP3    H226880   3.590   1.033  14.936 -0.0845  0.4149 -0.3351
 1797TIP3   OH226881   5.105   6.045  13.012  0.3485  0.4492 -0.1348
 1797TIP3    H126882   5.057   6.109  12.960  1.7406 -0.0029 -2.1063
 1797TIP3    H226883   5.104   5.965  12.959 -0.3846 -0.8537  1.7432
 1798TIP3   OH226884   5.683   0.912  16.218 -0.1519  0.0743  0.5182
 1798TIP3    H126885   5.708   0.916  16.125  0.2586  0.9586  0.6518
 1798TIP3    H226886   5.712   0.826  16.247 -1.6810 -0.8647 -0.5477
 1799TIP3   OH226887   1.330   5.160   5.018 -0.1419 -0.7690 -0.4753
 1799TIP3    H126888   1.389   5.114   5.079  0.1975  0.2025 -0.0433
 1799TIP3    H226889   1.273   5.091   4.983  0.1115 -1.4595  0.4208
 1800TIP3   OH226890   2.937   5.230  16.556 -0.1003 -0.1809 -0.3841
 1800TIP3    H126891   2.924   5.225  16.651 -1.9819  3.3726 -0.2343
 1800TIP3    H226892   3.031   5.228  16.544  0.3059  1.3219  1.8595
 1801TIP3   OH226893   5.471   0.625   5.986  0.0297  0.1331  0.2135
 1801TIP3    H126894   5.420   0.588   6.059 -2.2822 -0.3461 -1.5354
 1801TIP3    H226895   5.420   0.701   5.957  0.5169 -0.1057 -1.3425
 1802TIP3   OH226896   4.073   0.802   4.506 -0.4625 -0.2475  0.7486
 1802TIP3    H126897   4.105   0.867   4.569 -1.3769 -0.5063  1.5042
 1802TIP3    H226898   3.978   0.807   4.513 -0.5535 -1.8359  0.9883
 1803TIP3   OH226899   4.554   5.763  12.035 -0.2028 -0.2336 -0.2279
 1803TIP3    H126900   4.607   5.695  12.077  0.2520 -0.0459 -0.4826
 1803TIP3    H226901   4.595   5.774  11.949  0.1667  0.8547  0.0770
 1804TIP3   OH226902   6.266   2.909  10.787  0.2507  0.4918  0.5248
 1804TIP3    H126903   6.180   2.867  10.778  0.6119  0.0116 -0.9178
 1804TIP3    H226904   6.296   2.923  10.697  3.3339 -2.7512  0.8285
 1805TIP3   OH226905   4.837   1.056   2.066  0.0388  0.3491  0.3163
 1805TIP3    H126906   4.781   1.045   2.143  0.5998 -3.3894  0.3731
 1805TIP3    H226907   4.923   1.077   2.101  0.6713 -2.8645  0.9965
 1806TIP3   OH226908   3.967   1.144  14.972 -0.4699  0.0861  0.5648
 1806TIP3    H126909   3.981   1.187  14.887  2.7096 -0.2802  0.7678
 1806TIP3    H226910   3.889   1.090  14.959  1.1569 -1.7373 -2.9220
 1807TIP3   OH226911   1.519   4.698  12.840  0.0301 -0.0270  0.0571
 1807TIP3    H126912   1.447   4.645  12.805  1.0197 -1.2765 -0.1747
 1807TIP3    H226913   1.476   4.770  12.886 -1.3463  0.5085 -1.9077
 1808TIP3   OH226914   6.003   4.815  14.495 -0.0428  0.0513  0.3553
 1808TIP3    H126915   5.971   4.724  14.500  3.3807 -1.6492 -3.1950
 1808TIP3    H226916   5.940   4.859  14.439  0.1959 -1.3129 -1.0548
 1809TIP3   OH226917   1.071   1.949   2.087 -0.3969  0.5584  0.0372
 1809TIP3    H126918   1.137   1.880   2.081 -1.1571 -0.1097 -1.0083
 1809TIP3    H226919   1.093   1.996   2.167  1.1899  0.2059 -0.1575
 1810TIP3   OH226920   3.448   4.309   4.024 -0.7579 -0.3345  0.3971
 1810TIP3    H126921   3.499   4.291   4.103 -0.6888 -2.8526 -0.1420
 1810TIP3    H226922   3.369   4.257   4.034 -0.4990 -1.1538 -1.4060
 1811TIP3   OH226923   1.493   3.541   4.106 -0.6082  0.4009 -0.4233
 1811TIP3    H126924   1.577   3.531   4.151 -0.9246 -0.3969  0.0248
 1811TIP3    H226925   1.483   3.635   4.094  0.4017  0.4985 -0.5886
 1812TIP3   OH226926   5.995   0.078  15.217  0.0664 -0.5422  0.6349
 1812TIP3    H126927   6.077   0.120  15.243 -0.4288  1.2131 -0.4278
 1812TIP3    H226928   6.021   0.010  15.155  0.7790 -0.7772  1.1742
 1813TIP3   OH226929   5.136   4.616  12.560 -0.1027  0.3343 -0.0203
 1813TIP3    H126930   5.192   4.675  12.510 -1.3685  2.3847  0.8223
 1813TIP3    H226931   5.162   4.631  12.651 -0.5867 -0.2745  0.2233
 1814TIP3   OH226932   5.143   1.151  14.388  0.2535  0.1401 -0.2102
 1814TIP3    H126933   5.052   1.122  14.396  0.2000  0.3280 -0.1407
 1814TIP3    H226934   5.141   1.220  14.322  0.0668  1.3510  1.0247
 1815TIP3   OH226935   4.202   0.847  14.355  1.0613 -0.2598  0.3879
 1815TIP3    H126936   4.210   0.908  14.282 -0.6977 -1.2212 -0.6867
 1815TIP3    H226937   4.289   0.809  14.365  1.5266  0.4744 -0.6979
 1816TIP3   OH226938   2.533   6.771  15.963 -0.4216 -0.9302 -0.5980
 1816TIP3    H126939   2.511   6.823  15.886 -2.3032 -1.1143 -0.2265
 1816TIP3    H226940   2.473   6.802  16.031  1.3615 -0.5797  0.9085
 1817TIP3   OH226941   1.146   6.629   5.120  0.3022 -1.1579  0.0011
 1817TIP3    H126942   1.218   6.569   5.100  0.2524 -0.8167 -1.2831
 1817TIP3    H226943   1.114   6.657   5.035 -1.8642 -1.8620  0.5208
 1818TIP3   OH226944   5.298   3.152  10.433  0.0864 -0.0985  0.5003
 1818TIP3    H126945   5.229   3.107  10.482  0.4863 -0.4232  0.7722
 1818TIP3    H226946   5.301   3.240  10.470  0.0163 -0.1729  0.6824
 1819TIP3   OH226947   2.209   6.658  16.184 -0.3873 -0.2998  0.8788
 1819TIP3    H126948   2.178   6.708  16.260  0.2944  0.1787  0.8598
 1819TIP3    H226949   2.249   6.580  16.221 -0.4207 -0.2638  0.9905
 1820TIP3   OH226950   3.764   0.866  16.791 -0.1470 -0.0610 -0.3113
 1820TIP3    H126951   3.725   0.953  16.781  0.1649  0.1263  0.0742
 1820TIP3    H226952   3.829   0.861  16.722  1.1371  0.7484  0.7740
 1821TIP3   OH226953   2.259   2.066   3.573 -0.2495  0.5224  0.4694
 1821TIP3    H126954   2.168   2.089   3.552 -0.8130 -2.3217 -0.5307
 1821TIP3    H226955   2.307   2.084   3.493 -0.4203 -0.3382  0.1665
 1822TIP3   OH226956   3.830   2.912  11.778 -0.1514 -0.0683  0.2311
 1822TIP3    H126957   3.751   2.857  11.781  0.7716 -1.5796 -1.2902
 1822TIP3    H226958   3.871   2.899  11.864 -0.9711 -0.1418  0.6285
 1823TIP3   OH226959   0.097   2.105   3.305 -0.1190 -0.3332  0.3836
 1823TIP3    H126960   0.081   2.194   3.335 -1.8760 -0.5687  0.2339
 1823TIP3    H226961   0.040   2.050   3.359 -1.0213 -1.0831 -1.2469
 1824TIP3   OH226962   5.502   1.764  13.447 -0.1515 -0.0698  0.1100
 1824TIP3    H126963   5.502   1.694  13.382 -0.7327  0.6872 -0.7400
 1824TIP3    H226964   5.420   1.753  13.494  0.1464 -0.4571  0.5490
 1825TIP3   OH226965   5.556   2.278   1.954  0.0911 -0.1413 -0.0269
 1825TIP3    H126966   5.532   2.336   2.027 -0.7143 -0.0337 -0.3650
 1825TIP3    H226967   5.530   2.327   1.876  1.6609  0.0806 -0.4387
 1826TIP3   OH226968   0.285   3.312   4.510 -0.5580  0.5688 -0.1433
 1826TIP3    H126969   0.198   3.292   4.475 -1.1344  0.8607  1.1026
 1826TIP3    H226970   0.278   3.295   4.604  0.9627 -0.1898 -0.1388
 1827TIP3   OH226971   6.724   3.593   3.856  0.2118  0.0614 -0.1515
 1827TIP3    H126972   6.797   3.541   3.889 -0.3249  0.9136  2.5690
 1827TIP3    H226973   6.765   3.659   3.800  1.4762  0.1113  0.7884
 1828TIP3   OH226974   2.210   2.311  14.310 -0.0790  0.4046  0.4144
 1828TIP3    H126975   2.258   2.262  14.377 -0.3486 -1.8127 -0.9235
 1828TIP3    H226976   2.268   2.311  14.234 -0.7083  0.8885 -0.0792
 1829TIP3   OH226977   6.628   4.146  16.386  0.2756 -0.5358 -0.4909
 1829TIP3    H126978   6.621   4.217  16.322  0.4265  1.9361  2.0505
 1829TIP3    H226979   6.538   4.131  16.415  0.4007 -0.3652 -0.0080
 1830TIP3   OH226980   5.715   1.312   6.052  0.0174 -0.6085  0.4675
 1830TIP3    H126981   5.753   1.286   6.136 -0.5275  1.0841  1.2916
 1830TIP3    H226982   5.626   1.339   6.073  0.2065  0.8659 -0.4476
 1831TIP3   OH226983   2.366   2.727   3.121 -0.2269  0.1409  0.0608
 1831TIP3    H126984   2.390   2.767   3.037  2.0408 -1.8022 -0.3210
 1831TIP3    H226985   2.392   2.791   3.187 -2.0979  1.7231 -0.6223
 1832TIP3   OH226986   0.178   1.541  11.316  0.1470  0.9980 -0.3897
 1832TIP3    H126987   0.217   1.461  11.352  1.2154  1.6190 -0.1121
 1832TIP3    H226988   0.174   1.525  11.222  0.2977  0.5877 -0.3286
 1833TIP3   OH226989   2.934   4.480  12.292  0.1010 -0.0653 -0.5034
 1833TIP3    H126990   2.862   4.536  12.264  0.8818  2.5365  2.1650
 1833TIP3    H226991   2.893   4.395  12.312 -2.0449  1.0374  0.0236
 1834TIP3   OH226992   5.883   1.187   5.234  0.0057 -0.2107 -0.6752
 1834TIP3    H126993   5.805   1.198   5.288  1.5216 -1.9294  2.1229
 1834TIP3    H226994   5.944   1.138   5.290  2.9564  0.7032 -2.8379
 1835TIP3   OH226995   3.350   1.461  15.093 -0.4617 -1.0367 -0.3883
 1835TIP3    H126996   3.426   1.513  15.119 -1.3385 -0.0711  0.3530
 1835TIP3    H226997   3.314   1.508  15.018 -2.4801  0.7887  1.5311
 1836TIP3   OH226998   1.681   0.011   2.598  0.1693 -0.2629  0.0865
 1836TIP3    H126999   1.631   0.043   2.673 -0.0920 -2.4673  0.9212
 1836TIP3    H227000   1.769   0.046   2.611  0.7840 -2.4706  2.7941
 1837TIP3   OH227001   3.012   0.359  10.763  0.4183 -0.2654  0.4119
 1837TIP3    H127002   2.956   0.426  10.801  0.7143 -0.0691  0.5117
 1837TIP3    H227003   3.040   0.305  10.837  0.1320 -0.5361  0.3239
 1838TIP3   OH227004   5.665   2.475   0.621  0.2140 -0.2589  0.4971
 1838TIP3    H127005   5.695   2.469   0.712  1.3026 -0.1275  0.1595
 1838TIP3    H227006   5.711   2.405   0.576  1.9077  1.4130 -0.5159
 1839TIP3   OH227007   4.119   5.209   2.474 -0.4137 -1.1077  0.1016
 1839TIP3    H127008   4.044   5.202   2.534 -0.3213 -0.6481  0.2710
 1839TIP3    H227009   4.146   5.300   2.480  0.5701 -1.4173  0.5315
 1840TIP3   OH227010   2.651   1.070   1.316 -0.2180  0.5490 -0.3008
 1840TIP3    H127011   2.605   1.134   1.261 -1.0138 -0.1961 -0.5328
 1840TIP3    H227012   2.695   1.123   1.382 -0.9828  1.3395 -0.3990
 1841TIP3   OH227013   0.858   3.825  16.026  0.0990  0.0632 -0.7536
 1841TIP3    H127014   0.865   3.750  16.086 -0.5430  0.8459  0.3355
 1841TIP3    H227015   0.813   3.790  15.949  0.2612 -0.7848 -0.4724
 1842TIP3   OH227016   1.867   1.892   0.215 -0.4864 -0.3539 -0.1041
 1842TIP3    H127017   1.848   1.986   0.218  0.1275 -0.2384  0.4438
 1842TIP3    H227018   1.961   1.887   0.234 -0.9418 -1.2296  2.2199
 1843TIP3   OH227019   6.235   1.891  15.280 -0.1316  0.3141  0.1761
 1843TIP3    H127020   6.309   1.935  15.238  0.7281 -0.9249  0.3712
 1843TIP3    H227021   6.181   1.963  15.313  1.3368  1.2317  0.6623
 1844TIP3   OH227022   5.378   1.677   2.137 -0.2261  0.0405  0.4270
 1844TIP3    H127023   5.462   1.652   2.098 -0.8333 -0.6936 -0.4534
 1844TIP3    H227024   5.380   1.773   2.138  0.6616  0.0259  0.5055
 1845TIP3   OH227025   6.461   4.306   5.521  0.0049 -0.3432  0.0835
 1845TIP3    H127026   6.534   4.244   5.519  0.0203 -0.3052 -0.4928
 1845TIP3    H227027   6.384   4.252   5.537  0.0112 -0.5200 -0.4665
 1846TIP3   OH227028   1.303   0.420  13.596 -0.0495  0.1965 -0.0929
 1846TIP3    H127029   1.245   0.360  13.549 -1.6287  0.3382  1.5191
 1846TIP3    H227030   1.249   0.497  13.612  1.0012  0.8555  0.3803
 1847TIP3   OH227031   1.460   5.245  11.453  0.2014 -0.8643  0.0166
 1847TIP3    H127032   1.486   5.252  11.545 -0.7647  1.4824  0.1796
 1847TIP3    H227033   1.398   5.173  11.451 -1.5347  0.4887  1.6968
 1848TIP3   OH227034   1.015   0.014   1.224 -0.3393  0.5518  0.1596
 1848TIP3    H127035   1.057   0.065   1.155 -0.6653  1.7811  0.8483
 1848TIP3    H227036   1.057  -0.072   1.218  2.1786  1.6351  0.6855
 1849TIP3   OH227037   5.072   6.732  14.941 -0.4822 -0.2809 -0.0561
 1849TIP3    H127038   5.149   6.784  14.918 -1.2772  1.5199  1.1015
 1849TIP3    H227039   5.107   6.652  14.979  0.8425  0.5115  0.4704
 1850TIP3   OH227040   5.385   3.291  11.958 -0.1551  0.6517  0.3489
 1850TIP3    H127041   5.366   3.374  11.913 -1.0846 -0.1603 -0.8027
 1850TIP3    H227042   5.472   3.266  11.926 -0.6291  0.2938 -0.6887
 1851TIP3   OH227043   4.518   3.468  15.821  0.1328 -0.6232 -0.5078
 1851TIP3    H127044   4.529   3.523  15.899 -0.1756 -1.3433  0.0484
 1851TIP3    H227045   4.524   3.530  15.748  2.8528 -0.2278 -0.0731
 1852TIP3   OH227046   6.559   3.630  11.624 -0.2964  0.3695 -0.1584
 1852TIP3    H127047   6.536   3.539  11.643  0.3247  0.3979  0.8574
 1852TIP3    H227048   6.652   3.636  11.646 -0.7281  1.6746  1.5523
 1853TIP3   OH227049   0.785   4.276   5.273  0.0437  0.0099  0.4343
 1853TIP3    H127050   0.838   4.310   5.345  1.1499  0.4056 -0.5276
 1853TIP3    H227051   0.835   4.297   5.195 -1.1189 -0.4245 -0.4620
 1854TIP3   OH227052   0.748   0.394  14.969  0.1086 -0.0053 -0.2057
 1854TIP3    H127053   0.692   0.325  15.004 -0.9635  0.5732 -0.7458
 1854TIP3    H227054   0.828   0.388  15.022 -0.5616 -0.6631  0.7755
 1855TIP3   OH227055   5.831   6.681  15.413  0.1040  0.1230 -0.0432
 1855TIP3    H127056   5.857   6.653  15.500  0.8549 -1.3828 -0.7167
 1855TIP3    H227057   5.891   6.636  15.354 -1.7257 -0.6175 -1.4572
 1856TIP3   OH227058   5.710   6.335   5.337  0.4160  0.6327  0.4142
 1856TIP3    H127059   5.728   6.359   5.428  0.8894  0.9715  0.2347
 1856TIP3    H227060   5.730   6.241   5.332 -0.7688  0.3435  0.9501
 1857TIP3   OH227061   3.606   0.914  13.059  0.3749  0.7086  0.2115
 1857TIP3    H127062   3.522   0.959  13.047 -0.3024 -0.1730  1.3273
 1857TIP3    H227063   3.581   0.829  13.096  1.6104 -0.4961 -1.5590
 1858TIP3   OH227064   4.149   5.287  16.917  0.0554  0.2448 -0.5202
 1858TIP3    H127065   4.131   5.301  16.824  0.2388 -3.2249 -1.2342
 1858TIP3    H227066   4.064   5.296  16.960  0.1738  3.1900 -0.6927
 1859TIP3   OH227067   2.829   5.022   3.794  0.0679 -0.0158 -0.4407
 1859TIP3    H127068   2.853   4.939   3.752 -1.6211 -0.4906 -0.5421
 1859TIP3    H227069   2.894   5.084   3.763 -0.4906 -0.5734 -2.9695
 1860TIP3   OH227070   4.478   1.542  12.393  0.0312 -0.9511  0.0575
 1860TIP3    H127071   4.521   1.625  12.371  0.6401 -1.0214  0.9450
 1860TIP3    H227072   4.493   1.487  12.316 -1.8716  0.2792 -1.3048
 1861TIP3   OH227073   0.714   4.662  15.185  0.8717  0.0278 -0.2939
 1861TIP3    H127074   0.651   4.611  15.135  0.3399  0.4995 -0.1131
 1861TIP3    H227075   0.765   4.709  15.118  0.2264  0.5801 -0.4072
 1862TIP3   OH227076   6.195   6.169  17.286 -0.2320  0.4306 -0.2080
 1862TIP3    H127077   6.204   6.096  17.346  0.6098 -1.5939 -2.6047
 1862TIP3    H227078   6.282   6.179  17.246 -0.6929  1.8109 -0.9510
 1863TIP3   OH227079   5.449   2.068   3.011 -0.3622 -0.0509 -0.4074
 1863TIP3    H127080   5.481   2.056   2.921  0.2673  0.0998 -0.2108
 1863TIP3    H227081   5.521   2.113   3.056 -0.7215 -0.0163  0.1422
 1864TIP3   OH227082   2.891   0.924   4.275 -0.1629  0.1123  0.1085
 1864TIP3    H127083   2.855   0.847   4.230  0.8466 -0.6232  0.5085
 1864TIP3    H227084   2.815   0.981   4.289 -0.5881  0.1809 -2.1088
 1865TIP3   OH227085   5.748   5.013  13.992 -0.0590 -0.5028  0.1204
 1865TIP3    H127086   5.763   5.051  13.905 -0.1192  0.2021  0.4080
 1865TIP3    H227087   5.831   4.973  14.016  1.3274  2.7863  1.4222
 1866TIP3   OH227088   5.347   2.985  12.565  0.2777  0.2726 -0.6420
 1866TIP3    H127089   5.279   3.042  12.529  0.3785 -0.6557 -2.3842
 1866TIP3    H227090   5.306   2.948  12.643 -1.3315 -0.3959 -1.7404
 1867TIP3   OH227091   5.188   1.454  13.238 -0.1977 -0.4803  0.2659
 1867TIP3    H127092   5.115   1.510  13.265 -1.6259 -2.6393  1.1175
 1867TIP3    H227093   5.213   1.488  13.152 -2.3776  0.1997 -0.1714
 1868TIP3   OH227094   3.299   3.434  11.436  0.2121  0.0721 -0.0106
 1868TIP3    H127095   3.225   3.491  11.455  0.3999 -0.2594  1.9485
 1868TIP3    H227096   3.371   3.493  11.413  0.0786  0.5565  0.8077
 1869TIP3   OH227097   2.210   4.628  11.320 -0.5957  0.5564 -0.1879
 1869TIP3    H127098   2.155   4.612  11.243  0.0945 -0.5717 -0.4706
 1869TIP3    H227099   2.253   4.544  11.337  2.0093  1.6558 -0.7481
 1870TIP3   OH227100   1.206   2.233  13.952 -0.1874  0.3181 -0.7802
 1870TIP3    H127101   1.219   2.179  13.874 -0.0449 -1.4652  0.4307
 1870TIP3    H227102   1.284   2.288  13.957 -0.7756  1.3872 -2.5723
 1871TIP3   OH227103   1.208   2.657  15.462  0.0502 -0.2431 -0.3939
 1871TIP3    H127104   1.127   2.680  15.417 -0.5258  0.2389  0.8578
 1871TIP3    H227105   1.205   2.703  15.545  2.3742  1.0955 -0.9484
 1872TIP3   OH227106   1.465   1.882   3.862 -0.6096 -0.9720 -0.6142
 1872TIP3    H127107   1.555   1.913   3.855 -0.9556  0.6224  1.0734
 1872TIP3    H227108   1.441   1.856   3.773  0.7266  0.9009 -1.5938
 1873TIP3   OH227109   4.148   6.424  12.291  0.3029 -0.4780 -0.3355
 1873TIP3    H127110   4.208   6.405  12.219 -1.0117 -1.6991 -1.1386
 1873TIP3    H227111   4.063   6.440  12.249 -0.1974  0.1410  0.8550
 1874TIP3   OH227112   0.320   2.979   3.642  0.0498  0.1946 -0.0524
 1874TIP3    H127113   0.328   2.906   3.703 -0.4395 -1.9643 -2.3953
 1874TIP3    H227114   0.388   3.040   3.669  1.5378 -1.8313  1.0789
 1875TIP3   OH227115   0.505   3.099   5.095 -0.3605  0.5013 -0.2161
 1875TIP3    H127116   0.592   3.088   5.134 -0.9257 -1.3117  0.6441
 1875TIP3    H227117   0.504   3.189   5.063  0.8766  1.4388  2.1652
 1876TIP3   OH227118   1.444   6.601   0.906  0.2155  0.2518 -0.2538
 1876TIP3    H127119   1.423   6.674   0.965  0.1401  1.2634 -1.4784
 1876TIP3    H227120   1.497   6.641   0.837 -0.7820 -0.6181 -1.5744
 1877TIP3   OH227121   2.836   0.868  11.041 -0.4267  0.1713 -0.1943
 1877TIP3    H127122   2.881   0.950  11.060 -0.4545  0.4381 -1.2003
 1877TIP3    H227123   2.764   0.894  10.982 -0.4059 -0.5764 -0.5610
 1878TIP3   OH227124   6.777   2.084  15.385 -0.5910 -0.3751  0.1015
 1878TIP3    H127125   6.868   2.116  15.388  0.0815 -1.5388 -3.2599
 1878TIP3    H227126   6.783   2.002  15.336 -3.0167 -2.6791  3.2357
 1879TIP3   OH227127   0.708   0.843   2.714  0.0937  0.2897  0.3548
 1879TIP3    H127128   0.668   0.814   2.632  0.2260 -1.9479  1.0251
 1879TIP3    H227129   0.753   0.925   2.691 -0.7830  0.2998 -1.5240
 1880TIP3   OH227130   2.344   6.478  15.117  0.2586  0.1284 -0.6170
 1880TIP3    H127131   2.303   6.517  15.040 -1.2265 -1.9408 -0.9296
 1880TIP3    H227132   2.407   6.416  15.082 -0.6786 -1.0894 -0.2112
 1881TIP3   OH227133   4.551   0.690   5.493 -0.2880 -0.3582 -0.0546
 1881TIP3    H127134   4.530   0.654   5.579  2.3116  0.2495  0.9138
 1881TIP3    H227135   4.627   0.640   5.463  0.2820  0.9726 -0.9351
 1882TIP3   OH227136   1.825   6.432   0.147  0.1184 -0.2957  0.2453
 1882TIP3    H127137   1.766   6.377   0.096  1.5561 -0.4292 -1.3482
 1882TIP3    H227138   1.808   6.407   0.238  0.0373 -2.7095 -0.3595
 1883TIP3   OH227139   1.600   6.196  15.624 -0.0320  0.4352 -0.3880
 1883TIP3    H127140   1.509   6.206  15.654  0.3519  3.3382  0.0638
 1883TIP3    H227141   1.653   6.220  15.700  1.0735  0.7980 -1.2409
 1884TIP3   OH227142   1.373   6.704  14.497  0.3258  0.0490 -0.0043
 1884TIP3    H127143   1.346   6.617  14.470 -0.2891  0.3629 -0.4199
 1884TIP3    H227144   1.407   6.745  14.418  0.1849  0.3479  0.0893
 1885TIP3   OH227145   3.550   6.153   4.122 -1.3599 -0.0536 -0.0599
 1885TIP3    H127146   3.558   6.217   4.051 -0.4836 -0.1180 -0.0323
 1885TIP3    H227147   3.481   6.093   4.093 -1.6760  0.4760 -0.4150
 1886TIP3   OH227148   2.602   5.147  15.809 -0.1367 -0.2085  0.2339
 1886TIP3    H127149   2.597   5.057  15.778 -0.3637 -0.7298  1.6678
 1886TIP3    H227150   2.670   5.146  15.876 -0.3195  0.6194  0.4507
 1887TIP3   OH227151   0.387   2.185   0.419 -0.1599  0.7544 -0.1334
 1887TIP3    H127152   0.414   2.213   0.332 -1.2915  1.1557 -0.3660
 1887TIP3    H227153   0.353   2.096   0.407  0.7615  0.3613  0.1080
 1888TIP3   OH227154   6.266   5.300  16.164 -0.4454 -0.5297  0.6326
 1888TIP3    H127155   6.340   5.241  16.174 -0.0484 -0.2525 -0.4534
 1888TIP3    H227156   6.262   5.317  16.069  0.7836  2.8127  1.0357
 1889TIP3   OH227157   5.566   0.558   5.691  0.0669  0.0537 -0.0724
 1889TIP3    H127158   5.475   0.566   5.661 -0.3397 -0.3415  1.0356
 1889TIP3    H227159   5.608   0.506   5.623 -1.1214 -1.8323  0.5478
 1890TIP3   OH227160   0.212   2.048  17.156  0.3320  0.0214 -0.1473
 1890TIP3    H127161   0.218   1.986  17.228  1.5372 -1.8086 -1.7264
 1890TIP3    H227162   0.296   2.040  17.110 -0.5722  0.7207 -2.0511
 1891TIP3   OH227163   6.513   3.957  12.860  0.3029 -0.2845 -0.1996
 1891TIP3    H127164   6.549   3.977  12.946 -1.1618 -0.6048  0.5135
 1891TIP3    H227165   6.541   3.867  12.843  2.0039  0.3298 -0.8332
 1892TIP3   OH227166   0.785   1.293   2.308 -0.0282  0.0462 -0.1282
 1892TIP3    H127167   0.878   1.288   2.285  0.5780 -1.2339  2.3023
 1892TIP3    H227168   0.751   1.205   2.288 -1.0144  0.7540 -1.8608
 1893TIP3   OH227169   3.529   4.365  12.915 -0.3293  0.2143  0.1121
 1893TIP3    H127170   3.572   4.314  12.847 -0.2127  1.1405 -0.5345
 1893TIP3    H227171   3.600   4.395  12.972  0.0139  2.0949 -1.1916
 1894TIP3   OH227172   3.456   5.905   4.914  0.0024  0.4440 -0.2065
 1894TIP3    H127173   3.417   5.984   4.950 -0.4132  0.6320 -1.0361
 1894TIP3    H227174   3.546   5.906   4.947 -0.4174  0.4837  0.9768
 1895TIP3   OH227175   3.223   6.405   3.387  0.3371 -0.0632  0.3805
 1895TIP3    H127176   3.274   6.417   3.468  0.8489  1.4037 -0.1233
 1895TIP3    H227177   3.288   6.381   3.321  0.2733  0.8833 -0.0520
 1896TIP3   OH227178   6.313   0.142   5.433 -0.0289 -0.0092  0.4490
 1896TIP3    H127179   6.302   0.087   5.510 -0.5019  0.7789  0.9490
 1896TIP3    H227180   6.254   0.103   5.368 -0.1354 -0.2694  0.6961
 1897TIP3   OH227181   6.020   5.624  13.707 -0.0361  0.0708 -0.1895
 1897TIP3    H127182   6.104   5.652  13.672  0.3879 -0.6753  0.2034
 1897TIP3    H227183   5.955   5.674  13.657  0.6219  0.4085 -0.7202
 1898TIP3   OH227184   1.020   0.994  12.064 -0.1378  0.1609  0.3741
 1898TIP3    H127185   1.042   0.999  11.971  0.4723 -1.9493  0.3682
 1898TIP3    H227186   0.927   0.974  12.065 -0.6671  2.3189  0.3079
 1899TIP3   OH227187   5.033   4.802   4.128 -0.2434  0.0852 -0.3464
 1899TIP3    H127188   4.967   4.821   4.196 -1.0293  2.4823 -1.6450
 1899TIP3    H227189   5.015   4.712   4.101  0.4005 -1.1455  2.8493
 1900TIP3   OH227190   1.158   1.559  14.886  0.5865  0.4297 -0.5768
 1900TIP3    H127191   1.197   1.497  14.824  1.6141  1.3485 -0.8840
 1900TIP3    H227192   1.226   1.624  14.901 -0.2420  1.1439  0.2348
 1901TIP3   OH227193   0.935   4.836  13.616  0.4616  0.3763 -0.0295
 1901TIP3    H127194   1.009   4.892  13.592 -0.4280  1.7287  0.2967
 1901TIP3    H227195   0.970   4.778  13.684  1.9083 -0.7941 -1.6553
 1902TIP3   OH227196   4.210   4.434   2.347 -0.3246 -0.2532 -0.5781
 1902TIP3    H127197   4.199   4.475   2.433 -2.2717 -2.7578  0.4668
 1902TIP3    H227198   4.155   4.486   2.289 -2.0459 -0.7412  0.5323
 1903TIP3   OH227199   0.678   5.549   5.553 -0.1976  0.5377 -0.2223
 1903TIP3    H127200   0.660   5.630   5.506 -0.4391 -0.3510 -1.7241
 1903TIP3    H227201   0.764   5.562   5.592  0.5629  0.8798 -1.9272
 1904TIP3   OH227202   0.387   3.909   6.681  0.0589  0.2272  0.2933
 1904TIP3    H127203   0.302   3.875   6.653  0.0919 -0.0426  0.5168
 1904TIP3    H227204   0.399   3.989   6.630 -0.7223  0.7243  0.8717
 1905TIP3   OH227205   6.215   6.008   4.010  0.2500  0.2610 -0.2902
 1905TIP3    H127206   6.264   6.069   4.065 -0.3186 -0.7523  1.3819
 1905TIP3    H227207   6.269   5.929   4.007 -0.8538 -0.5660  0.8866
 1906TIP3   OH227208   3.119   4.998   5.747  0.2348 -0.1731 -0.3672
 1906TIP3    H127209   3.169   5.007   5.827  0.5658 -1.2288 -0.4358
 1906TIP3    H227210   3.028   5.013   5.773  0.6726  4.5762 -0.7264
 1907TIP3   OH227211   6.610   0.902  15.909  0.3345 -0.1369  0.1908
 1907TIP3    H127212   6.578   0.927  15.822 -1.0748 -0.2924  0.6419
 1907TIP3    H227213   6.679   0.966  15.928 -0.4281  0.8858 -0.3795
 1908TIP3   OH227214   3.893   5.973  15.366  0.2618  0.3641  0.5679
 1908TIP3    H127215   3.869   6.037  15.432  0.8108  0.6512  0.4941
 1908TIP3    H227216   3.971   6.009  15.324 -0.0102  0.1322 -0.1597
 1909TIP3   OH227217   5.945   6.171   0.854 -1.0641 -0.0211 -0.0408
 1909TIP3    H127218   5.902   6.145   0.772 -1.3252  1.9312 -0.5726
 1909TIP3    H227219   6.030   6.127   0.851  0.0265  1.9706 -2.6810
 1910TIP3   OH227220   4.760   5.656  16.441 -0.7810 -0.0809  0.1421
 1910TIP3    H127221   4.815   5.642  16.519  0.1598  1.0072 -0.2915
 1910TIP3    H227222   4.671   5.640  16.472 -0.2856 -1.5108  0.9713
 1911TIP3   OH227223   5.866   4.756  13.795 -0.0807  0.2213 -0.3200
 1911TIP3    H127224   5.861   4.702  13.716  1.6622 -3.7313  1.9866
 1911TIP3    H227225   5.781   4.800  13.799 -1.2973 -1.6113 -2.9656
 1912TIP3   OH227226   4.800   1.236  11.649 -0.2704  0.0256  0.5031
 1912TIP3    H127227   4.879   1.284  11.623  1.2860 -0.5914  3.6664
 1912TIP3    H227228   4.741   1.304  11.682  0.3490  0.1973  1.2926
 1913TIP3   OH227229   5.035   3.483   3.187 -0.7483  0.2059 -0.4367
 1913TIP3    H127230   5.010   3.401   3.145 -0.1842  0.5317 -1.4235
 1913TIP3    H227231   4.997   3.477   3.275  0.1510 -1.5601 -0.1150
 1914TIP3   OH227232   5.330   5.603   2.965  0.0309 -0.1362 -0.0871
 1914TIP3    H127233   5.354   5.663   2.895  0.9757 -0.2243  0.1483
 1914TIP3    H227234   5.373   5.520   2.942 -0.8528 -0.5907 -0.1571
 1915TIP3   OH227235   4.163   0.521   4.804  0.0572 -0.5089  0.4745
 1915TIP3    H127236   4.128   0.480   4.725 -0.6149  1.4482 -0.3062
 1915TIP3    H227237   4.256   0.497   4.804 -0.1078 -1.2007 -0.4860
 1916TIP3   OH227238   3.023   1.365  12.277 -0.1231 -0.0093 -0.1452
 1916TIP3    H127239   2.996   1.335  12.364 -2.4276  0.1167 -0.7638
 1916TIP3    H227240   2.964   1.321  12.216  0.4672  1.0483 -1.5427
 1917TIP3   OH227241   4.933   2.672  17.017 -0.4822 -0.3029 -0.0886
 1917TIP3    H127242   4.980   2.748  17.050  0.9399 -0.8845 -0.7216
 1917TIP3    H227243   4.945   2.675  16.922 -1.6377 -0.5264 -0.2596
 1918TIP3   OH227244   6.148   1.949  13.450  0.0793 -0.4739 -0.1775
 1918TIP3    H127245   6.156   1.854  13.444  0.9280 -0.4927  0.9534
 1918TIP3    H227246   6.222   1.982  13.399  0.4986 -0.4470  0.4419
 1919TIP3   OH227247   6.711   3.546  12.366  0.0811 -0.2413  0.6836
 1919TIP3    H127248   6.778   3.614  12.362  0.1908 -0.2393  2.0206
 1919TIP3    H227249   6.630   3.590  12.340  0.7317 -0.5334 -2.1856
 1920TIP3   OH227250   1.349   5.203   5.990  0.0310  0.0240 -0.1990
 1920TIP3    H127251   1.340   5.169   5.901  0.9430 -1.3341  0.1812
 1920TIP3    H227252   1.362   5.125   6.044 -3.0230  0.5763  1.5353
 1921TIP3   OH227253   6.566   5.090  15.969  0.0591 -0.4772  0.4902
 1921TIP3    H127254   6.623   5.021  15.936  0.2797  0.2224 -0.6617
 1921TIP3    H227255   6.530   5.131  15.890 -1.8435 -0.7332  1.1738
 1922TIP3   OH227256   3.254   2.304   4.761 -0.1717 -0.4059 -1.4892
 1922TIP3    H127257   3.331   2.352   4.792 -0.3028 -0.5798 -0.8887
 1922TIP3    H227258   3.273   2.287   4.668  1.4872 -2.3008 -0.8850
 1923TIP3   OH227259   2.424   3.854  14.954 -0.2218  0.1141 -0.5708
 1923TIP3    H127260   2.518   3.864  14.939 -0.0110 -0.2642  0.4275
 1923TIP3    H227261   2.404   3.767  14.920  0.4323 -1.1175  1.9740
 1924TIP3   OH227262   5.479   5.137   0.588  0.3506  0.5161 -0.0207
 1924TIP3    H127263   5.505   5.058   0.541  2.2380  1.0300  0.1121
 1924TIP3    H227264   5.441   5.104   0.670 -0.5909 -0.2875 -0.7565
 1925TIP3   OH227265   2.370   6.755   0.300 -0.1955 -0.0576 -0.6451
 1925TIP3    H127266   2.429   6.830   0.286  0.5036 -0.0127  1.8851
 1925TIP3    H227267   2.294   6.793   0.345 -0.1914 -0.7274 -0.0508
 1926TIP3   OH227268   3.159   6.147  12.857  0.1526  0.2178 -0.1832
 1926TIP3    H127269   3.095   6.174  12.924  0.1858 -0.1185 -0.0167
 1926TIP3    H227270   3.125   6.064  12.824  1.0787 -0.5373  0.6867
 1927TIP3   OH227271   3.695   5.440  16.308  0.4032  0.2775 -0.1638
 1927TIP3    H127272   3.790   5.445  16.312  0.3687  0.3351  1.0235
 1927TIP3    H227273   3.672   5.371  16.370 -0.3338  0.3165 -0.3792
 1928TIP3   OH227274   6.195   0.333  13.684  0.2181 -0.4717 -0.4638
 1928TIP3    H127275   6.282   0.297  13.703  0.1513 -0.2636  0.2783
 1928TIP3    H227276   6.174   0.386  13.761 -0.5667 -0.5150 -0.6397
 1929TIP3   OH227277   4.032   2.219   3.522 -0.2345 -0.0547 -0.8527
 1929TIP3    H127278   3.955   2.164   3.512  0.2709 -0.7305 -1.1222
 1929TIP3    H227279   4.012   2.298   3.472 -0.5341 -0.4627 -1.3889
 1930TIP3   OH227280   0.387   4.677  14.096 -0.2472  0.1529 -0.1615
 1930TIP3    H127281   0.477   4.698  14.074 -0.3121  0.6457  0.0282
 1930TIP3    H227282   0.377   4.708  14.186  0.4788 -3.1941  1.2087
 1931TIP3   OH227283   2.990   3.627   2.510  0.1763  0.5152  0.4039
 1931TIP3    H127284   2.945   3.636   2.594 -1.6179 -0.7259 -0.3586
 1931TIP3    H227285   2.942   3.684   2.451  1.8053  1.8521  0.3090
 1932TIP3   OH227286   4.785   1.240  13.062  0.0046  0.6408 -0.4221
 1932TIP3    H127287   4.831   1.231  13.145  0.1416 -0.2451 -0.5783
 1932TIP3    H227288   4.842   1.195  12.999 -0.6680  0.2544 -0.7662
 1933TIP3   OH227289   1.829   1.671  13.424  0.4062 -0.2420 -0.0914
 1933TIP3    H127290   1.805   1.695  13.514 -1.3458 -1.1480 -0.2909
 1933TIP3    H227291   1.897   1.605  13.435  1.7699  1.1995  0.5115
 1934TIP3   OH227292   1.066   5.897  17.059 -0.5629  0.2475 -0.3474
 1934TIP3    H127293   1.012   5.844  17.118  0.8420  0.5002  1.2490
 1934TIP3    H227294   1.122   5.834  17.015 -0.0598  0.2309  0.2965
 1935TIP3   OH227295   4.446   1.565   3.652 -0.2517 -0.3831 -0.0378
 1935TIP3    H127296   4.417   1.574   3.743 -2.2564 -0.5996 -0.6153
 1935TIP3    H227297   4.461   1.655   3.623 -1.1349 -0.2034  0.0469
 1936TIP3   OH227298   3.147   4.113  14.145  0.5441 -0.3939  0.0351
 1936TIP3    H127299   3.175   4.131  14.055  0.9495  3.4793  0.7367
 1936TIP3    H227300   3.052   4.127  14.143  0.6515  0.4135  0.3139
 1937TIP3   OH227301   2.199   6.650   2.057  0.1941  0.0605 -0.3795
 1937TIP3    H127302   2.120   6.597   2.068 -0.5034  1.2594  0.7222
 1937TIP3    H227303   2.229   6.630   1.969 -1.9429  0.3473 -1.2274
 1938TIP3   OH227304   0.243   2.628  13.289  0.4028 -0.9530 -0.2704
 1938TIP3    H127305   0.155   2.632  13.252  0.5920 -0.7531 -0.7064
 1938TIP3    H227306   0.283   2.551  13.248  0.8080 -0.4040 -0.9275
 1939TIP3   OH227307   5.610   3.613   0.689  0.4051 -0.3680 -0.6693
 1939TIP3    H127308   5.650   3.580   0.770  1.5712  1.0253 -0.6555
 1939TIP3    H227309   5.516   3.610   0.707  0.4321 -3.1303 -0.4824
 1940TIP3   OH227310   5.060   0.551   0.801 -0.2621 -0.3880  0.2191
 1940TIP3    H127311   5.045   0.628   0.746  0.9126 -1.1541 -1.2766
 1940TIP3    H227312   5.156   0.540   0.800 -0.4661 -2.7529 -0.9650
 1941TIP3   OH227313   0.807   4.876  12.850  0.1385 -0.6970  0.1148
 1941TIP3    H127314   0.819   4.781  12.841  0.4816 -0.4494 -4.2917
 1941TIP3    H227315   0.896   4.911  12.856  0.0583 -0.6014  0.7448
 1942TIP3   OH227316   4.027   1.377   5.141  0.0091  0.7469 -0.0671
 1942TIP3    H127317   4.120   1.392   5.125  0.0122  0.4190 -0.3797
 1942TIP3    H227318   4.009   1.421   5.224  0.5155  0.5500  0.1500
 1943TIP3   OH227319   3.569   0.167  10.655 -0.2679  0.1325 -0.3160
 1943TIP3    H127320   3.587   0.074  10.638 -1.0669 -0.3724  1.3015
 1943TIP3    H227321   3.654   0.209  10.653  0.3620 -1.0058  0.7683
 1944TIP3   OH227322   0.559   2.583   0.194  0.0305 -0.3623  0.7688
 1944TIP3    H127323   0.647   2.553   0.173  0.3540  0.0862  1.4615
 1944TIP3    H227324   0.550   2.570   0.288 -0.8746 -0.9909  0.6062
 1945TIP3   OH227325   0.193   1.365   1.946 -0.0864 -0.1352 -0.0818
 1945TIP3    H127326   0.162   1.276   1.959 -0.1553 -0.0618  0.2688
 1945TIP3    H227327   0.253   1.359   1.871  0.1301 -0.5250  0.1200
 1946TIP3   OH227328   1.451   1.434   4.604  0.5228 -0.2757  0.9009
 1946TIP3    H127329   1.524   1.387   4.565  0.1660  0.6371 -0.9737
 1946TIP3    H227330   1.431   1.386   4.685  1.0316 -2.5158 -0.2378
 1947TIP3   OH227331   5.996   0.581   5.251 -0.0619 -0.4461 -0.4488
 1947TIP3    H127332   5.919   0.539   5.213 -0.6213  0.3834 -0.2525
 1947TIP3    H227333   6.027   0.519   5.317 -1.7041  0.0125  0.8247
 1948TIP3   OH227334   4.651   5.029  17.183 -0.1567 -0.0312  0.4467
 1948TIP3    H127335   4.659   4.977  17.263  0.1001 -0.8373 -0.0841
 1948TIP3    H227336   4.735   5.016  17.138 -0.3947  0.2032 -0.0753
 1949TIP3   OH227337   1.791   6.026   0.252  0.0241  0.9015 -0.2471
 1949TIP3    H127338   1.714   6.082   0.262 -0.0676  1.2876 -2.5396
 1949TIP3    H227339   1.843   6.068   0.184  0.7100 -0.9974 -0.9733
 1950TIP3   OH227340   5.306   0.465  16.606 -0.2316 -0.0844 -1.0363
 1950TIP3    H127341   5.389   0.424  16.583 -0.6267 -0.3758 -1.9620
 1950TIP3    H227342   5.239   0.404  16.574 -0.8080  0.5599 -1.0765
 1951TIP3   OH227343   1.065   0.874   5.971 -0.3664 -0.4898  0.0688
 1951TIP3    H127344   1.010   0.813   5.921 -1.9314  0.0857  1.0323
 1951TIP3    H227345   1.058   0.957   5.923  0.3660 -0.6206 -0.2758
 1952TIP3   OH227346   6.006   6.351   2.775 -0.2119  0.3549  1.0189
 1952TIP3    H127347   5.986   6.258   2.758 -1.5443  0.4420  1.9250
 1952TIP3    H227348   6.017   6.356   2.870  2.2241  0.7382  0.7781
 1953TIP3   OH227349   0.269   3.282  16.329 -0.6516  0.2680  0.1949
 1953TIP3    H127350   0.277   3.377  16.322  1.7109  0.1217  0.2367
 1953TIP3    H227351   0.277   3.264  16.423  0.2534 -0.0576  0.0606
 1954TIP3   OH227352   6.404   1.038  11.110 -0.1283  0.5343  0.1848
 1954TIP3    H127353   6.367   1.053  11.023 -2.4541  1.3844  1.2390
 1954TIP3    H227354   6.407   0.942  11.118 -0.1595  0.4470 -0.7102
 1955TIP3   OH227355   2.779   4.836  11.151 -0.4136 -0.1845  0.5829
 1955TIP3    H127356   2.811   4.792  11.073 -1.6562  0.5817 -0.3982
 1955TIP3    H227357   2.848   4.897  11.175  0.7776 -1.7119  1.2069
 1956TIP3   OH227358   1.333   5.582   5.330  0.2679 -0.1356 -0.4296
 1956TIP3    H127359   1.417   5.627   5.338 -0.1582  0.8812 -1.4349
 1956TIP3    H227360   1.276   5.625   5.393 -0.4084  1.4425 -2.0457
 1957TIP3   OH227361   1.653   0.702  11.068 -0.0972  0.1413 -0.3623
 1957TIP3    H127362   1.617   0.771  11.012 -0.2270 -1.3825 -2.2510
 1957TIP3    H227363   1.606   0.623  11.042  0.1187 -0.7171  1.6824
 1958TIP3   OH227364   5.298   5.768  16.267  0.3114 -0.5323  0.6331
 1958TIP3    H127365   5.341   5.682  16.263  0.7284 -0.2895 -0.2229
 1958TIP3    H227366   5.355   5.826  16.217 -0.8404 -0.1372 -0.2767
 1959TIP3   OH227367   2.447   0.843  14.258  0.0871  0.4867  0.0306
 1959TIP3    H127368   2.518   0.873  14.315 -0.0051  1.1162 -0.1767
 1959TIP3    H227369   2.370   0.842  14.315  0.1845  0.1657  0.1608
 1960TIP3   OH227370   1.344   3.683   5.459  0.5332  0.6295  0.7259
 1960TIP3    H127371   1.271   3.628   5.486  1.1592 -0.8764 -0.5040
 1960TIP3    H227372   1.422   3.637   5.490  1.0884  0.6212 -0.6316
 1961TIP3   OH227373   5.612   0.095   3.377  0.0790 -0.0662  0.1512
 1961TIP3    H127374   5.560   0.093   3.296 -0.0000 -0.1726  0.2050
 1961TIP3    H227375   5.561   0.043   3.439  0.3195 -0.2883  0.1628
 1962TIP3   OH227376   1.302   6.529   6.342  0.3047  0.4111  0.1598
 1962TIP3    H127377   1.215   6.570   6.340  1.0558  2.1683  0.9891
 1962TIP3    H227378   1.285   6.435   6.334 -1.4803  0.8704 -2.6373
 1963TIP3   OH227379   6.323   5.815  10.921 -0.4473  0.2915  0.1863
 1963TIP3    H127380   6.236   5.851  10.934 -0.5137 -0.1217  0.9631
 1963TIP3    H227381   6.382   5.888  10.942 -0.6019  0.8051 -1.1039
 1964TIP3   OH227382   0.010   1.551  12.087 -0.1566  0.3090  0.0413
 1964TIP3    H127383   0.021   1.458  12.068 -0.3039  0.3554 -0.2733
 1964TIP3    H227384  -0.038   1.586  12.012 -0.1367  0.6314  0.1748
 1965TIP3   OH227385   5.347   4.394   4.122  0.4557 -0.0282 -0.1647
 1965TIP3    H127386   5.384   4.413   4.208  1.5093  0.6301 -0.7502
 1965TIP3    H227387   5.257   4.365   4.141  0.2405  1.3361  1.0578
 1966TIP3   OH227388   3.028   5.391  11.619 -0.0938 -0.3478  0.6326
 1966TIP3    H127389   3.025   5.469  11.563  0.5421 -0.5985  0.2380
 1966TIP3    H227390   3.084   5.416  11.692 -1.3695  0.1667  1.4756
 1967TIP3   OH227391   2.448   6.750  14.028  0.1036  0.0076  0.0362
 1967TIP3    H127392   2.451   6.836  13.987 -0.8187  0.8164  1.5521
 1967TIP3    H227393   2.388   6.699  13.973  0.9673  0.1694 -1.0990
 1968TIP3   OH227394   6.705   1.772  11.169  0.0034 -0.2040 -0.1879
 1968TIP3    H127395   6.657   1.805  11.093  0.8071  0.6852 -0.3320
 1968TIP3    H227396   6.745   1.850  11.207  0.6488 -0.8184  0.4132
 1969TIP3   OH227397   0.084   2.777   2.100  0.1139 -0.1958 -0.1648
 1969TIP3    H127398   0.087   2.741   2.189  0.8434 -0.3719 -0.2533
 1969TIP3    H227399   0.159   2.738   2.056  0.6261  1.0163 -0.4240
 1970TIP3   OH227400   4.575   1.457   4.382  0.4904  0.8260  0.2189
 1970TIP3    H127401   4.480   1.464   4.376  0.4031  0.8366  1.4762
 1970TIP3    H227402   4.590   1.387   4.445  1.3272  0.5952 -0.2179
 1971TIP3   OH227403   3.284   4.195   6.048  0.0551 -0.2121  0.3016
 1971TIP3    H127404   3.323   4.271   6.092  1.8447 -0.8025 -0.2038
 1971TIP3    H227405   3.194   4.223   6.028  0.4369  1.4912  0.8026
 1972TIP3   OH227406   1.571   3.302   1.499  0.6113 -0.2049  0.0360
 1972TIP3    H127407   1.477   3.281   1.493  0.8631 -1.1357 -0.7747
 1972TIP3    H227408   1.578   3.391   1.465 -0.0983  0.2504  1.0046
 1973TIP3   OH227409   1.725   4.421  16.546 -0.0891  0.6539 -0.0786
 1973TIP3    H127410   1.647   4.476  16.550 -1.8619 -1.6096 -0.9172
 1973TIP3    H227411   1.772   4.452  16.468  0.5234  2.7731  1.0636
 1974TIP3   OH227412   5.123   4.071   0.907 -0.1226 -0.0521 -0.2167
 1974TIP3    H127413   5.034   4.105   0.896 -0.7612 -1.2177  1.0489
 1974TIP3    H227414   5.144   4.087   0.999  0.7614 -0.2931 -0.3647
 1975TIP3   OH227415   5.729   0.748  16.870  0.0928 -0.3526 -0.0096
 1975TIP3    H127416   5.796   0.806  16.907  0.6631 -0.2978 -1.0753
 1975TIP3    H227417   5.734   0.763  16.775 -1.7460 -0.0252 -0.0976
 1976TIP3   OH227418   1.959   6.302   0.903  0.2330  0.5107  0.3466
 1976TIP3    H127419   2.034   6.289   0.961  0.4287 -2.7914 -0.4941
 1976TIP3    H227420   1.996   6.301   0.815 -0.5620  1.0910 -0.0084
 1977TIP3   OH227421   1.075   4.496   4.778  0.4460 -0.4804 -0.0572
 1977TIP3    H127422   1.122   4.476   4.697  0.6853  0.1506 -0.0810
 1977TIP3    H227423   1.129   4.460   4.847 -0.3350 -2.0741 -0.2281
 1978TIP3   OH227424   4.337   3.249   4.917  0.4816  0.7974 -0.2644
 1978TIP3    H127425   4.284   3.218   4.991  0.3195  0.8831 -0.3447
 1978TIP3    H227426   4.358   3.340   4.939  0.6091  0.7593 -0.2253
 1979TIP3   OH227427   3.254   4.562  11.511  0.3884 -0.0291  0.2262
 1979TIP3    H127428   3.297   4.646  11.502  1.3478 -0.0863  3.2397
 1979TIP3    H227429   3.291   4.508  11.440  1.5419  1.3754 -0.2819
 1980TIP3   OH227430   3.860   6.173  14.663  0.0951 -0.0634  0.1301
 1980TIP3    H127431   3.923   6.127  14.718  1.0920  0.5655 -0.4629
 1980TIP3    H227432   3.873   6.138  14.575  0.8393  1.2709 -0.3216
 1981TIP3   OH227433   1.728   0.804  13.478 -0.4245  0.2806  0.1727
 1981TIP3    H127434   1.674   0.741  13.525 -0.4216  1.0615  1.2623
 1981TIP3    H227435   1.739   0.766  13.391 -1.6013 -0.5326  0.3528
 1982TIP3   OH227436   5.619   0.304  13.610 -0.9280  0.1793  0.6006
 1982TIP3    H127437   5.611   0.263  13.697  0.4567  0.7697  1.0327
 1982TIP3    H227438   5.652   0.392  13.628 -0.8540  0.3880 -0.5188
 1983TIP3   OH227439   1.624   6.204   5.265  0.1825 -0.5490  0.3902
 1983TIP3    H127440   1.603   6.185   5.357  0.3743 -3.1047 -0.0118
 1983TIP3    H227441   1.678   6.130   5.237  0.5131  0.4013 -1.6704
 1984TIP3   OH227442   4.584   2.468  16.474  0.1898  0.8131 -0.2583
 1984TIP3    H127443   4.669   2.495  16.509  0.3094 -0.7539  0.7668
 1984TIP3    H227444   4.603   2.386  16.427 -0.6400  0.8558 -0.6764
 1985TIP3   OH227445   2.613   1.576   5.887  0.0712 -0.1329 -0.2617
 1985TIP3    H127446   2.615   1.493   5.840  3.4871 -0.1947 -0.2871
 1985TIP3    H227447   2.590   1.552   5.977  1.3794 -1.2161 -0.1838
 1986TIP3   OH227448   4.796   1.172  15.780 -0.1887  0.4717 -0.0484
 1986TIP3    H127449   4.808   1.131  15.695  0.6301 -1.8610  1.1108
 1986TIP3    H227450   4.879   1.218  15.797 -0.3665  0.9665 -0.4988
 1987TIP3   OH227451   0.541   4.222  11.989  0.4938 -0.0428 -0.1609
 1987TIP3    H127452   0.517   4.179  11.907 -0.3486  0.5354 -0.2321
 1987TIP3    H227453   0.482   4.182  12.054 -1.6261  2.2462 -0.5428
 1988TIP3   OH227454   2.281   3.655  11.688 -0.0527  0.5337  0.0569
 1988TIP3    H127455   2.250   3.599  11.759  0.6821  1.5474  1.2181
 1988TIP3    H227456   2.203   3.675  11.637 -0.3350 -1.5171 -0.3952
 1989TIP3   OH227457   2.746   2.612  11.506 -0.3233 -0.1624 -0.4354
 1989TIP3    H127458   2.732   2.655  11.422  2.7433  1.7002 -0.1636
 1989TIP3    H227459   2.694   2.662  11.568  0.4631  0.9910 -0.6759
 1990TIP3   OH227460   4.779   3.567  11.669 -0.1603 -0.5331  0.8803
 1990TIP3    H127461   4.719   3.497  11.691 -0.6730 -0.3659  0.0394
 1990TIP3    H227462   4.751   3.641  11.724 -2.1046  0.2143 -0.9509
 1991TIP3   OH227463   1.667   0.589  16.856 -0.1808  0.5005 -0.0761
 1991TIP3    H127464   1.684   0.557  16.944 -1.1653  0.5613  0.1423
 1991TIP3    H227465   1.574   0.612  16.856  0.1613  1.9843 -0.6571
 1992TIP3   OH227466   1.053   0.449  15.473  0.5265  0.5541 -0.0686
 1992TIP3    H127467   1.065   0.453  15.568 -2.1400 -0.2309  0.3865
 1992TIP3    H227468   0.961   0.472  15.460  0.4313 -0.8479 -2.3345
 1993TIP3   OH227469   3.432   0.543  16.241  0.6850  0.1532  0.3537
 1993TIP3    H127470   3.404   0.582  16.158  0.6921  1.2187  0.8325
 1993TIP3    H227471   3.499   0.603  16.274  0.9027 -0.4276  0.9864
 1994TIP3   OH227472   3.256   4.260   5.354  0.1352  0.2604  0.3194
 1994TIP3    H127473   3.204   4.198   5.302  1.5507 -1.8206  1.2399
 1994TIP3    H227474   3.210   4.264   5.438  0.9559 -0.9086  0.8400
 1995TIP3   OH227475   1.082   4.837  14.324 -0.4980 -0.2085  0.6805
 1995TIP3    H127476   1.007   4.784  14.347 -0.2141 -1.4905 -1.1546
 1995TIP3    H227477   1.045   4.919  14.291 -0.9780  0.0162  1.7161
 1996TIP3   OH227478   5.402   4.906  17.120 -0.1516  0.3618 -0.3042
 1996TIP3    H127479   5.472   4.960  17.158 -0.2870 -0.3054  0.9433
 1996TIP3    H227480   5.424   4.902  17.027  1.1043  0.7137 -0.0578
 1997TIP3   OH227481   1.465   4.223  14.463  0.8975  0.7394 -0.6574
 1997TIP3    H127482   1.396   4.281  14.432  1.5369  1.1871 -1.2748
 1997TIP3    H227483   1.519   4.278  14.520  0.8319  0.4259 -0.2819
 1998TIP3   OH227484   2.649   0.662  16.272  0.5629 -0.0651 -0.1206
 1998TIP3    H127485   2.632   0.697  16.184 -1.3272 -1.1465 -0.2265
 1998TIP3    H227486   2.684   0.737  16.321 -0.0451  1.0253 -1.2913
 1999TIP3   OH227487   6.150   0.762  14.618 -0.0460  0.2078 -0.1062
 1999TIP3    H127488   6.242   0.786  14.629 -0.3090  0.4513  2.1553
 1999TIP3    H227489   6.104   0.810  14.687 -1.6563 -1.0324 -0.2432
 2000TIP3   OH227490   5.971   0.991  13.127  0.7100  0.2962  0.1273
 2000TIP3    H127491   5.991   0.904  13.091 -0.5055 -0.2156  0.6308
 2000TIP3    H227492   5.995   0.984  13.220 -0.0707  0.2611  0.3299
 2001TIP3   OH227493   5.475   0.832  11.898 -0.2275  0.1533 -0.1078
 2001TIP3    H127494   5.401   0.822  11.838  0.5798 -2.0709 -0.8562
 2001TIP3    H227495   5.465   0.760  11.960  0.3900  0.8482  0.8217
 2002TIP3   OH227496   0.143   2.665  17.212 -0.2802  0.0957  0.1779
 2002TIP3    H127497   0.058   2.659  17.168 -1.0720 -1.2435  1.7600
 2002TIP3    H227498   0.203   2.616  17.156 -0.5053  1.0859 -0.9726
 2003TIP3   OH227499   6.569   1.869   5.833 -0.3277 -0.2335  0.1824
 2003TIP3    H127500   6.483   1.885   5.871 -0.1718  0.0999  0.4039
 2003TIP3    H227501   6.572   1.925   5.755 -0.1864  0.0062  0.3597
 2004TIP3   OH227502   2.889   0.091  16.083  0.3034  0.3872 -0.8278
 2004TIP3    H127503   2.827   0.019  16.075 -0.8982  1.4285 -1.2914
 2004TIP3    H227504   2.903   0.121  15.993 -0.4297  1.6914 -0.5393
 2005TIP3   OH227505   6.145   2.396   3.796  0.3350  0.3766  0.2883
 2005TIP3    H127506   6.129   2.441   3.713 -1.8704  2.1143  1.5614
 2005TIP3    H227507   6.087   2.320   3.793  0.0472  0.5935  0.3540
 2006TIP3   OH227508   4.787   0.460   5.190 -0.2160  0.0136  0.2726
 2006TIP3    H127509   4.782   0.506   5.273 -0.3551  0.1234  0.2036
 2006TIP3    H227510   4.808   0.529   5.126 -2.1059  0.2947 -0.1027
 2007TIP3   OH227511   1.623   1.408  16.298  0.3467  0.3140 -0.5174
 2007TIP3    H127512   1.608   1.453  16.382 -1.5793 -0.1270 -0.5667
 2007TIP3    H227513   1.561   1.450  16.238  2.5945  1.5365 -2.1404
 2008TIP3   OH227514   6.085   0.600   2.479 -0.3046  0.2490  0.1031
 2008TIP3    H127515   6.098   0.631   2.390  1.7358  0.0874  0.3063
 2008TIP3    H227516   6.068   0.506   2.470 -0.3704  0.2830 -0.1210
 2009TIP3   OH227517   4.030   6.208   2.588 -0.1607 -0.8490 -0.0975
 2009TIP3    H127518   3.964   6.139   2.583 -0.6126 -0.3519 -3.1250
 2009TIP3    H227519   4.058   6.220   2.497  0.7216  2.1594  0.4642
 2010TIP3   OH227520   5.775   4.601   2.625  0.2170  0.8425  0.2664
 2010TIP3    H127521   5.696   4.547   2.637  1.9923 -2.0987 -0.0994
 2010TIP3    H227522   5.783   4.609   2.530 -0.3222  2.3338  0.3220
 2011TIP3   OH227523   4.533   6.315   0.436 -0.3381  0.1906 -0.1374
 2011TIP3    H127524   4.567   6.231   0.404  1.5829  0.3207  1.3985
 2011TIP3    H227525   4.438   6.305   0.432 -0.1492 -1.8654 -0.5160
 2012TIP3   OH227526   3.725   4.666   1.216 -0.0440 -0.5455  0.1121
 2012TIP3    H127527   3.636   4.684   1.245  1.1439  3.1338  2.1246
 2012TIP3    H227528   3.717   4.651   1.122 -2.8547 -1.5897  0.4132
 2013TIP3   OH227529   1.029   4.075   3.126 -0.1653  0.2344 -0.7200
 2013TIP3    H127530   1.114   4.079   3.171 -0.2074  0.5017 -0.6622
 2013TIP3    H227531   1.051   4.048   3.037  0.1414  1.6117 -1.0954
 2014TIP3   OH227532   2.114   1.831   0.323  0.3347 -0.0213  0.1016
 2014TIP3    H127533   2.150   1.771   0.257  3.2422  1.4600  0.1508
 2014TIP3    H227534   2.167   1.813   0.401 -0.0740  1.2590  0.6887
 2015TIP3   OH227535   3.044   0.691   2.173 -0.4007  0.1663 -0.3029
 2015TIP3    H127536   2.950   0.680   2.159 -0.0517 -1.0414 -1.9582
 2015TIP3    H227537   3.057   0.786   2.168 -1.4136  0.2914 -0.9762
 2016TIP3   OH227538   0.912   5.823  11.994 -0.0768 -0.4419  0.5956
 2016TIP3    H127539   0.990   5.781  11.958  0.1494 -0.5870  1.2297
 2016TIP3    H227540   0.872   5.755  12.049  0.0645  0.0261  1.2922
 2017TIP3   OH227541   0.442   3.945   5.502 -0.5331 -0.4100  0.4514
 2017TIP3    H127542   0.477   3.882   5.440  1.2082  0.2046  0.7655
 2017TIP3    H227543   0.491   4.026   5.485 -0.9350  0.1308  1.7488
 2018TIP3   OH227544   6.135   3.134   3.695 -0.5776  0.2695  0.0730
 2018TIP3    H127545   6.135   3.223   3.730  0.5421  0.5513 -0.6002
 2018TIP3    H227546   6.201   3.135   3.626  0.4171 -1.4279  0.9340
 2019TIP3   OH227547   6.399   4.959   2.456 -0.0584 -0.3284  0.4784
 2019TIP3    H127548   6.364   4.991   2.539  2.6542  0.1118  1.5492
 2019TIP3    H227549   6.405   4.865   2.467 -0.6732 -0.3953  0.3308
 2020TIP3   OH227550   3.978   1.175  16.241 -0.6080  0.3368  0.0468
 2020TIP3    H127551   4.009   1.155  16.153  1.1055 -0.0777  0.7235
 2020TIP3    H227552   3.906   1.238  16.227 -3.2772 -2.7985 -1.8880
 2021TIP3   OH227553   2.105   0.321  11.290  0.2151 -0.1479 -0.3532
 2021TIP3    H127554   2.082   0.403  11.333 -2.2387 -1.3332  0.7514
 2021TIP3    H227555   2.114   0.344  11.198  0.6685  1.5250  0.0731
 2022TIP3   OH227556   1.881   1.756   1.273  0.1357 -0.1923 -0.0682
 2022TIP3    H127557   1.926   1.815   1.334  1.2284  0.1469 -1.1366
 2022TIP3    H227558   1.825   1.814   1.221 -0.0658 -0.3413 -0.0167
 2023TIP3   OH227559   0.414   3.469  12.200 -0.4597 -0.2711  0.3261
 2023TIP3    H127560   0.427   3.378  12.174 -0.7888 -0.7098  1.6206
 2023TIP3    H227561   0.481   3.485  12.266 -0.7193  0.2623  0.4653
 2024TIP3   OH227562   3.000   2.051   3.992  0.4652 -0.1956  0.2496
 2024TIP3    H127563   3.071   1.991   3.971 -1.1003 -2.3587  0.8375
 2024TIP3    H227564   2.923   2.016   3.947 -0.9287  0.2242  2.1498
 2025TIP3   OH227565   0.762   3.662   2.342  0.6231 -0.5014 -0.6157
 2025TIP3    H127566   0.699   3.728   2.312 -0.4079 -1.2820 -0.2341
 2025TIP3    H227567   0.782   3.688   2.432  0.8178 -0.2794 -0.7214
 2026TIP3   OH227568   2.691   0.995  12.310 -0.0135 -0.2143  0.7047
 2026TIP3    H127569   2.604   0.969  12.280  0.1336  0.3800 -0.2802
 2026TIP3    H227570   2.674   1.054  12.383 -0.4848  0.6642 -0.0905
 2027TIP3   OH227571   5.434   1.238   0.474 -0.6459 -0.1262 -0.2990
 2027TIP3    H127572   5.428   1.143   0.460 -0.3313 -0.1117 -0.5169
 2027TIP3    H227573   5.475   1.247   0.560 -0.9145 -0.1902 -0.1631
 2028TIP3   OH227574   1.758   5.333  11.342 -0.1839  0.1938 -0.0533
 2028TIP3    H127575   1.839   5.302  11.381 -0.6204 -0.7725  0.1001
 2028TIP3    H227576   1.723   5.395  11.406  0.0943  0.1023  0.1897
 2029TIP3   OH227577   6.252   2.809  13.357 -0.6986 -0.1929 -0.0301
 2029TIP3    H127578   6.230   2.830  13.267 -1.6420  0.3642  0.3209
 2029TIP3    H227579   6.295   2.888  13.391 -0.0862 -0.5020 -0.0661
 2030TIP3   OH227580   4.924   1.896  13.602  0.2587  0.3497 -0.4329
 2030TIP3    H127581   4.974   1.917  13.681  0.2570 -0.2743 -0.2598
 2030TIP3    H227582   4.991   1.888  13.533  0.2584  0.9071 -0.5024
 2031TIP3   OH227583   0.943   2.825  10.712  0.3269  0.5540  0.1585
 2031TIP3    H127584   1.024   2.850  10.667  0.5059 -1.7641 -0.9516
 2031TIP3    H227585   0.879   2.813  10.641 -1.3284  3.1721  1.0565
 2032TIP3   OH227586   4.812   0.139  16.135  0.3150  0.7307 -0.3269
 2032TIP3    H127587   4.832   0.049  16.108  0.6279  1.5442 -3.2255
 2032TIP3    H227588   4.719   0.150  16.115  0.0742  0.8549  0.7826
 2033TIP3   OH227589   4.805   1.817  14.719  0.3838  0.0376  0.4784
 2033TIP3    H127590   4.876   1.757  14.697 -0.0521 -0.8955  1.4529
 2033TIP3    H227591   4.839   1.870  14.791  0.8418  1.1356 -0.5227
 2034TIP3   OH227592   6.702   5.072  12.431  0.5201 -0.4633  0.6858
 2034TIP3    H127593   6.662   5.006  12.488  1.4366 -0.8078  0.9589
 2034TIP3    H227594   6.633   5.137  12.417 -0.0292 -0.8743  1.3936
 2035TIP3   OH227595   0.800   2.868  11.884 -0.2031 -0.4066  0.3962
 2035TIP3    H127596   0.889   2.837  11.901 -0.2397 -0.7978 -0.0991
 2035TIP3    H227597   0.781   2.839  11.795 -0.3001  0.9285 -0.0439
 2036TIP3   OH227598   5.123   1.226   1.835  0.5537 -0.2959  0.4027
 2036TIP3    H127599   5.162   1.163   1.775  1.7526  2.0025 -1.3788
 2036TIP3    H227600   5.171   1.214   1.917  1.8336 -0.6733 -0.3683
 2037TIP3   OH227601   5.160   5.106  12.097  0.2144 -0.0383 -0.0531
 2037TIP3    H127602   5.178   5.021  12.056  2.1248  0.4810 -0.4037
 2037TIP3    H227603   5.112   5.155  12.030  0.4764 -0.3080 -0.4422
 2038TIP3   OH227604   4.326   2.763   3.107  0.0646  0.3436 -0.3529
 2038TIP3    H127605   4.243   2.776   3.152 -0.8535  1.7433 -2.3133
 2038TIP3    H227606   4.375   2.844   3.122  1.3506 -0.6553  1.2009
 2039TIP3   OH227607   2.825   3.996  12.557  0.2571  0.2361 -0.6376
 2039TIP3    H127608   2.796   3.998  12.648 -0.8286  1.5020 -0.9772
 2039TIP3    H227609   2.916   3.969  12.561  0.5477  1.3056  0.9256
 2040TIP3   OH227610   2.166   2.794   4.741  0.1321  0.4366 -0.3247
 2040TIP3    H127611   2.081   2.809   4.781  0.4314  1.0138  0.1100
 2040TIP3    H227612   2.175   2.864   4.676 -0.9338 -1.2645 -2.4256
 2041TIP3   OH227613   5.645   5.428  12.539 -0.3769  0.1416  0.0652
 2041TIP3    H127614   5.558   5.393  12.521 -0.5699  0.7452 -0.2090
 2041TIP3    H227615   5.704   5.374  12.487 -0.4482 -1.0221  1.1413
 2042TIP3   OH227616   0.656   5.789  12.386  0.5635 -0.0603  0.3527
 2042TIP3    H127617   0.668   5.694  12.388  1.8749 -0.0635 -2.3402
 2042TIP3    H227618   0.564   5.801  12.362  0.1597 -0.5804  1.5542
 2043TIP3   OH227619   5.599   3.567   4.941 -0.6429 -0.2391  0.6315
 2043TIP3    H127620   5.687   3.562   4.903 -0.2720 -0.4369  1.4918
 2043TIP3    H227621   5.569   3.477   4.947 -0.2835 -0.3026  1.7245
 2044TIP3   OH227622   3.236   0.134   4.697  0.3050  0.1718 -0.5916
 2044TIP3    H127623   3.172   0.174   4.755  0.9714  0.2477  0.1174
 2044TIP3    H227624   3.276   0.207   4.650  2.1136  0.5206  1.3068
 2045TIP3   OH227625   6.407   5.578  11.737 -0.4456  0.3906  0.4398
 2045TIP3    H127626   6.472   5.640  11.770 -1.5887  0.4743  2.7160
 2045TIP3    H227627   6.347   5.632  11.685 -0.7151  0.9595  1.3313
 2046TIP3   OH227628   2.433   5.325   1.953  0.1829  0.4377  0.0556
 2046TIP3    H127629   2.440   5.238   1.912  0.9902  0.1691  0.7414
 2046TIP3    H227630   2.339   5.340   1.961  0.0241 -0.8097  0.8061
 2047TIP3   OH227631   0.256   2.506   5.961 -0.1810 -0.0356  0.1250
 2047TIP3    H127632   0.345   2.527   5.989 -0.4661  0.0946  0.9692
 2047TIP3    H227633   0.214   2.470   6.039  0.0384 -3.1187 -1.0450
 2048TIP3   OH227634   5.312   4.654   3.998  0.4743  0.3897  0.0681
 2048TIP3    H127635   5.337   4.583   4.057 -0.8744 -1.1341 -1.0910
 2048TIP3    H227636   5.281   4.723   4.057 -0.1778 -0.8002  1.1854
 2049TIP3   OH227637   3.643   3.932  11.437  0.3287 -0.4644 -0.1013
 2049TIP3    H127638   3.699   3.872  11.487 -0.2132 -0.0828  1.0016
 2049TIP3    H227639   3.555   3.895  11.446 -0.1485  0.9261  1.3181
 2050TIP3   OH227640   1.629   4.657  14.279 -0.5907  0.2736 -0.3901
 2050TIP3    H127641   1.585   4.633  14.198 -0.6560  0.2985 -0.3619
 2050TIP3    H227642   1.719   4.674  14.254 -0.4509 -0.3889 -0.3457
 2051TIP3   OH227643   3.872   5.412   3.672 -0.3026  0.4845  0.1479
 2051TIP3    H127644   3.933   5.452   3.610 -0.1619  0.2556  0.1396
 2051TIP3    H227645   3.791   5.463   3.662 -0.3179  0.3800 -0.3039
 2052TIP3   OH227646   2.149   2.610  15.599  0.2600 -0.1225  0.9084
 2052TIP3    H127647   2.088   2.571  15.536 -0.0726  0.8926  0.5751
 2052TIP3    H227648   2.151   2.549  15.672 -0.2539 -0.7487  0.4104
 2053TIP3   OH227649   4.304   3.601  15.179 -0.2220 -0.0113 -0.4330
 2053TIP3    H127650   4.336   3.680  15.223  0.4290 -0.0234 -0.8802
 2053TIP3    H227651   4.383   3.552  15.155 -0.6192 -0.7985 -0.1684
 2054TIP3   OH227652   2.869   0.369  12.852  0.0835 -0.4208 -0.1270
 2054TIP3    H127653   2.951   0.418  12.849  0.9025 -1.7690 -1.5602
 2054TIP3    H227654   2.830   0.382  12.765  0.3615 -2.2669 -0.5781
 2055TIP3   OH227655   4.053   2.177   1.024  0.0764 -0.1017  0.3053
 2055TIP3    H127656   4.083   2.126   0.948 -0.6953 -1.5854  0.9615
 2055TIP3    H227657   4.005   2.115   1.077 -3.1114  1.8338 -0.0490
 2056TIP3   OH227658   0.797   1.238   1.552 -0.5981 -0.0587  0.0234
 2056TIP3    H127659   0.845   1.319   1.565  0.8656 -1.0718  1.2891
 2056TIP3    H227660   0.765   1.243   1.461 -1.6744  2.4427  0.4550
 2057TIP3   OH227661   1.885   4.197   3.547 -0.2282  0.1074 -0.1543
 2057TIP3    H127662   1.930   4.121   3.582 -0.4832 -0.5498 -1.2053
 2057TIP3    H227663   1.857   4.246   3.624 -1.2630 -1.5718  0.5995
 2058TIP3   OH227664   3.429   3.948  13.023  0.9477 -0.0010  0.9284
 2058TIP3    H127665   3.375   3.987  13.091 -0.6841  0.2385 -0.4308
 2058TIP3    H227666   3.400   3.857  13.017  0.8390  0.0647  0.3531
 2059TIP3   OH227667   1.768   2.927  15.608 -0.0441  0.1208 -0.6927
 2059TIP3    H127668   1.801   2.855  15.555 -1.6923  0.2771 -2.0343
 2059TIP3    H227669   1.688   2.892  15.649 -0.8916  1.1709 -1.3966
 2060TIP3   OH227670   5.744   6.590   2.603  0.0930 -0.0133 -0.4326
 2060TIP3    H127671   5.713   6.523   2.664  0.1855  0.2431 -0.1019
 2060TIP3    H227672   5.669   6.608   2.547  0.8598 -2.5078 -2.4674
 2061TIP3   OH227673   5.715   6.677  11.442 -0.0081 -0.4866  0.2773
 2061TIP3    H127674   5.803   6.653  11.473 -0.1026 -0.0164  0.9415
 2061TIP3    H227675   5.681   6.735  11.510 -0.6518 -0.2814 -0.2093
 2062TIP3   OH227676   6.370   0.198  11.717 -1.1673  0.1162 -0.1340
 2062TIP3    H127677   6.351   0.113  11.677 -0.0003 -0.6324  0.8407
 2062TIP3    H227678   6.350   0.186  11.809  2.1914 -0.2618  0.7015
 2063TIP3   OH227679   5.933   2.150  14.331 -0.3088 -0.1287  0.3265
 2063TIP3    H127680   5.980   2.158  14.415 -0.5820 -2.3729  0.7368
 2063TIP3    H227681   6.000   2.170  14.265 -0.2219  2.2315  1.0345
 2064TIP3   OH227682   1.342   3.889   2.562 -0.3599  0.3584 -0.0181
 2064TIP3    H127683   1.415   3.936   2.522 -1.0468  1.6556  0.1725
 2064TIP3    H227684   1.383   3.824   2.618  0.6633  1.2770  0.3433
 2065TIP3   OH227685   0.614   2.061  11.793 -0.3289 -0.3706  0.5496
 2065TIP3    H127686   0.676   2.015  11.849  1.4412  2.7033  1.3289
 2065TIP3    H227687   0.599   2.145  11.836 -2.8550  0.1524 -1.0916
 2066TIP3   OH227688   5.416   2.685   3.792 -0.4525 -0.3388  0.4542
 2066TIP3    H127689   5.496   2.700   3.742 -0.6922 -0.7764 -0.0686
 2066TIP3    H227690   5.431   2.601   3.836 -1.1634 -1.1482 -0.7708
 2067TIP3   OH227691   6.405   1.245   0.641 -0.0340 -0.0875 -0.0142
 2067TIP3    H127692   6.357   1.267   0.561 -1.5973 -0.9189  0.6615
 2067TIP3    H227693   6.495   1.230   0.611 -0.6710 -0.8218 -1.7040
 2068TIP3   OH227694   5.823   2.870  14.517 -0.1786 -0.0153 -0.3170
 2068TIP3    H127695   5.903   2.834  14.477 -1.7100 -1.0461 -2.6914
 2068TIP3    H227696   5.843   2.875  14.610  1.9217 -2.2990 -0.5342
 2069TIP3   OH227697   0.290   4.598   1.024 -0.3088 -0.3235  0.0427
 2069TIP3    H127698   0.337   4.525   1.064 -0.7199 -0.5390  0.1355
 2069TIP3    H227699   0.333   4.676   1.058 -0.8963 -0.4936  1.2118
 2070TIP3   OH227700   1.131   1.982  16.431  0.8710  0.9049  0.2186
 2070TIP3    H127701   1.174   2.057  16.391 -0.4602  1.7673  0.3240
 2070TIP3    H227702   1.051   2.018  16.468  0.3330 -0.5322  0.5195
 2071TIP3   OH227703   4.224   2.253   1.931  1.0371 -0.1429  0.2744
 2071TIP3    H127704   4.273   2.189   1.880  1.8479 -0.4832  1.4234
 2071TIP3    H227705   4.264   2.337   1.908  1.6167 -0.3304  0.5782
 2072TIP3   OH227706   4.374   2.569  15.426  0.2282 -0.2209 -0.2997
 2072TIP3    H127707   4.395   2.476  15.418  1.9461  0.0921  0.1642
 2072TIP3    H227708   4.457   2.614  15.409 -0.3242  1.1800  0.5455
 2073TIP3   OH227709   1.428   0.756  11.613 -0.4767 -0.3305  0.1454
 2073TIP3    H127710   1.483   0.747  11.691 -0.5256 -0.1270  0.2053
 2073TIP3    H227711   1.434   0.671  11.570  0.9984  0.1196 -0.5988
 2074TIP3   OH227712   5.176   4.856  15.555  0.2306 -0.2644 -0.3586
 2074TIP3    H127713   5.105   4.810  15.600 -0.4608  1.6478  0.6148
 2074TIP3    H227714   5.231   4.787  15.521 -1.6762 -1.8240 -0.4642
 2075TIP3   OH227715   1.014   0.042  10.907 -0.2037  0.3691  0.0966
 2075TIP3    H127716   1.027   0.033  11.001  0.5464  2.7395  0.2812
 2075TIP3    H227717   0.941  -0.017  10.888  0.6645 -1.3942  1.8325
 2076TIP3   OH227718   1.434   1.423  17.224 -0.1760 -0.2488 -0.0395
 2076TIP3    H127719   1.423   1.445  17.132  2.1666 -0.0193 -0.3187
 2076TIP3    H227720   1.485   1.342  17.224  0.9856  0.4348  1.0250
 2077TIP3   OH227721   5.465   2.297   1.320  0.3821 -0.9312  0.2753
 2077TIP3    H127722   5.381   2.320   1.361  1.4033 -1.7339  3.0494
 2077TIP3    H227723   5.443   2.283   1.228 -1.8181  2.7076  0.0020
 2078TIP3   OH227724   6.534   1.219  16.630 -0.2851  0.2687 -0.1750
 2078TIP3    H127725   6.629   1.223  16.627 -0.3495  3.1009 -1.9284
 2078TIP3    H227726   6.512   1.241  16.720  0.7177  1.0015 -0.0926
 2079TIP3   OH227727   4.910   6.701  13.090 -0.0212  0.1018 -0.3533
 2079TIP3    H127728   4.982   6.764  13.083  0.4023 -0.3532 -0.1551
 2079TIP3    H227729   4.926   6.655  13.173 -0.8425  0.3614 -0.0383
 2080TIP3   OH227730   6.331   3.767   4.324 -0.1826  0.1940  0.4267
 2080TIP3    H127731   6.425   3.781   4.339  0.2520 -0.1283 -1.6678
 2080TIP3    H227732   6.306   3.839   4.266 -1.2982  0.3574  1.0864
 2081TIP3   OH227733   0.272   2.117   4.333  0.2443  0.6060  0.2614
 2081TIP3    H127734   0.258   2.030   4.294  1.1815  0.8849 -0.7527
 2081TIP3    H227735   0.202   2.171   4.297  0.4786  0.6008 -0.2107
 2082TIP3   OH227736   3.400   1.684   4.490  0.0333 -0.0411 -0.0683
 2082TIP3    H127737   3.436   1.721   4.571 -0.4930  1.4363 -0.4734
 2082TIP3    H227738   3.400   1.590   4.505  0.8236  0.1432  1.2855
 2083TIP3   OH227739   1.521   4.686   1.033 -0.3155  0.1481 -0.1177
 2083TIP3    H127740   1.554   4.634   1.106 -0.9036 -0.3617 -0.2189
 2083TIP3    H227741   1.594   4.688   0.971 -1.2494 -3.1475 -1.5127
 2084TIP3   OH227742   4.223   2.745   1.917 -0.5373  0.4025 -0.5980
 2084TIP3    H127743   4.286   2.681   1.885  0.3039  1.3193 -0.8370
 2084TIP3    H227744   4.190   2.708   1.999 -0.9499 -0.8646 -1.3192
 2085TIP3   OH227745   1.812   1.267   2.878 -0.0836  0.8328 -0.6743
 2085TIP3    H127746   1.907   1.270   2.893 -0.1986  2.5255 -0.0734
 2085TIP3    H227747   1.796   1.336   2.814 -0.9590  0.8313 -0.4688
 2086TIP3   OH227748   3.458   5.346  12.361  0.2370 -0.2261 -0.2076
 2086TIP3    H127749   3.519   5.279  12.329  0.7984 -0.6836  1.6999
 2086TIP3    H227750   3.398   5.360  12.288  0.6432 -2.1747 -0.9914
 2087TIP3   OH227751   5.614   5.964  15.728 -0.3411 -0.2066 -0.1028
 2087TIP3    H127752   5.554   6.009  15.668 -0.2445  1.6890  1.1255
 2087TIP3    H227753   5.598   5.871  15.713 -2.6666  0.2273 -0.7435
 2088TIP3   OH227754   4.200   3.217  15.686 -0.2381  0.4330 -0.4510
 2088TIP3    H127755   4.185   3.199  15.594 -1.7751  1.6936 -0.4823
 2088TIP3    H227756   4.139   3.159  15.733  0.2165  0.1236 -0.2246
 2089TIP3   OH227757   1.660   0.030   2.302 -0.4172  0.1112  0.3030
 2089TIP3    H127758   1.658   0.044   2.397 -0.5345  0.9417  0.1874
 2089TIP3    H227759   1.660  -0.065   2.292 -0.2418  0.0133  1.1376
 2090TIP3   OH227760   3.225   4.915  14.508  0.4236  0.5255  0.1910
 2090TIP3    H127761   3.265   4.831  14.533  0.4297  0.7205  0.8416
 2090TIP3    H227762   3.229   4.915  14.413  1.6474  0.3750  0.2243
 2091TIP3   OH227763   2.755   0.156   2.903 -0.2153  0.1420  0.3897
 2091TIP3    H127764   2.849   0.158   2.888  0.0012 -3.3152  0.4899
 2091TIP3    H227765   2.745   0.157   2.998 -0.1364 -1.1356  0.4264
 2092TIP3   OH227766   3.201   6.164   1.016  0.2794  0.2432  0.8659
 2092TIP3    H127767   3.255   6.108   1.073  1.0628  1.7887  1.7030
 2092TIP3    H227768   3.149   6.217   1.076 -0.3265  0.5358  0.0959
 2093TIP3   OH227769   6.271   0.922  16.522 -0.1399 -0.4486  0.3108
 2093TIP3    H127770   6.263   0.835  16.483 -1.3126  0.1090 -0.7468
 2093TIP3    H227771   6.262   0.906  16.616 -0.1656 -1.4871  0.1473
 2094TIP3   OH227772   0.779   1.287   5.189 -0.1626 -0.0995 -0.2147
 2094TIP3    H127773   0.712   1.326   5.245  0.7564 -1.2085  1.7661
 2094TIP3    H227774   0.841   1.359   5.172 -0.4128  0.2352  0.2679
 2095TIP3   OH227775   3.950   3.429   0.650 -0.1486 -0.2780  0.2689
 2095TIP3    H127776   3.991   3.442   0.564  1.4905  3.1510  1.3675
 2095TIP3    H227777   3.986   3.347   0.683  1.3356 -0.2553 -1.2024
 2096TIP3   OH227778   3.325   5.617   1.381  0.2434 -0.3168  0.1596
 2096TIP3    H127779   3.270   5.557   1.432  1.4004 -1.2400  0.3590
 2096TIP3    H227780   3.264   5.658   1.319 -0.6496 -1.3856  0.2891
 2097TIP3   OH227781   5.949   6.062   3.985  0.3209 -0.4778 -0.2070
 2097TIP3    H127782   6.038   6.029   4.002  0.7155  0.6453  0.0033
 2097TIP3    H227783   5.911   6.076   4.071  0.2569 -0.1387 -0.2887
 2098TIP3   OH227784   2.880   2.620  15.472  0.3995  0.2626  0.0158
 2098TIP3    H127785   2.959   2.591  15.425  1.1429 -0.3124  1.5251
 2098TIP3    H227786   2.914   2.672  15.545 -0.5939 -0.1655  0.8081
 2099TIP3   OH227787   1.503   3.346  15.203  0.3504  0.2972  0.2181
 2099TIP3    H127788   1.591   3.383  15.204  1.6194 -2.3925 -1.1563
 2099TIP3    H227789   1.511   3.264  15.253 -0.7870 -1.0778 -1.7236
 2100TIP3   OH227790   2.292   0.162  12.821  0.8113 -0.4047  0.4932
 2100TIP3    H127791   2.348   0.093  12.856  0.6678 -0.8055 -0.0452
 2100TIP3    H227792   2.319   0.171  12.730  1.1516  0.5941  0.6803
 2101TIP3   OH227793   2.159   0.857   4.620  0.1462  0.0645 -0.2610
 2101TIP3    H127794   2.157   0.820   4.708  1.4042 -1.5475 -0.8668
 2101TIP3    H227795   2.242   0.903   4.616  0.3152 -0.2811 -0.7597
 2102TIP3   OH227796   1.152   4.658  11.033  0.2004 -0.2426 -0.2583
 2102TIP3    H127797   1.134   4.564  11.028 -1.6493  0.1071 -0.5272
 2102TIP3    H227798   1.190   4.679  10.948  1.3111 -0.8597  0.0614
 2103TIP3   OH227799   0.033   2.630   1.100 -0.2689 -0.9057 -0.5319
 2103TIP3    H127800   0.020   2.540   1.071 -0.3190 -1.1387  0.1997
 2103TIP3    H227801   0.024   2.626   1.195 -1.8530  0.1400 -0.5941
 2104TIP3   OH227802   2.236   2.330  16.588  0.0149 -1.0188  0.2320
 2104TIP3    H127803   2.268   2.258  16.642  0.9238 -0.0644  1.0119
 2104TIP3    H227804   2.314   2.380  16.567 -0.6188 -0.1831 -0.1734
 2105TIP3   OH227805   2.787   1.029  14.671 -0.0423 -0.4114 -0.2547
 2105TIP3    H127806   2.757   1.120  14.668  1.4122  0.1217  0.5973
 2105TIP3    H227807   2.736   0.990  14.741 -1.1820 -0.4750 -1.0837
 2106TIP3   OH227808   1.954   5.673   6.528 -0.5856 -0.4278  1.0448
 2106TIP3    H127809   1.948   5.750   6.584 -0.0478  0.5374 -0.1900
 2106TIP3    H227810   2.023   5.693   6.465 -0.2787 -2.0148  0.8194
 2107TIP3   OH227811   0.208   2.466   4.055 -0.2376  0.0323  0.2773
 2107TIP3    H127812   0.149   2.394   4.077  0.3022 -0.1818  1.0680
 2107TIP3    H227813   0.205   2.471   3.959 -0.4451 -0.8967  0.2226
 2108TIP3   OH227814   2.329   3.750  16.344 -0.3961 -0.1252  0.2627
 2108TIP3    H127815   2.355   3.689  16.413 -0.5677 -0.0864  0.3627
 2108TIP3    H227816   2.262   3.806  16.385 -1.3646 -0.8557 -0.2824
 2109TIP3   OH227817   1.986   4.132   3.060 -0.1476  0.1188 -0.2331
 2109TIP3    H127818   1.922   4.144   3.130 -2.1396  0.5174 -2.0068
 2109TIP3    H227819   2.023   4.045   3.075 -2.2565 -0.7820  0.0141
 2110TIP3   OH227820   2.267   1.325   5.156 -0.2502  0.4783  0.1286
 2110TIP3    H127821   2.271   1.366   5.243  1.0294  0.9282 -0.1235
 2110TIP3    H227822   2.191   1.266   5.161  0.0892  0.1345  1.7055
 2111TIP3   OH227823   0.368   0.282  12.896 -0.0438 -0.7789 -0.9594
 2111TIP3    H127824   0.401   0.200  12.934 -0.1623 -1.2880 -1.9146
 2111TIP3    H227825   0.408   0.285  12.809  3.0966  2.1190  0.3826
 2112TIP3   OH227826   6.724   1.947   1.669  0.2487 -0.7833 -0.0490
 2112TIP3    H127827   6.632   1.929   1.687  0.0886  0.4165  0.4461
 2112TIP3    H227828   6.722   2.011   1.598  0.7761 -2.3275 -1.5072
 2113TIP3   OH227829   1.932   4.302  13.603 -0.0228 -0.0577  0.2883
 2113TIP3    H127830   1.867   4.363  13.568  0.3316  0.3023  0.2554
 2113TIP3    H227831   2.014   4.351  13.602 -0.0220  0.0415  1.7612
 2114TIP3   OH227832   1.287   3.214   1.961 -0.3912  0.0238 -0.1688
 2114TIP3    H127833   1.259   3.202   2.052 -0.2943  2.6232  0.3077
 2114TIP3    H227834   1.312   3.127   1.931  1.0822 -0.7069  2.8054
 2115TIP3   OH227835   1.080   1.999   5.278 -0.3129  0.0052 -0.5261
 2115TIP3    H127836   1.043   2.068   5.333  0.3139  0.5656 -0.7995
 2115TIP3    H227837   1.005   1.948   5.249 -0.6168 -0.6012  1.2501
 2116TIP3   OH227838   0.587   0.198   0.182 -1.0515  0.0718  0.7648
 2116TIP3    H127839   0.531   0.132   0.140 -0.4102 -0.9914  1.5483
 2116TIP3    H227840   0.676   0.173   0.159 -0.8347  1.2848  0.2062
 2117TIP3   OH227841   1.898   2.476  13.206  0.5292  0.5596 -0.0869
 2117TIP3    H127842   1.929   2.566  13.210  1.7649  0.1254  1.5144
 2117TIP3    H227843   1.903   2.445  13.297 -0.9371 -0.7764 -0.4135
 2118TIP3   OH227844   0.340   3.773  11.757 -0.0880  0.0298 -0.4540
 2118TIP3    H127845   0.375   3.732  11.678  0.7363  1.1784 -0.7041
 2118TIP3    H227846   0.247   3.751  11.756 -0.2681  0.6799 -2.1719
 2119TIP3   OH227847   1.581   4.919  15.375 -0.5900 -0.1255  0.1551
 2119TIP3    H127848   1.551   4.833  15.406 -0.0745 -0.3546  0.0254
 2119TIP3    H227849   1.531   4.934  15.295 -0.6388 -0.3306  0.1462
 2120TIP3   OH227850   1.384   5.441  14.949 -0.0976 -0.0152 -0.2301
 2120TIP3    H127851   1.464   5.494  14.949  0.3593 -0.6416  1.6323
 2120TIP3    H227852   1.335   5.472  14.873  0.4959  2.5461  0.3449
 2121TIP3   OH227853   0.854   3.993   1.318 -0.0786 -1.1746 -0.2668
 2121TIP3    H127854   0.936   4.041   1.304  0.3172 -1.3253  1.3788
 2121TIP3    H227855   0.831   3.959   1.231  0.5790  0.4689 -1.1243
 2122TIP3   OH227856   5.233   5.640   3.832  0.1708 -0.5557 -0.0313
 2122TIP3    H127857   5.269   5.710   3.778  0.8645 -1.0568 -0.2360
 2122TIP3    H227858   5.195   5.685   3.908  1.3410  0.0030  0.2543
 2123TIP3   OH227859   6.688   3.482   5.672  0.3810  0.2409  0.8634
 2123TIP3    H127860   6.717   3.556   5.726 -0.6624  0.3746  1.2676
 2123TIP3    H227861   6.700   3.511   5.582  1.2534  0.3770  1.0174
 2124TIP3   OH227862   0.022   3.907  13.811  0.0403  0.1503 -0.6910
 2124TIP3    H127863  -0.036   3.831  13.817 -0.4140  0.4746 -0.9886
 2124TIP3    H227864  -0.023   3.976  13.860 -0.2382  0.6553 -1.6430
 2125TIP3   OH227865   0.052   6.553   5.897 -0.3998 -0.0332  0.5827
 2125TIP3    H127866   0.011   6.639   5.894  0.8157  0.5365 -1.1593
 2125TIP3    H227867   0.117   6.555   5.828 -0.0423 -2.2241  0.7854
 2126TIP3   OH227868   0.727   5.621   6.209  0.7803 -1.1636  0.1403
 2126TIP3    H127869   0.750   5.642   6.300 -1.1365  0.5074  0.3260
 2126TIP3    H227870   0.716   5.526   6.208 -2.9738 -0.9821  2.7544
 2127TIP3   OH227871   4.504   5.634   2.765  0.0071  0.3049 -0.2444
 2127TIP3    H127872   4.427   5.619   2.821  0.5683 -0.7176  0.2860
 2127TIP3    H227873   4.540   5.717   2.795  0.7817 -0.6217  1.5375
 2128TIP3   OH227874   1.306   1.384  12.764  0.0601 -0.1821  0.1553
 2128TIP3    H127875   1.363   1.401  12.689 -1.0964 -1.6113 -1.1255
 2128TIP3    H227876   1.271   1.296  12.748  0.5751 -0.9906  2.9348
 2129TIP3   OH227877   2.416   0.955   5.970 -0.0772  0.3878 -0.2059
 2129TIP3    H127878   2.475   0.998   5.908 -0.4718  0.1049 -0.7957
 2129TIP3    H227879   2.446   0.984   6.056  0.8929  0.2848 -0.4921
 2130TIP3   OH227880   0.049   0.137   2.649  0.6767  0.4788  0.3489
 2130TIP3    H127881  -0.015   0.200   2.615 -0.1085 -1.4824 -2.0899
 2130TIP3    H227882  -0.001   0.084   2.712  0.8300  1.0741  0.9780
 2131TIP3   OH227883   2.690   0.997   3.138  0.2433 -0.2951 -0.3608
 2131TIP3    H127884   2.604   0.986   3.180  0.1013  1.2940 -0.1841
 2131TIP3    H227885   2.679   1.074   3.082  1.6269  0.0835 -0.1325
 2132TIP3   OH227886   3.637   1.342   4.062 -0.1005  0.9317 -0.7131
 2132TIP3    H127887   3.722   1.329   4.020  0.2132  3.0501 -0.8083
 2132TIP3    H227888   3.658   1.368   4.151 -0.7537 -1.8550  0.3754
 2133TIP3   OH227889   2.213   1.191   3.438 -0.1010 -0.0474 -0.3860
 2133TIP3    H127890   2.218   1.287   3.435 -0.1900 -0.0540 -0.7636
 2133TIP3    H227891   2.247   1.168   3.524  0.9421  0.2598 -0.7044
 2134TIP3   OH227892   3.532   5.714  13.163 -0.5723  0.5053  0.1518
 2134TIP3    H127893   3.567   5.736  13.249 -0.0986 -1.0578  0.3872
 2134TIP3    H227894   3.569   5.779  13.104  3.8719 -1.6796  0.1434
 2135TIP3   OH227895   3.714   6.166  16.705 -0.1130 -0.4228  0.4533
 2135TIP3    H127896   3.757   6.088  16.742 -0.3499 -0.8475 -0.1511
 2135TIP3    H227897   3.772   6.238  16.729  1.6732 -1.1280 -1.4354
 2136TIP3   OH227898   2.569   1.744  16.047  0.6096  0.1821 -0.0716
 2136TIP3    H127899   2.652   1.767  16.007  0.3796  1.5519  0.1982
 2136TIP3    H227900   2.510   1.728  15.974  0.8958 -0.0255 -0.2595
 2137TIP3   OH227901   4.142   0.719   0.338  0.2233 -0.5368 -0.2083
 2137TIP3    H127902   4.069   0.722   0.275  0.3634 -2.2620 -0.5042
 2137TIP3    H227903   4.107   0.763   0.415 -0.7336 -0.3097 -0.7413
 2138TIP3   OH227904   2.348   3.737   3.073 -0.0570 -0.1284 -0.7033
 2138TIP3    H127905   2.403   3.743   3.151 -0.4626  0.0222 -0.4206
 2138TIP3    H227906   2.387   3.667   3.021  0.8929  0.5405 -0.9126
 2139TIP3   OH227907   2.016   5.251  16.249 -0.6201  0.1277  0.5554
 2139TIP3    H127908   2.071   5.197  16.305 -1.5333  0.0964  1.4384
 2139TIP3    H227909   2.027   5.214  16.161 -1.0830 -1.3522  1.1109
 2140TIP3   OH227910   4.739   3.813  16.109  0.1674 -0.1709 -0.2417
 2140TIP3    H127911   4.821   3.862  16.120 -0.5040  0.9245  0.0185
 2140TIP3    H227912   4.714   3.788  16.197  1.4100 -2.6131 -0.4753
 2141TIP3   OH227913   6.408   1.866   6.286 -0.3500 -0.0432 -1.0535
 2141TIP3    H127914   6.503   1.858   6.292 -0.2509  1.3042 -0.3669
 2141TIP3    H227915   6.380   1.892   6.374 -1.3760 -0.5654 -1.2081
 2142TIP3   OH227916   2.220   2.646   1.355 -0.9625 -0.0030 -0.1663
 2142TIP3    H127917   2.257   2.631   1.268 -0.4915 -0.1382  0.0572
 2142TIP3    H227918   2.204   2.559   1.390  0.0975  0.0244  0.4132
 2143TIP3   OH227919   2.612   0.246  16.163 -0.5075 -0.1576 -0.4940
 2143TIP3    H127920   2.549   0.179  16.190  0.3118 -1.5121 -1.8081
 2143TIP3    H227921   2.620   0.234  16.068 -0.0763  1.5968 -0.7097
 2144TIP3   OH227922   5.709   3.003   2.764  0.2321 -0.1169 -0.3576
 2144TIP3    H127923   5.706   3.051   2.846  1.1747 -1.1549  0.2985
 2144TIP3    H227924   5.740   2.916   2.787 -0.2472 -0.6787 -1.7000
 2145TIP3   OH227925   2.293   0.784  13.163  0.0234 -0.2619 -0.1543
 2145TIP3    H127926   2.309   0.831  13.245  2.5041  0.3348 -0.8864
 2145TIP3    H227927   2.211   0.821  13.130 -1.6232 -1.2754  2.5015
 2146TIP3   OH227928   1.081   5.488  15.575  0.4864 -0.1876 -0.4149
 2146TIP3    H127929   1.160   5.435  15.566  1.5331  1.3441 -0.4848
 2146TIP3    H227930   1.052   5.472  15.665  1.3199 -0.1612 -0.1329
 2147TIP3   OH227931   4.774   0.314  11.719 -0.0300 -0.3389 -0.5126
 2147TIP3    H127932   4.684   0.342  11.738  0.6543  0.8463  1.1554
 2147TIP3    H227933   4.786   0.335  11.626 -0.6680  1.8867 -0.1447
 2148TIP3   OH227934   5.345   6.649  14.491 -0.3006 -0.6190 -0.4454
 2148TIP3    H127935   5.255   6.664  14.517 -0.6860 -1.8025 -1.0135
 2148TIP3    H227936   5.382   6.595  14.561  0.9676  2.4167  1.4098
 2149TIP3   OH227937   3.289   4.332   2.790 -0.1661  0.7731  0.1060
 2149TIP3    H127938   3.194   4.324   2.782  0.0588 -2.0174 -0.8549
 2149TIP3    H227939   3.304   4.343   2.884 -1.4155  0.5428  0.3572
 2150TIP3   OH227940   1.398   3.766  16.294 -0.6240  0.7269 -0.1811
 2150TIP3    H127941   1.328   3.799  16.351  0.4551  0.5714  1.2785
 2150TIP3    H227942   1.366   3.681  16.264 -0.8333  0.3729  0.9733
 2151TIP3   OH227943   2.038   0.818   0.012 -0.1318  0.8700 -0.1012
 2151TIP3    H127944   1.987   0.868  -0.051 -1.1007  0.3043  0.2225
 2151TIP3    H227945   2.045   0.875   0.088 -0.2901  0.9435 -0.1420
 2152TIP3   OH227946   0.661   3.397  14.725  0.2263 -0.0947  0.3058
 2152TIP3    H127947   0.640   3.335  14.655 -1.8425  0.7825  0.0665
 2152TIP3    H227948   0.633   3.352  14.805  2.2014 -0.9256  0.5881
 2153TIP3   OH227949   5.796   3.003  12.993  0.1088  0.0202 -0.4066
 2153TIP3    H127950   5.840   2.998  13.079 -1.8683 -1.0297  0.6090
 2153TIP3    H227951   5.832   3.083  12.953  0.7712  0.7951  1.5727
 2154TIP3   OH227952   5.468   5.945  15.119  0.0756 -0.0888 -0.0386
 2154TIP3    H127953   5.425   6.023  15.156  1.1227  0.1774  0.6701
 2154TIP3    H227954   5.558   5.951  15.151  1.2213  0.4407 -3.0609
 2155TIP3   OH227955   1.352   4.587  15.798 -0.3047  0.2972 -0.0463
 2155TIP3    H127956   1.309   4.600  15.714  0.1346  2.8499  0.0538
 2155TIP3    H227957   1.446   4.589  15.777 -0.1945  0.9066  0.4958
 2156TIP3   OH227958   0.807   4.319  13.135 -0.1157  0.0843 -0.5572
 2156TIP3    H127959   0.787   4.410  13.159  0.5293 -0.2269  1.3664
 2156TIP3    H227960   0.722   4.282  13.111 -0.5780  0.8915 -0.2273
 2157TIP3   OH227961   6.036   6.708  16.151  0.2498  0.5182  0.3252
 2157TIP3    H127962   6.072   6.657  16.223  1.5335 -1.3768 -1.5139
 2157TIP3    H227963   5.992   6.782  16.192  0.9182 -0.4817  3.0005
 2158TIP3   OH227964   5.408   0.335  15.844  0.0676 -0.1116  0.2554
 2158TIP3    H127965   5.375   0.400  15.782 -0.0015 -0.8748 -0.5212
 2158TIP3    H227966   5.362   0.356  15.926  0.8794  1.5066  0.3508
 2159TIP3   OH227967   3.780   4.797  10.205  0.6068 -0.6437  0.5626
 2159TIP3    H127968   3.739   4.732  10.262  1.5782 -1.8364 -0.0459
 2159TIP3    H227969   3.846   4.840  10.261 -1.6401  1.6082  1.6796
 2160TIP3   OH227970   4.400   1.554   6.176 -0.6891  0.8531  0.2842
 2160TIP3    H127971   4.307   1.535   6.174 -1.3668  3.6962 -2.1743
 2160TIP3    H227972   4.407   1.634   6.230  0.1189  1.3880 -0.5788
 2161TIP3   OH227973   0.316   4.735   2.926  0.1170 -0.1974  0.0234
 2161TIP3    H127974   0.255   4.703   2.993 -0.8602 -0.0293 -0.7612
 2161TIP3    H227975   0.297   4.829   2.920 -0.4974 -0.3857 -1.1738
 2162TIP3   OH227976   0.002   5.094  15.090 -0.2158 -0.3551  0.3141
 2162TIP3    H127977  -0.074   5.037  15.098  0.5917 -1.2798  1.9416
 2162TIP3    H227978  -0.023   5.175  15.135 -0.7465 -0.0863 -0.4553
 2163TIP3   OH227979   4.210   4.790  16.262 -0.3735 -0.0506  0.3523
 2163TIP3    H127980   4.196   4.858  16.196  1.2313  1.9286  1.9333
 2163TIP3    H227981   4.295   4.811  16.301 -0.6877 -1.8838  2.1970
 2164TIP3   OH227982   4.543   0.268  17.077 -0.4532 -0.1044 -0.0664
 2164TIP3    H127983   4.515   0.237  17.164 -1.1892 -0.6927 -0.5017
 2164TIP3    H227984   4.462   0.290  17.032  0.0262  3.2296  0.4518
 2165TIP3   OH227985   6.627   6.376  10.442 -0.9665  0.4038  0.3082
 2165TIP3    H127986   6.631   6.331  10.527 -1.1219  0.4739  0.3536
 2165TIP3    H227987   6.545   6.346  10.403  0.7933 -2.5702 -1.4761
 2166TIP3   OH227988   3.120   3.092   0.830  0.2272 -0.8406  0.6977
 2166TIP3    H127989   3.051   3.132   0.884  0.6299  1.0938 -0.1391
 2166TIP3    H227990   3.081   3.010   0.799 -1.6143  0.0450  0.5070
 2167TIP3   OH227991   2.361   0.716  15.929  0.2978  0.7206  0.5684
 2167TIP3    H127992   2.339   0.645  15.869  0.6971  0.2698  0.9469
 2167TIP3    H227993   2.331   0.795  15.885 -1.9359  0.1624  0.9915
 2168TIP3   OH227994   5.448   2.691   0.011  0.3218  0.2881  0.7175
 2168TIP3    H127995   5.385   2.695   0.082  0.0864 -1.2732  0.6329
 2168TIP3    H227996   5.414   2.624  -0.048  0.9232  0.9903 -0.4614
 2169TIP3   OH227997   5.103   3.180   2.374  0.4394  0.1380  1.0260
 2169TIP3    H127998   5.089   3.122   2.449 -1.5582 -0.2062  0.4472
 2169TIP3    H227999   5.163   3.131   2.317 -1.8433 -1.8497  0.1507
 2170TIP3   OH228000   4.558   6.745   2.713 -0.3197  0.5201  0.2298
 2170TIP3    H128001   4.592   6.741   2.802  0.3692  0.2166 -0.0435
 2170TIP3    H228002   4.478   6.691   2.716  0.9662 -1.5191  0.1220
 2171TIP3   OH228003   1.447   5.538  16.640  0.2064  0.4787  0.5390
 2171TIP3    H128004   1.399   5.472  16.690  0.4052 -1.9528 -2.2020
 2171TIP3    H228005   1.380   5.580  16.585  0.4241  1.0749  0.7171
 2172TIP3   OH228006   5.392   5.317   2.967  0.6012 -0.0604  0.2782
 2172TIP3    H128007   5.302   5.319   2.936  0.4655 -0.6313  0.6332
 2172TIP3    H228008   5.407   5.227   2.994  0.5666  0.5086  2.3383
 2173TIP3   OH228009   5.581   5.356  13.363 -0.3825  1.0543  0.4162
 2173TIP3    H128010   5.635   5.429  13.333 -0.7190  0.9695 -0.4376
 2173TIP3    H228011   5.498   5.395  13.387 -0.2731  1.0610  0.7831
 2174TIP3   OH228012   4.768   0.124   3.004 -0.6553  0.0719 -0.2967
 2174TIP3    H128013   4.855   0.161   3.018 -1.5270  2.0815  0.1988
 2174TIP3    H228014   4.712   0.172   3.065 -2.2496 -0.6308 -1.1506
 2175TIP3   OH228015   2.418   0.050   5.067 -0.0409 -0.1819 -0.1247
 2175TIP3    H128016   2.488   0.016   5.011 -0.9648 -1.3031 -0.6602
 2175TIP3    H228017   2.341   0.051   5.010 -0.6404  0.2382  0.6716
 2176TIP3   OH228018   3.391   1.080  13.007 -0.3879 -0.3088 -0.0287
 2176TIP3    H128019   3.367   1.150  13.068  1.0778  0.0898  0.1202
 2176TIP3    H228020   3.436   1.125  12.935 -0.2725 -0.9936 -0.3915
 2177TIP3   OH228021   3.291   0.736   3.994  0.5686  0.4603 -0.7814
 2177TIP3    H128022   3.202   0.706   3.981  0.2921  0.4949  0.7939
 2177TIP3    H228023   3.323   0.758   3.907 -1.2341  1.2352 -1.2836
 2178TIP3   OH228024   6.370   3.787  14.813  0.6824 -0.2110  1.1096
 2178TIP3    H128025   6.322   3.863  14.848  0.2459  0.2445 -0.3985
 2178TIP3    H228026   6.412   3.748  14.890 -2.2741 -0.7757  2.6117
 2179TIP3   OH228027   1.517   4.781   4.386  0.3876  0.1636  0.3193
 2179TIP3    H128028   1.491   4.787   4.295  0.0725  0.4314  0.4258
 2179TIP3    H228029   1.465   4.848   4.431  1.6126  1.0702  0.4461
 2180TIP3   OH228030   3.535   6.510   0.681  0.5183 -0.1498  0.0578
 2180TIP3    H128031   3.457   6.456   0.689  1.6125 -1.7874  0.2425
 2180TIP3    H228032   3.602   6.451   0.647  2.5217  0.2940  2.8197
 2181TIP3   OH228033   6.651   0.594  11.911 -0.3069 -0.2012 -0.0555
 2181TIP3    H128034   6.604   0.510  11.915  0.4793 -0.6827 -0.6639
 2181TIP3    H228035   6.657   0.613  11.818 -0.8228  0.7401  0.0941
 2182TIP3   OH228036   6.337   3.889   2.753  0.4930 -0.1317 -0.1987
 2182TIP3    H128037   6.257   3.889   2.805  0.6119  2.8942  0.1860
 2182TIP3    H228038   6.355   3.797   2.735 -1.9788 -0.9986  1.3542
 2183TIP3   OH228039   0.265   5.167  16.843  0.2701 -0.4553  0.6352
 2183TIP3    H128040   0.315   5.121  16.909 -0.6286 -1.3416  0.7140
 2183TIP3    H228041   0.181   5.186  16.884  0.0641 -0.1165  0.0825
 2184TIP3   OH228042   5.580   2.946   5.709  0.2319 -0.1532 -0.4008
 2184TIP3    H128043   5.549   2.901   5.787 -2.6299 -0.7519 -1.7317
 2184TIP3    H228044   5.622   2.878   5.656  0.8450 -0.0557 -0.0487
 2185TIP3   OH228045   5.703   3.422   1.871 -0.2833 -0.9062  0.0465
 2185TIP3    H128046   5.726   3.385   1.785 -1.0257 -0.9781 -0.1350
 2185TIP3    H228047   5.634   3.363   1.903 -0.3788 -0.5686  0.4544
 2186TIP3   OH228048   1.536   4.124  11.001 -0.3130 -0.1287 -0.6169
 2186TIP3    H128049   1.472   4.071  10.954 -0.3341  1.4700 -2.5211
 2186TIP3    H228050   1.611   4.066  11.013 -1.5114 -1.5572  0.3123
 2187TIP3   OH228051   0.767   0.485   0.378  0.1952  0.9018  0.0706
 2187TIP3    H128052   0.724   0.401   0.389  1.4671  0.4082  1.7801
 2187TIP3    H228053   0.702   0.541   0.336 -1.3816 -0.3442  0.7763
 2188TIP3   OH228054   3.320   0.577  11.582  0.3274 -0.3295  0.4679
 2188TIP3    H128055   3.256   0.646  11.565 -0.1755 -1.1406 -1.1329
 2188TIP3    H228056   3.384   0.586  11.511 -0.3352 -2.1460 -0.4313
 2189TIP3   OH228057   6.152   1.521  14.215  0.8020 -0.2140  0.8359
 2189TIP3    H128058   6.096   1.553  14.286  0.4104  1.4051 -0.1494
 2189TIP3    H228059   6.228   1.484  14.259 -0.5441 -1.5330  2.1745
 2190TIP3   OH228060   3.447   5.884  13.736  0.0092 -0.0319  0.2201
 2190TIP3    H128061   3.476   5.900  13.826  1.1118  3.2252 -0.5996
 2190TIP3    H228062   3.351   5.886  13.741 -0.0865 -2.6816  1.6429
 2191TIP3   OH228063   6.779   6.344  15.639 -0.2129 -0.1482 -0.1564
 2191TIP3    H128064   6.829   6.336  15.558 -0.0753 -1.2819  0.0212
 2191TIP3    H228065   6.690   6.315  15.615 -0.7066  1.4424 -0.3684
 2192TIP3   OH228066   5.418   5.495  13.977  0.0585 -0.0107 -0.1758
 2192TIP3    H128067   5.414   5.563  14.044 -1.9771 -1.3669  1.1844
 2192TIP3    H228068   5.489   5.438  14.005 -0.3342 -0.1904  0.4720
 2193TIP3   OH228069   1.889   5.318  13.155 -0.0969  0.1744 -0.0041
 2193TIP3    H128070   1.876   5.289  13.065  0.5840 -1.6565  0.4376
 2193TIP3    H228071   1.850   5.249  13.208 -0.1832  1.0561  1.1174
 2194TIP3   OH228072   1.584   2.582  15.803 -0.1926  0.1523 -0.2096
 2194TIP3    H128073   1.668   2.571  15.759  0.3261 -1.2385  1.0261
 2194TIP3    H228074   1.608   2.614  15.891 -1.0407  0.8126 -0.2119
 2195TIP3   OH228075   6.769   6.166   0.215 -0.1837 -0.4004 -0.2942
 2195TIP3    H128076   6.720   6.210   0.145  0.0959 -1.2964 -1.0825
 2195TIP3    H228077   6.737   6.206   0.296 -0.4630  0.7154 -0.9336
 2196TIP3   OH228078   5.226   1.369  15.890 -0.4777 -0.3553 -0.0365
 2196TIP3    H128079   5.230   1.335  15.801 -1.3406 -1.0287  0.1562
 2196TIP3    H228080   5.150   1.427  15.890 -1.9837 -2.1948  0.7999
 2197TIP3   OH228081   6.532   0.611  17.287  0.5954  0.4330 -0.0907
 2197TIP3    H128082   6.479   0.678  17.330 -0.1730  0.1234 -0.5374
 2197TIP3    H228083   6.481   0.585  17.210  1.3659  0.0832 -0.5031
 2198TIP3   OH228084   4.249   0.003  14.420  0.5310 -0.4287 -0.0117
 2198TIP3    H128085   4.259   0.017  14.326 -0.4164 -1.8310 -0.3439
 2198TIP3    H228086   4.264   0.089  14.459 -2.2655  0.9602 -1.6927
 2199TIP3   OH228087   2.474   2.969  11.136  0.2275  0.3956  0.1706
 2199TIP3    H128088   2.535   2.961  11.063 -0.5793 -0.8033 -0.3982
 2199TIP3    H228089   2.395   2.923  11.107 -0.3920  0.5714  1.4951
 2200TIP3   OH228090   5.663   6.685   2.281  0.0855  0.0036  0.1640
 2200TIP3    H128091   5.705   6.599   2.291  0.7053  0.2754 -0.0581
 2200TIP3    H228092   5.571   6.669   2.304  0.5827 -0.2754  2.2096
 2201TIP3   OH228093   3.735   6.211  14.942  0.0598 -0.0050 -0.3330
 2201TIP3    H128094   3.697   6.136  14.896 -0.0181 -0.5568  0.6134
 2201TIP3    H228095   3.822   6.182  14.968  0.7714  0.8942 -1.5727
 2202TIP3   OH228096   1.974   4.792   1.646 -0.5726  0.5924  0.2991
 2202TIP3    H128097   1.899   4.806   1.588  0.2284  0.6358 -0.7437
 2202TIP3    H228098   2.038   4.747   1.591 -0.0157  0.1245  1.3189
 2203TIP3   OH228099   5.519   2.798  15.330 -0.3497 -0.2131  0.7979
 2203TIP3    H128100   5.543   2.705  15.327  0.9262  0.0993  0.8635
 2203TIP3    H228101   5.426   2.799  15.308 -0.5709 -1.5747  1.5544
 2204TIP3   OH228102   1.537   5.234   4.450  0.4217 -0.5358 -0.0338
 2204TIP3    H128103   1.628   5.221   4.475  0.7484 -0.0948 -0.9415
 2204TIP3    H228104   1.535   5.320   4.409 -0.3530 -0.6464 -0.2516
 2205TIP3   OH228105   1.658   0.941  13.207 -0.4473 -0.5303 -0.0192
 2205TIP3    H128106   1.725   0.873  13.220  1.3676  0.9867 -0.8900
 2205TIP3    H228107   1.639   0.938  13.113 -1.1312 -0.5284  0.1188
 2206TIP3   OH228108   4.170   3.824   2.358  0.2875  0.7499 -0.4595
 2206TIP3    H128109   4.161   3.866   2.272  1.6838  3.1486  0.4958
 2206TIP3    H228110   4.189   3.895   2.418  1.1706 -1.0774  1.5546
 2207TIP3   OH228111   4.340   3.627  12.815 -0.0679  0.1798  0.1332
 2207TIP3    H128112   4.358   3.720  12.832 -3.7133  1.2328 -0.9047
 2207TIP3    H228113   4.315   3.624  12.723 -0.2900 -1.8090  0.2177
 2208TIP3   OH228114   3.030   6.733   6.492  0.3107 -0.1659 -0.1359
 2208TIP3    H128115   3.076   6.817   6.487  1.6785 -0.5962  2.7282
 2208TIP3    H228116   2.966   6.745   6.563  0.4504 -1.4739  0.2439
 2209TIP3   OH228117   5.795   1.238  15.390 -0.2612 -0.2958 -0.2920
 2209TIP3    H128118   5.721   1.288  15.425  0.2621  0.0385  0.3459
 2209TIP3    H228119   5.869   1.299  15.394  0.3436 -1.0566  0.3207
 2210TIP3   OH228120   5.885   2.711  15.475 -0.1580 -0.0147 -0.4793
 2210TIP3    H128121   5.967   2.741  15.514 -0.4111  0.7336 -0.5162
 2210TIP3    H228122   5.868   2.772  15.404 -1.2119  0.3888  0.1050
 2211TIP3   OH228123   1.106   1.173  11.402 -0.3034 -0.2581  0.2705
 2211TIP3    H128124   1.051   1.245  11.372 -1.8277 -0.4132  2.4083
 2211TIP3    H228125   1.050   1.124  11.462  1.1443 -2.4167 -0.0240
 2212TIP3   OH228126   1.495   1.145   1.099  0.4222 -0.0044  0.5522
 2212TIP3    H128127   1.433   1.164   1.029 -1.3477  0.6907  2.1812
 2212TIP3    H228128   1.572   1.108   1.056 -1.4345 -1.6923 -1.5093
 2213TIP3   OH228129   5.092   5.292  11.873  0.3009 -0.2477 -0.2449
 2213TIP3    H128130   5.029   5.286  11.802  0.4288  0.1033 -0.3902
 2213TIP3    H228131   5.172   5.252  11.838  0.6988  0.9106 -0.6909
 2214TIP3   OH228132   1.861   4.487   2.105  0.3844 -0.2852  0.2657
 2214TIP3    H128133   1.937   4.438   2.074  0.2925 -1.1058  1.2749
 2214TIP3    H228134   1.788   4.425   2.098 -0.1204  0.3495 -0.2653
 2215TIP3   OH228135   4.469   5.677   1.627 -0.1904  0.0465 -0.7808
 2215TIP3    H128136   4.399   5.641   1.680 -0.3125  0.2692 -0.7896
 2215TIP3    H228137   4.515   5.600   1.592 -0.6200 -0.1027 -1.0301
 2216TIP3   OH228138   3.706   5.554   4.557 -0.0288 -0.3227  0.4482
 2216TIP3    H128139   3.711   5.553   4.653 -0.3096 -0.8407  0.4612
 2216TIP3    H228140   3.740   5.640   4.532 -1.0832  0.2941  1.0701
 2217TIP3   OH228141   3.086   5.549   5.677  0.2734  0.0063 -0.3327
 2217TIP3    H128142   3.115   5.604   5.749  1.5480 -1.2534  0.1556
 2217TIP3    H228143   3.034   5.480   5.718  2.4013 -1.7007 -0.3293
 2218TIP3   OH228144   3.675   3.749  16.375  0.1671  0.3666 -0.0480
 2218TIP3    H128145   3.583   3.753  16.350 -0.0587  1.4551  0.8644
 2218TIP3    H228146   3.679   3.676  16.438  0.1065 -0.2271 -0.7175
 2219TIP3   OH228147   2.399   4.184  16.935 -0.0633  0.1457  0.1449
 2219TIP3    H128148   2.486   4.218  16.954 -0.1609  0.1332  0.6312
 2219TIP3    H228149   2.348   4.205  17.012 -0.0720 -1.2758  0.5638
 2220TIP3   OH228150   2.810   4.157  15.407  0.1382 -0.0139 -0.1708
 2220TIP3    H128151   2.883   4.129  15.352  1.7632  1.7603  0.9161
 2220TIP3    H228152   2.835   4.129  15.496  0.1455  1.6785  0.3993
 2221TIP3   OH228153   2.226   4.975  13.566  0.0064 -0.2223 -0.1077
 2221TIP3    H128154   2.260   4.958  13.655 -1.6757  0.7003  0.7542
 2221TIP3    H228155   2.204   4.888  13.533  1.4443 -0.6576  0.0304
 2222TIP3   OH228156   0.086   6.682  12.984  0.6465 -0.1832  0.6369
 2222TIP3    H128157   0.125   6.606  13.027  1.2278 -1.1201 -1.4266
 2222TIP3    H228158   0.110   6.673  12.892  0.2111  2.1974  0.2102
 2223TIP3   OH228159   5.916   0.373  13.556  0.5288 -0.1725  0.3690
 2223TIP3    H128160   6.004   0.344  13.580  0.0606 -1.7684  0.2809
 2223TIP3    H228161   5.862   0.295  13.565 -1.1110  1.0394  1.4891
 2224TIP3   OH228162   6.045   4.261  13.458  0.1588 -0.5828  0.2806
 2224TIP3    H128163   6.137   4.270  13.483  0.1239 -1.4845  0.7765
 2224TIP3    H228164   6.031   4.329  13.392  2.3229 -3.1441 -3.1234
 2225TIP3   OH228165   6.602   4.852  13.985  0.0290 -0.3011  0.1847
 2225TIP3    H128166   6.668   4.851  13.915 -1.5741  0.7159 -1.4096
 2225TIP3    H228167   6.521   4.827  13.942 -1.0218  0.3648  1.6999
 2226TIP3   OH228168   4.575   4.286  11.411 -0.0456 -0.2683  0.4097
 2226TIP3    H128169   4.670   4.301  11.413  0.7748 -3.9740 -1.7731
 2226TIP3    H228170   4.544   4.341  11.339  0.5839  0.4167  0.6492
 2227TIP3   OH228171   4.567   3.298   0.392  0.1998 -0.1962 -0.0182
 2227TIP3    H128172   4.493   3.254   0.434 -0.5500  0.5313 -0.5363
 2227TIP3    H228173   4.644   3.250   0.421 -0.4858 -0.9974  0.4985
 2228TIP3   OH228174   5.133   1.257   0.074 -0.1832  0.0887 -0.1731
 2228TIP3    H128175   5.204   1.279   0.136 -0.3423  0.7663 -0.2161
 2228TIP3    H228176   5.068   1.212   0.127  0.5654 -1.1514 -0.2661
 2229TIP3   OH228177   3.388   1.497  13.956 -0.2845  0.0003 -0.5319
 2229TIP3    H128178   3.301   1.476  13.922  0.5271  0.9235 -3.4714
 2229TIP3    H228179   3.372   1.570  14.016 -1.7357 -1.3380  0.8187
 2230TIP3   OH228180   1.155   0.027  17.043  0.3400 -0.0341  0.1415
 2230TIP3    H128181   1.236  -0.022  17.055 -1.1137 -2.3445  1.1105
 2230TIP3    H228182   1.124   0.046  17.132  0.2461  1.6724 -0.2109
 2231TIP3   OH228183   5.136   2.798   1.070  0.5594  0.2810 -0.0562
 2231TIP3    H128184   5.203   2.866   1.073  0.8538  0.0524 -0.8720
 2231TIP3    H228185   5.117   2.788   0.976  2.5539 -2.6714 -0.2893
 2232TIP3   OH228186   5.806   3.901  12.527  0.2116 -0.0174 -0.2253
 2232TIP3    H128187   5.723   3.923  12.486  0.2359 -0.4562 -0.5161
 2232TIP3    H228188   5.811   3.806  12.522 -0.2495 -0.1761  1.7154
 2233TIP3   OH228189   4.452   1.417  11.194  0.4930  0.6688  0.6348
 2233TIP3    H128190   4.449   1.490  11.133 -1.5169  0.0286 -0.0989
 2233TIP3    H228191   4.511   1.354  11.152  0.6132  1.0090  0.2847
 2234TIP3   OH228192   1.655   6.321  16.373  0.2405  0.0044 -0.7788
 2234TIP3    H128193   1.565   6.328  16.406 -0.5125 -2.9716 -1.8172
 2234TIP3    H228194   1.671   6.403  16.326 -2.2205  0.3222 -1.1876
 2235TIP3   OH228195   6.718   6.301  12.520  0.3444  0.0204 -0.1006
 2235TIP3    H128196   6.665   6.272  12.445 -0.0518  0.9926 -0.2043
 2235TIP3    H228197   6.710   6.230  12.584 -1.0055  0.0954 -0.1603
 2236TIP3   OH228198   3.969   6.715   0.741 -0.2250  0.0484 -0.2805
 2236TIP3    H128199   3.965   6.776   0.814 -0.0046 -0.0686 -0.1683
 2236TIP3    H228200   3.885   6.725   0.696  0.3780  1.5048 -1.1336
 2237TIP3   OH228201   1.814   1.356  16.806 -0.1641  0.1225  0.4617
 2237TIP3    H128202   1.847   1.442  16.780 -0.1157 -0.0348 -0.0213
 2237TIP3    H228203   1.720   1.370  16.821 -0.2907  0.1353 -0.2633
 2238TIP3   OH228204   5.775   4.003   4.583  0.4028 -0.4061 -0.0082
 2238TIP3    H128205   5.692   3.985   4.626  1.0950 -0.2721  1.4179
 2238TIP3    H228206   5.750   4.054   4.505 -0.8644 -0.6701  0.1958
 2239TIP3   OH228207   4.170   6.221  12.741 -0.5642 -0.5483  0.6966
 2239TIP3    H128208   4.238   6.163  12.774 -0.8482 -0.6291  1.1520
 2239TIP3    H228209   4.174   6.213  12.646  0.9792  0.4747  0.6348
 2240TIP3   OH228210   2.294   3.117   5.882 -0.1609 -0.0970  0.0133
 2240TIP3    H128211   2.362   3.050   5.878 -1.1055 -1.1290  0.7762
 2240TIP3    H228212   2.215   3.070   5.910 -1.0073  1.2089 -0.0992
 2241TIP3   OH228213   5.206   1.250   0.792  0.8442  0.0555 -0.6801
 2241TIP3    H128214   5.134   1.280   0.848  1.4196  2.3991 -1.0944
 2241TIP3    H228215   5.176   1.166   0.757 -0.3003 -0.5816  1.6663
 2242TIP3   OH228216   4.422   4.828   0.240 -0.7943  0.8556 -0.1970
 2242TIP3    H128217   4.449   4.737   0.247 -0.0464  1.1771  2.3020
 2242TIP3    H228218   4.328   4.824   0.225 -0.6041 -0.3039 -1.2412
 2243TIP3   OH228219   6.044   5.826   0.265  0.1138  0.5018 -0.1306
 2243TIP3    H128220   5.966   5.785   0.303 -0.3155  1.3347 -0.1039
 2243TIP3    H228221   6.103   5.752   0.246  0.1280  0.0067  1.6451
 2244TIP3   OH228222   1.030   4.649   3.682 -0.0900  0.4400 -0.0207
 2244TIP3    H128223   1.009   4.651   3.775 -0.0571 -0.0205  0.0010
 2244TIP3    H228224   0.958   4.696   3.640 -0.2375  0.4268  0.2159
 2245TIP3   OH228225   2.007   1.151   5.882  1.0202  0.5225  0.1613
 2245TIP3    H128226   2.022   1.197   5.799  3.7499 -0.4446  0.0202
 2245TIP3    H228227   2.063   1.195   5.945  0.9045 -0.3243  0.8825
 2246TIP3   OH228228   3.969   6.064   5.251  0.1170 -0.5532  0.1895
 2246TIP3    H128229   3.916   6.000   5.203 -1.8989  1.3700 -0.2999
 2246TIP3    H228230   3.958   6.040   5.343 -0.6170 -0.8811  0.0198
 2247TIP3   OH228231   5.728   2.359  15.970 -0.5771  0.0359 -0.0151
 2247TIP3    H128232   5.780   2.293  15.924 -1.2074  0.3985 -1.2823
 2247TIP3    H228233   5.778   2.376  16.051  0.6680 -0.4540 -0.6467
 2248TIP3   OH228234   2.836   4.772   0.632  0.3458 -0.1649  0.2807
 2248TIP3    H128235   2.807   4.756   0.542 -1.7533  0.9047  0.7143
 2248TIP3    H228236   2.800   4.858   0.654  2.4307  0.4620  1.5255
 2249TIP3   OH228237   5.313   1.884   3.170  0.4746 -0.1566 -0.2705
 2249TIP3    H128238   5.361   1.914   3.093  0.1711 -1.4980 -1.0213
 2249TIP3    H228239   5.221   1.889   3.144  0.3245  0.2386  0.3328
 2250TIP3   OH228240   5.006   6.467   6.350 -1.4772 -0.1704  0.1807
 2250TIP3    H128241   4.971   6.405   6.415 -2.3298 -0.7392 -0.7913
 2250TIP3    H228242   4.997   6.552   6.392 -2.7984 -0.4387  0.4963
 2251TIP3   OH228243   5.279   0.013   6.140  0.0681 -0.1693  0.1782
 2251TIP3    H128244   5.311   0.068   6.211 -0.4437  1.7099 -0.9949
 2251TIP3    H228245   5.281   0.069   6.062 -0.0369 -1.9461 -1.1825
 2252TIP3   OH228246   6.041   4.749   3.210  0.3783 -0.0313  0.1539
 2252TIP3    H128247   6.003   4.692   3.143  2.8182 -0.4573 -1.0011
 2252TIP3    H228248   6.017   4.708   3.293 -2.9317  0.6402 -0.3602
 2253TIP3   OH228249   2.684   6.073   4.985 -0.0448 -0.2631 -0.1504
 2253TIP3    H128250   2.725   5.986   4.987  0.1528 -0.4502 -4.1646
 2253TIP3    H228251   2.605   6.060   4.932  0.4119  2.0977 -1.5359
 2254TIP3   OH228252   2.141   5.520  14.901  0.1469  0.2097  0.3717
 2254TIP3    H128253   2.110   5.590  14.958 -1.8126 -1.1719  1.0957
 2254TIP3    H228254   2.063   5.495  14.850  0.7275 -1.6115  0.3271
 2255TIP3   OH228255   4.126   6.089   2.290 -0.0239 -0.3155 -0.0632
 2255TIP3    H128256   4.178   6.157   2.248  0.6676 -1.2112 -0.7111
 2255TIP3    H228257   4.035   6.116   2.277  0.2589  1.1574  0.8898
 2256TIP3   OH228258   1.042   5.982   0.873 -0.0982  0.4027  0.0108
 2256TIP3    H128259   1.085   5.965   0.789 -1.6368 -0.6835 -0.6002
 2256TIP3    H228260   0.964   6.032   0.850 -0.0668  0.8897  0.9078
 2257TIP3   OH228261   3.084   1.815   1.146 -0.5030  0.1535  0.1708
 2257TIP3    H128262   3.094   1.790   1.238  0.3415  1.1213  0.3607
 2257TIP3    H228263   3.057   1.734   1.102 -1.7863 -0.1281  1.3978
 2258TIP3   OH228264   4.407   3.999   3.863 -0.2886  0.2295  0.0096
 2258TIP3    H128265   4.451   4.026   3.782 -2.7219 -0.4369 -1.6502
 2258TIP3    H228266   4.472   4.015   3.932  2.3795 -0.3653 -2.1750
 2259TIP3   OH228267   4.970   6.197  12.792  1.1917 -0.2252 -0.4997
 2259TIP3    H128268   5.048   6.242  12.759  2.0518 -1.0361  0.3497
 2259TIP3    H228269   4.928   6.161  12.714  0.4332  2.0555 -1.2109
 2260TIP3   OH228270   2.986   4.357  13.097 -1.3809  0.4542  0.1549
 2260TIP3    H128271   2.975   4.449  13.122 -0.1631  0.3730  1.0995
 2260TIP3    H228272   3.044   4.321  13.164 -1.2839 -0.8375 -0.5902
 2261TIP3   OH228273   1.706   6.277  11.479 -0.1233 -0.1366 -0.2321
 2261TIP3    H128274   1.744   6.196  11.513  0.4881  0.2110 -0.0640
 2261TIP3    H228275   1.664   6.251  11.397 -0.3335 -0.7085  0.0541
 2262TIP3   OH228276   3.332   0.678  15.498  0.6720  0.7269  0.2567
 2262TIP3    H128277   3.367   0.649  15.414  0.9235  1.3150  0.1552
 2262TIP3    H228278   3.310   0.770  15.484 -0.5196  0.4942  0.4406
 2263TIP3   OH228279   2.812   3.040  16.110  0.2252 -0.0883 -0.0296
 2263TIP3    H128280   2.757   2.961  16.104  1.0163 -0.6607  0.0159
 2263TIP3    H228281   2.814   3.074  16.021  1.3792 -1.1901 -0.4620
 2264TIP3   OH228282   6.816   0.456   4.870  0.2529  0.0080 -0.1251
 2264TIP3    H128283   6.765   0.472   4.950  0.2265 -0.3713 -0.0643
 2264TIP3    H228284   6.813   0.539   4.823  0.1850  0.2047  0.2231
 2265TIP3   OH228285   3.715   6.639  14.176 -0.4100  0.1510  0.5067
 2265TIP3    H128286   3.751   6.633  14.088 -1.4084  1.3239 -0.0063
 2265TIP3    H228287   3.791   6.633  14.234  0.2427 -0.7774 -0.4137
 2266TIP3   OH228288   1.595   1.383  14.308 -0.4548 -0.0923 -0.2728
 2266TIP3    H128289   1.606   1.458  14.249 -0.1491  0.7558  0.8346
 2266TIP3    H228290   1.675   1.332  14.296 -0.0723  0.4533 -0.0671
 2267TIP3   OH228291   5.974   5.435   1.488 -0.1714  0.0106 -0.3965
 2267TIP3    H128292   6.054   5.466   1.530  0.3520 -1.1604 -0.4794
 2267TIP3    H228293   5.915   5.416   1.561 -0.7314  1.7303 -0.3644
 2268TIP3   OH228294   1.300   1.679  11.689 -0.3659  0.7886  0.1698
 2268TIP3    H128295   1.227   1.727  11.649  0.1355  1.8778  0.5149
 2268TIP3    H228296   1.353   1.747  11.730 -0.1405 -0.1759  1.5165
 2269TIP3   OH228297   5.476   2.227  16.865 -0.0833  0.1353 -0.6870
 2269TIP3    H128298   5.526   2.201  16.943 -0.6934 -0.4578 -0.4810
 2269TIP3    H228299   5.536   2.283  16.816  0.6791 -0.3201 -0.3031
 2270TIP3   OH228300   0.681   1.071  14.010 -0.0570 -0.1700 -0.3219
 2270TIP3    H128301   0.657   1.002  14.072  0.0095 -1.0124 -1.2135
 2270TIP3    H228302   0.691   1.026  13.927  2.5449  0.4821 -0.4296
 2271TIP3   OH228303   6.432   6.102  14.771  0.2069 -0.0916  0.7385
 2271TIP3    H128304   6.423   6.182  14.823  0.8979 -1.1765  2.6266
 2271TIP3    H228305   6.526   6.096  14.753  0.4035 -1.2526  1.9828
 2272TIP3   OH228306   4.673   6.166  16.089 -0.0632  0.7835 -0.1049
 2272TIP3    H128307   4.632   6.245  16.055 -0.4030  0.5461 -0.2454
 2272TIP3    H228308   4.764   6.172  16.060 -0.0273  1.2423  0.0958
 2273TIP3   OH228309   1.111   0.548  11.032  0.1227  0.0693 -0.0396
 2273TIP3    H128310   1.151   0.604  10.965 -1.7802 -0.3396 -1.6226
 2273TIP3    H228311   1.146   0.461  11.015 -2.6053 -0.6938 -2.6802
 2274TIP3   OH228312   3.526   2.126  16.179 -0.1247  0.1847  0.2401
 2274TIP3    H128313   3.565   2.136  16.266 -0.0934  2.1938  0.0336
 2274TIP3    H228314   3.588   2.168  16.120 -1.1574  0.7304 -0.4840
 2275TIP3   OH228315   5.792   4.570   5.369 -0.4904  0.0793  0.3575
 2275TIP3    H128316   5.791   4.565   5.274  0.3698 -2.3009  0.4069
 2275TIP3    H228317   5.745   4.492   5.398  0.3016  0.1197  1.8746
 2276TIP3   OH228318   6.218   2.774   4.499 -0.0461  0.3563 -0.0121
 2276TIP3    H128319   6.157   2.706   4.525 -0.2822  0.7633  0.5008
 2276TIP3    H228320   6.167   2.833   4.443 -0.2157  0.8720  0.6765
 2277TIP3   OH228321   5.054   2.313  16.782  0.0638  0.1480  0.3289
 2277TIP3    H128322   5.126   2.269  16.736  0.6623  0.1538  1.2550
 2277TIP3    H228323   5.096   2.376  16.839 -0.6858  0.2603  0.7728
 2278TIP3   OH228324   5.246   0.985  15.779 -0.3314  0.0529  0.3065
 2278TIP3    H128325   5.199   1.044  15.837 -1.7839 -2.0716  1.3903
 2278TIP3    H228326   5.305   1.042  15.730 -0.2795  2.1506  2.6250
 2279TIP3   OH228327   2.819   3.800  13.092  0.1420  0.2554 -0.1689
 2279TIP3    H128328   2.729   3.818  13.065 -0.3929 -0.3865  1.0786
 2279TIP3    H228329   2.813   3.720  13.144  1.1887  1.0645  1.2716
 2280TIP3   OH228330   0.997   1.516   3.437  0.6997 -0.0915  0.2825
 2280TIP3    H128331   1.039   1.464   3.505  1.6060 -0.3421 -0.4545
 2280TIP3    H228332   1.044   1.494   3.357  1.1947  1.9219 -0.0423
 2281TIP3   OH228333   2.904   1.594   0.442 -0.0558  0.1782  0.2461
 2281TIP3    H128334   2.978   1.580   0.500  1.5464 -0.0897 -1.7645
 2281TIP3    H228335   2.845   1.520   0.459 -0.4411  0.9598  2.6210
 2282TIP3   OH228336   5.389   6.727   5.765  0.0740 -0.2981 -0.6899
 2282TIP3    H128337   5.309   6.674   5.764  1.5789 -2.8817  1.4860
 2282TIP3    H228338   5.363   6.810   5.803 -1.2695 -1.9190  2.3146
 2283TIP3   OH228339   5.670   5.745  15.314  0.1839 -0.1174 -0.8532
 2283TIP3    H128340   5.651   5.829  15.354 -0.8611 -0.5479 -0.4035
 2283TIP3    H228341   5.706   5.766  15.228  0.7778  0.7871 -0.3939
 2284TIP3   OH228342   5.655   4.877  12.268 -0.5591 -0.0852  0.9919
 2284TIP3    H128343   5.639   4.940  12.197 -1.4234 -1.2073  0.1427
 2284TIP3    H228344   5.606   4.912  12.342 -3.7199 -1.2237 -0.3391
 2285TIP3   OH228345   1.916   6.786  17.200  0.4594 -0.0911 -0.2950
 2285TIP3    H128346   1.845   6.787  17.136 -0.1357  1.1728  0.3606
 2285TIP3    H228347   1.949   6.696  17.197 -0.7762 -0.5445 -1.0340
 2286TIP3   OH228348   4.833   4.070  12.104  0.9115 -0.5223 -0.6627
 2286TIP3    H128349   4.875   4.014  12.169 -0.2331  0.5452  1.0922
 2286TIP3    H228350   4.862   4.159  12.126 -0.4698 -0.0085 -0.7871
 2287TIP3   OH228351   3.820   6.188   1.841  0.0319  0.6005 -0.3386
 2287TIP3    H128352   3.804   6.094   1.837 -0.7464  0.7252 -0.3869
 2287TIP3    H228353   3.841   6.213   1.751 -0.6513  0.6123 -0.5020
 2288TIP3   OH228354   1.674   3.063  12.150 -0.1237 -0.1322  0.1630
 2288TIP3    H128355   1.648   2.987  12.098 -1.5933 -0.0886  0.7836
 2288TIP3    H228356   1.759   3.038  12.187  1.7099  0.4243 -3.3273
 2289TIP3   OH228357   2.777   2.738  16.251  0.0819 -0.3534  0.0214
 2289TIP3    H128358   2.736   2.691  16.178 -0.0595 -2.2579  1.2684
 2289TIP3    H228359   2.847   2.680  16.281  0.6888  0.7795  0.8821
 2290TIP3   OH228360   2.950   0.107  15.810 -0.3151  0.1711  0.1823
 2290TIP3    H128361   2.889   0.128  15.740  0.3680 -0.2018 -0.5466
 2290TIP3    H228362   2.959   0.012  15.806 -0.2609  0.1491  0.7677
 2291TIP3   OH228363   5.135   0.561   3.589 -0.2903  0.0063  0.3349
 2291TIP3    H128364   5.147   0.483   3.643 -1.0763  0.3431  1.0261
 2291TIP3    H228365   5.047   0.552   3.553 -0.5795  0.7928  0.8117
 2292TIP3   OH228366   5.812   4.230  14.682  0.4878 -0.1284 -0.5068
 2292TIP3    H128367   5.791   4.144  14.720  0.4814  0.2340  0.3230
 2292TIP3    H228368   5.730   4.261  14.645  0.5564 -0.6044 -1.0759
 2293TIP3   OH228369   5.441   0.993   0.354 -0.4778 -0.4939 -0.7735
 2293TIP3    H128370   5.374   1.003   0.285 -1.3149 -1.8835 -0.1991
 2293TIP3    H228371   5.469   0.902   0.347  0.6677 -0.1777 -0.3684
 2294TIP3   OH228372   5.627   5.277  15.031  0.2386  0.3373  0.4203
 2294TIP3    H128373   5.540   5.250  15.063  0.6318 -0.7843  0.5944
 2294TIP3    H228374   5.635   5.368  15.059 -0.8379  0.4232  0.5041
 2295TIP3   OH228375   2.619   1.783   1.576  0.2455  0.2066 -0.4170
 2295TIP3    H128376   2.623   1.759   1.484 -0.5019 -2.5035  0.1589
 2295TIP3    H228377   2.560   1.719   1.615  1.7091  0.3184  2.2168
 2296TIP3   OH228378   2.121   0.331  12.965 -0.0379 -0.0104 -0.0697
 2296TIP3    H128379   2.172   0.409  12.944 -0.5198  0.1990 -0.4847
 2296TIP3    H228380   2.166   0.259  12.920  0.5701 -0.0266  0.5452
 2297TIP3   OH228381   3.891   1.697   1.104  0.3250  0.2466 -0.2879
 2297TIP3    H128382   3.868   1.790   1.103 -0.2744  0.0990 -0.3878
 2297TIP3    H228383   3.952   1.689   1.177  0.7197  0.7958 -0.5446
 2298TIP3   OH228384   5.295   2.712   1.493 -0.3636  0.3173  0.4415
 2298TIP3    H128385   5.242   2.730   1.570  0.4443  1.5218  0.7387
 2298TIP3    H228386   5.380   2.753   1.512  0.7853 -1.7958  0.0983
 2299TIP3   OH228387   6.245   0.028  14.645 -0.3156  0.0504 -0.4419
 2299TIP3    H128388   6.226  -0.027  14.569 -0.5462 -0.5885  0.0638
 2299TIP3    H228389   6.288  -0.032  14.707  1.0949  0.8746 -0.5827
 2300TIP3   OH228390   5.085   4.957  12.861  0.1144  0.0150  0.3301
 2300TIP3    H128391   5.070   4.970  12.767  1.3920 -0.3575  0.0639
 2300TIP3    H228392   5.011   4.903  12.889  1.0683 -2.1556 -1.0398
 2301TIP3   OH228393   5.263   5.238  16.744  0.5754 -0.4021 -0.4301
 2301TIP3    H128394   5.177   5.217  16.783  1.3953 -1.2595  1.0240
 2301TIP3    H228395   5.281   5.327  16.774  1.1314 -1.0023  1.0985
 2302TIP3   OH228396   4.845   6.224   3.250 -0.0374  0.0933 -0.0891
 2302TIP3    H128397   4.837   6.136   3.287 -1.6141 -0.1825 -0.9873
 2302TIP3    H228398   4.788   6.224   3.173  1.1168  1.4526 -1.0107
 2303TIP3   OH228399   5.358   3.376   3.109 -0.1412  0.4884 -0.2447
 2303TIP3    H128400   5.287   3.367   3.045  1.5921  0.7074 -2.3124
 2303TIP3    H228401   5.375   3.470   3.113  0.1966  0.4170  0.0486
 2304TIP3   OH228402   4.959   4.689   2.912  0.2592  0.5067 -0.0606
 2304TIP3    H128403   4.941   4.638   2.832 -0.9877  1.2303 -0.2613
 2304TIP3    H228404   4.873   4.710   2.947  0.7864  0.9459  1.0184
 2305TIP3   OH228405   5.079   1.090   2.167  0.6621  0.3482 -0.0839
 2305TIP3    H128406   5.106   1.050   2.249  0.7313 -2.2194 -1.2421
 2305TIP3    H228407   5.160   1.119   2.126  0.9444 -0.8366 -0.4031
 2306TIP3   OH228408   1.653   1.922  15.783  0.3177  0.1417 -0.4693
 2306TIP3    H128409   1.609   1.849  15.739 -1.7044  1.2467 -0.3807
 2306TIP3    H228410   1.668   1.890  15.872  0.8167 -0.6773 -0.8313
 2307TIP3   OH228411   0.070   4.768  12.307  0.4118 -0.3113 -0.1059
 2307TIP3    H128412  -0.019   4.785  12.274  0.6324  3.4839  0.8122
 2307TIP3    H228413   0.056   4.717  12.387 -0.6359 -2.4524 -1.5445
 2308TIP3   OH228414   6.363   1.478   2.890  0.2784 -0.0890 -0.0219
 2308TIP3    H128415   6.270   1.458   2.879  0.2650 -0.1820  0.2598
 2308TIP3    H228416   6.365   1.553   2.949  0.3008  1.2099 -1.5969
 2309TIP3   OH228417   2.751   6.008  12.425 -0.0876  0.3342  0.5321
 2309TIP3    H128418   2.726   5.929  12.378 -0.5304  1.6981 -1.6912
 2309TIP3    H228419   2.670   6.058  12.433  0.1363  0.5082  2.1114
 2310TIP3   OH228420   2.697   1.277   0.035  0.0479 -0.1729  0.1518
 2310TIP3    H128421   2.693   1.368   0.065 -0.2309  0.2296 -1.0480
 2310TIP3    H228422   2.785   1.268  -0.003  0.0351 -0.3624  0.1663
 2311TIP3   OH228423   5.604   3.936  16.720 -0.4038  0.2937  0.2110
 2311TIP3    H128424   5.592   4.020  16.676  4.1420  1.5310  0.8811
 2311TIP3    H228425   5.536   3.935  16.787 -0.6171  3.5033  0.1977
 2312TIP3   OH228426   2.358   6.492  14.616 -0.0556  0.2852 -0.2406
 2312TIP3    H128427   2.342   6.417  14.559  1.8095  0.0287 -0.4914
 2312TIP3    H228428   2.307   6.474  14.695  0.5833 -1.4185 -0.1706
 2313TIP3   OH228429   6.381   1.737   2.501  0.1295 -0.2931 -0.2166
 2313TIP3    H128430   6.407   1.734   2.409  1.4494 -0.9051  0.1542
 2313TIP3    H228431   6.461   1.758   2.548 -1.0452  2.7376  0.6262
 2314TIP3   OH228432   1.565   2.422   1.616  0.0299  0.0920 -0.8441
 2314TIP3    H128433   1.608   2.470   1.687  0.3835 -1.0851 -0.2440
 2314TIP3    H228434   1.475   2.409   1.646 -0.0395  0.2919 -0.9641
 2315TIP3   OH228435   1.962   3.091   0.884  0.1918 -0.2481  0.2185
 2315TIP3    H128436   2.028   3.049   0.828 -1.5903 -3.9379  0.5377
 2315TIP3    H228437   1.901   3.131   0.822  0.3928 -0.7234 -0.3027
 2316TIP3   OH228438   2.016   0.246   1.866  0.0468  0.2042  0.2038
 2316TIP3    H128439   1.958   0.279   1.797 -0.0087  0.6425  0.4566
 2316TIP3    H228440   1.976   0.163   1.894 -0.4205  0.4676  0.3286
 2317TIP3   OH228441   1.365   2.892  13.268 -0.0155  0.8610 -0.0086
 2317TIP3    H128442   1.416   2.952  13.324  1.0920 -0.4280  0.4058
 2317TIP3    H228443   1.416   2.811  13.267 -0.8078  0.3513 -1.6574
 2318TIP3   OH228444   4.854   4.495  11.172  0.3211 -0.1263  0.2736
 2318TIP3    H128445   4.786   4.562  11.159  1.5327  1.3030  1.0126
 2318TIP3    H228446   4.840   4.433  11.100 -1.3233  0.4916  0.0106
 2319TIP3   OH228447   2.218   1.002   5.002  0.0597  0.4724 -0.8594
 2319TIP3    H128448   2.212   1.076   4.941 -0.3105  1.7430  0.6719
 2319TIP3    H228449   2.311   0.982   5.006  0.5235  2.6107  0.6858
 2320TIP3   OH228450   2.175   5.007  16.794  0.1836  0.0617 -0.0193
 2320TIP3    H128451   2.169   4.912  16.803 -0.7725  0.1136 -0.0273
 2320TIP3    H228452   2.268   5.024  16.782  0.3585 -0.8765 -0.0559
 2321TIP3   OH228453   0.194   0.821   0.138 -0.2025 -0.3180  0.2435
 2321TIP3    H128454   0.183   0.808   0.044  0.1077  2.2128 -0.2151
 2321TIP3    H228455   0.141   0.752   0.178 -1.8562 -0.3325 -1.8058
 2322TIP3   OH228456   5.289   4.870   5.999 -0.4914  0.2589 -0.4580
 2322TIP3    H128457   5.234   4.810   6.049 -2.5194  1.5670 -1.0063
 2322TIP3    H228458   5.256   4.957   6.020  3.1408  1.4162  1.2506
 2323TIP3   OH228459   0.932   6.030  12.335  0.0949 -0.2196 -0.0098
 2323TIP3    H128460   0.920   5.975  12.413  0.3072  0.8077  0.7634
 2323TIP3    H228461   0.852   6.015  12.284 -0.4264 -0.2769  0.7994
 2324TIP3   OH228462   3.813   0.728  15.001 -0.2447 -0.2665 -0.1080
 2324TIP3    H128463   3.851   0.662  14.944  0.7255 -0.3774  0.6420
 2324TIP3    H228464   3.829   0.695  15.090 -0.1037  0.7659  0.2650
 2325TIP3   OH228465   3.288   5.817  15.276  0.2466  0.2210 -0.9716
 2325TIP3    H128466   3.313   5.727  15.252 -1.7060 -0.6551  0.0537
 2325TIP3    H228467   3.320   5.871  15.204 -0.2802 -1.5495 -2.6193
 2326TIP3   OH228468   4.293   5.057  16.335  0.4224  0.0536 -0.0291
 2326TIP3    H128469   4.200   5.080  16.336  0.3873 -0.0771 -0.2272
 2326TIP3    H228470   4.309   5.025  16.246  0.5436 -0.3893  0.1510
 2327TIP3   OH228471   6.337   3.653   5.688 -0.0159  0.1727  0.1994
 2327TIP3    H128472   6.418   3.688   5.726 -0.1835  0.4110  0.3380
 2327TIP3    H228473   6.272   3.722   5.702 -1.0744 -1.2048  2.9340
 2328TIP3   OH228474   1.926   4.363   1.572  0.2946  0.1918 -0.2600
 2328TIP3    H128475   1.853   4.417   1.600  0.3501 -0.1031  0.4808
 2328TIP3    H228476   1.906   4.340   1.481  0.3200  1.5149 -0.6203
 2329TIP3   OH228477   0.807   0.394   1.399  0.0423  0.2020  0.3059
 2329TIP3    H128478   0.886   0.441   1.371  0.6728 -0.2508  1.2622
 2329TIP3    H228479   0.735   0.451   1.373  0.7113  0.9103 -0.0490
 2330TIP3   OH228480   5.265   1.106   6.447 -0.3180  0.1353  0.2517
 2330TIP3    H128481   5.266   1.018   6.485 -1.2640  0.3347  0.7619
 2330TIP3    H228482   5.182   1.111   6.400  1.0811 -0.3331 -2.4974
 2331TIP3   OH228483   2.390   5.213  15.488 -0.1317  0.1121  0.9836
 2331TIP3    H128484   2.407   5.306  15.471 -2.0261  0.1375 -1.2148
 2331TIP3    H228485   2.340   5.214  15.570  0.1955  0.9790  1.1925
 2332TIP3   OH228486   3.047   5.598   1.228  0.1689 -0.0250 -0.0849
 2332TIP3    H128487   2.983   5.591   1.299 -0.6199  2.0028 -0.5250
 2332TIP3    H228488   3.067   5.508   1.205 -2.8083 -0.7912 -0.1521
 2333TIP3   OH228489   3.087   0.499   4.978 -0.1998  0.0844 -0.3646
 2333TIP3    H128490   3.081   0.408   4.950 -0.7770 -0.4930  1.4946
 2333TIP3    H228491   3.107   0.494   5.072 -1.2193  1.8496 -0.0081
 2334TIP3   OH228492   4.454   0.568  12.983 -0.1774  0.4341  0.6095
 2334TIP3    H128493   4.394   0.568  12.908  0.7558  2.1119 -0.1970
 2334TIP3    H228494   4.421   0.638  13.039  0.8213  1.2045  0.2769
 2335TIP3   OH228495   5.463   3.583  13.895  0.1610 -0.2893  0.1857
 2335TIP3    H128496   5.554   3.596  13.868  0.0042  1.5552  0.4736
 2335TIP3    H228497   5.419   3.554  13.816  0.7169  0.1691 -0.3022
 2336TIP3   OH228498   0.672   4.066   1.510  0.2452 -0.3620 -0.0486
 2336TIP3    H128499   0.655   3.974   1.529  0.2565 -0.3717 -0.0862
 2336TIP3    H228500   0.735   4.065   1.438  0.8871 -0.3267  0.5037
 2337TIP3   OH228501   1.233   5.326  16.514 -0.4078 -0.0684  0.8211
 2337TIP3    H128502   1.209   5.312  16.422 -2.3855 -2.5113  1.5796
 2337TIP3    H228503   1.162   5.379  16.549  0.7897  1.6146  0.8098
 2338TIP3   OH228504   0.201   6.201   0.652 -0.4530  0.5542 -0.9622
 2338TIP3    H128505   0.293   6.219   0.633 -0.6284  0.9967 -1.4133
 2338TIP3    H228506   0.153   6.274   0.613 -0.8645  1.3562  0.9682
 2339TIP3   OH228507   4.825   3.067  15.167 -0.3821  0.0904 -0.0635
 2339TIP3    H128508   4.836   3.158  15.142 -1.5802  0.5522  1.0307
 2339TIP3    H228509   4.768   3.069  15.243 -2.1340 -1.6805 -1.2362
 2340TIP3   OH228510   5.619   4.982   0.212  0.3372  0.5501  0.1262
 2340TIP3    H128511   5.681   5.001   0.282 -1.9577  2.1543  1.8724
 2340TIP3    H228512   5.561   4.915   0.249  1.9683 -2.4504 -2.1792
 2341TIP3   OH228513   3.512   5.832  14.609 -0.5257 -0.8354  0.0163
 2341TIP3    H128514   3.593   5.804  14.567 -0.8908 -2.0034  0.0567
 2341TIP3    H228515   3.452   5.757  14.600 -0.9700 -0.7197  1.6367
 2342TIP3   OH228516   0.906   4.622  13.424  0.4313 -0.0796 -0.1304
 2342TIP3    H128517   0.818   4.625  13.388  0.6526 -2.3065 -0.9789
 2342TIP3    H228518   0.905   4.687  13.495 -0.9814  2.0574 -1.9732
 2343TIP3   OH228519   6.208   2.017   2.737  0.3946 -0.4555 -0.5744
 2343TIP3    H128520   6.179   2.014   2.828 -1.0058 -0.0667 -0.9821
 2343TIP3    H228521   6.298   2.049   2.741  0.4058 -0.6188  0.6784
 2344TIP3   OH228522   4.001   4.901  10.405  0.3336  0.1942  0.2973
 2344TIP3    H128523   4.080   4.861  10.368  0.2620  0.4278 -0.1034
 2344TIP3    H228524   3.963   4.831  10.459 -0.6985 -0.8720 -1.7139
 2345TIP3   OH228525   4.287   0.967   2.842  0.7494 -0.5202  0.0795
 2345TIP3    H128526   4.261   1.009   2.924 -0.4078  1.0081 -0.9950
 2345TIP3    H228527   4.382   0.958   2.848  0.9966  1.8217  0.6109
 2346TIP3   OH228528   5.493   1.575   1.338  0.1047  0.5913 -0.2990
 2346TIP3    H128529   5.561   1.599   1.275  0.6967 -1.2039 -0.4109
 2346TIP3    H228530   5.539   1.568   1.421 -0.4571  1.8409  0.1355
 2347TIP3   OH228531   5.389   1.387  13.449  0.1433 -0.1970 -0.4312
 2347TIP3    H128532   5.399   1.469  13.497 -0.7340 -0.7973  0.8711
 2347TIP3    H228533   5.305   1.396  13.403 -0.4315 -0.6916  0.4809
 2348TIP3   OH228534   4.647   1.930  13.693 -0.3308  0.6989 -0.1556
 2348TIP3    H128535   4.737   1.912  13.668 -0.5538  2.3394 -2.4914
 2348TIP3    H228536   4.651   2.011  13.744 -0.4082  0.1612  0.7314
 2349TIP3   OH228537   1.866   3.625  11.862  0.0758 -0.5347 -0.1856
 2349TIP3    H128538   1.915   3.548  11.832 -0.3065 -1.4562  1.4614
 2349TIP3    H228539   1.777   3.593  11.877 -0.0595  0.1958  0.6543
 2350TIP3   OH228540   0.116   2.775  15.402  0.4483  0.2910  0.1101
 2350TIP3    H128541   0.090   2.827  15.478  1.5144 -0.4580  1.0160
 2350TIP3    H228542   0.070   2.692  15.413 -0.1522  0.5233 -0.5892
 2351TIP3   OH228543   3.305   2.442   6.818 -0.1831  0.9477 -0.1177
 2351TIP3    H128544   3.249   2.411   6.889 -1.0742  3.0861  0.1750
 2351TIP3    H228545   3.262   2.521   6.785  0.8608  0.7092 -2.2303
 2352TIP3   OH228546   6.001   3.751   4.772 -0.6968  0.3271  0.5181
 2352TIP3    H128547   5.937   3.706   4.716  1.5249 -1.7252 -0.5588
 2352TIP3    H228548   6.047   3.810   4.712 -0.4404  0.5338  0.9126
 2353TIP3   OH228549   0.574   0.658   3.382 -0.3242  0.1395  0.0359
 2353TIP3    H128550   0.614   0.723   3.325  0.2890  0.0785  0.3895
 2353TIP3    H228551   0.646   0.625   3.435 -0.5718 -1.0554 -0.3543
 2354TIP3   OH228552   3.232   0.889  14.394 -0.1797  0.1527  0.4676
 2354TIP3    H128553   3.202   0.872  14.305  0.8385  0.0552  0.1352
 2354TIP3    H228554   3.161   0.940  14.433 -0.9447 -0.3726 -0.1709
 2355TIP3   OH228555   2.522   3.352  11.510  0.0519 -0.6878  0.2195
 2355TIP3    H128556   2.498   3.260  11.517 -0.1607 -0.5542  1.5751
 2355TIP3    H228557   2.615   3.354  11.530  0.1969 -0.6682 -0.4287
 2356TIP3   OH228558   1.219   1.196  15.993 -0.1617 -0.4449 -0.5128
 2356TIP3    H128559   1.251   1.109  15.970  0.5881 -0.1875 -0.4504
 2356TIP3    H228560   1.286   1.232  16.051 -0.3184  0.2905 -0.7826
 2357TIP3   OH228561   6.331   4.023   4.790 -0.2069 -0.5315  0.3493
 2357TIP3    H128562   6.416   3.987   4.766 -0.1743  0.8079 -1.7954
 2357TIP3    H228563   6.269   3.978   4.733 -0.8032 -0.6762  1.0954
 2358TIP3   OH228564   0.672   4.842   2.972 -0.1479  0.6921  0.4550
 2358TIP3    H128565   0.591   4.811   2.932  0.2814  1.0998 -0.7684
 2358TIP3    H228566   0.720   4.762   2.994 -0.4825  0.4560  0.3291
 2359TIP3   OH228567   5.776   3.682  13.560  0.3879  0.4421 -0.0789
 2359TIP3    H128568   5.787   3.774  13.536 -0.5852  0.3910 -0.7517
 2359TIP3    H228569   5.695   3.655  13.517  0.7450 -0.7772 -0.0216
 2360TIP3   OH228570   1.327   6.129  13.461  0.3294 -0.1050 -0.6959
 2360TIP3    H128571   1.419   6.113  13.437  0.3863  1.8167 -2.0467
 2360TIP3    H228572   1.287   6.163  13.381 -1.7219 -1.3473 -0.2706
 2361TIP3   OH228573   4.862   4.192   0.035 -0.0781 -0.0051  0.1452
 2361TIP3    H128574   4.915   4.198   0.114 -1.1613 -1.8880  1.0595
 2361TIP3    H228575   4.863   4.100   0.011 -1.7022  0.1528 -0.6772
 2362TIP3   OH228576   5.834   4.668   1.363 -0.1591 -0.0211  0.2948
 2362TIP3    H128577   5.914   4.631   1.327 -0.2018  0.4329 -0.2929
 2362TIP3    H228578   5.856   4.691   1.454  0.6063  0.7584 -0.0698
 2363TIP3   OH228579   4.419   6.203   2.342  0.5557 -0.0081 -0.2433
 2363TIP3    H128580   4.339   6.219   2.292  0.8297 -0.8133 -0.9665
 2363TIP3    H228581   4.470   6.142   2.288  0.8508 -0.9327  1.0179
 2364TIP3   OH228582   6.794   5.166   3.498 -0.3072  0.0276 -0.2949
 2364TIP3    H128583   6.818   5.232   3.563 -0.3114 -1.8809  1.8097
 2364TIP3    H228584   6.726   5.114   3.542  0.1821 -1.7653 -1.5488
 2365TIP3   OH228585   4.142   6.395  16.608  0.1718 -0.1443 -0.0318
 2365TIP3    H128586   4.188   6.463  16.559  2.7886 -1.5207  0.3129
 2365TIP3    H228587   4.049   6.414  16.595  0.7812  3.2925 -0.1474
 2366TIP3   OH228588   0.728   0.202   3.101  0.1459 -0.2554  0.3118
 2366TIP3    H128589   0.684   0.125   3.136  1.5207 -0.5082  1.5678
 2366TIP3    H228590   0.690   0.275   3.150  0.7103 -0.4186  1.0082
 2367TIP3   OH228591   4.759   4.097   1.588 -0.0058 -0.0271  0.0203
 2367TIP3    H128592   4.784   4.006   1.607 -0.9491 -0.3408 -0.1691
 2367TIP3    H228593   4.827   4.128   1.528  0.8671 -0.2792  0.8641
 2368TIP3   OH228594   2.993   5.892  16.649 -0.2743  0.4746  0.0790
 2368TIP3    H128595   3.031   5.805  16.641  0.7013  0.7452  1.3633
 2368TIP3    H228596   2.954   5.893  16.737 -0.7759  1.1427 -0.1437
 2369TIP3   OH228597   0.444   0.288   5.479 -0.9515  0.5217 -0.0052
 2369TIP3    H128598   0.405   0.272   5.565  0.9939 -4.0956  0.3627
 2369TIP3    H228599   0.373   0.323   5.426 -3.3116 -0.0206  2.5403
 2370TIP3   OH228600   2.062   4.529  16.981 -0.0072  0.0283  0.2687
 2370TIP3    H128601   2.113   4.504  17.057 -0.6944 -2.1676  0.0661
 2370TIP3    H228602   1.985   4.572  17.017  0.6718  0.9431  0.6833
 2371TIP3   OH228603   1.723   4.920   1.552  0.0028  0.0670 -0.2496
 2371TIP3    H128604   1.759   4.998   1.509  1.7035 -1.5881 -2.0080
 2371TIP3    H228605   1.667   4.880   1.486 -1.6679  0.2693  0.9849
 2372TIP3   OH228606   2.287   4.655   0.121  0.8989  0.4467 -0.7760
 2372TIP3    H128607   2.324   4.657   0.033  1.8742  1.1771 -0.3655
 2372TIP3    H228608   2.250   4.742   0.134 -0.5755 -0.1193 -0.9943
 2373TIP3   OH228609   6.252   2.875  12.691  0.2472  0.3992  0.8820
 2373TIP3    H128610   6.287   2.872  12.602 -0.9945  0.3295  0.3833
 2373TIP3    H228611   6.314   2.824  12.743  0.7296  0.0426 -0.0288
 2374TIP3   OH228612   3.317   3.702  13.032  0.8189 -0.2809  0.0738
 2374TIP3    H128613   3.261   3.643  13.082 -0.0462  0.2014 -0.3082
 2374TIP3    H228614   3.327   3.659  12.947 -0.9549  0.7257 -0.7014
 2375TIP3   OH228615   1.029   0.438  12.488  0.1219  0.4542 -0.1737
 2375TIP3    H128616   1.021   0.387  12.569  0.8661  0.4046 -0.1291
 2375TIP3    H228617   0.972   0.514  12.503  0.2032  0.4142  0.3769
 2376TIP3   OH228618   1.418   6.594   0.481  0.0548  0.2700 -0.3143
 2376TIP3    H128619   1.460   6.508   0.484  0.1955  0.3560  0.1575
 2376TIP3    H228620   1.381   6.599   0.392 -1.2105 -0.8679  0.1069
 2377TIP3   OH228621   2.006   4.557   5.752  0.2108 -0.6522 -0.1571
 2377TIP3    H128622   1.946   4.632   5.746 -1.4489 -1.9288 -0.0865
 2377TIP3    H228623   1.952   4.481   5.732  2.1364 -1.7574 -1.5091
 2378TIP3   OH228624   4.764   4.668  12.553 -0.4040 -0.2624 -0.5035
 2378TIP3    H128625   4.816   4.588  12.540 -1.7950 -1.2117 -0.5333
 2378TIP3    H228626   4.720   4.654  12.636 -1.0764  0.2224 -0.7724
 2379TIP3   OH228627   6.792   2.144  14.091  0.0447  0.2111  0.0223
 2379TIP3    H128628   6.777   2.056  14.056 -0.3552  0.3083 -0.0578
 2379TIP3    H228629   6.886   2.158  14.080  0.2900 -0.5859  0.9328
 2380TIP3   OH228630   3.326   5.043  11.290  0.1862 -0.3349 -0.5758
 2380TIP3    H128631   3.410   5.048  11.335  0.2147 -0.2364 -0.6391
 2380TIP3    H228632   3.274   5.114  11.328  0.1097 -0.4344 -0.4929
 2381TIP3   OH228633   4.996   0.026   1.424 -0.2537 -0.1986 -0.4863
 2381TIP3    H128634   5.016  -0.062   1.456 -0.4015 -0.5257 -1.2760
 2381TIP3    H228635   4.932   0.060   1.487 -1.1108 -1.1173 -0.8318
 2382TIP3   OH228636   1.025   4.680   5.979 -0.2025 -0.0583 -0.0222
 2382TIP3    H128637   1.039   4.755   6.037 -1.2967  0.8965 -0.9485
 2382TIP3    H228638   1.031   4.604   6.037  1.1876  0.7052  0.8899
 2383TIP3   OH228639   1.876   1.776   3.113 -0.0472 -0.4356  0.1123
 2383TIP3    H128640   1.884   1.794   3.020  1.8198  0.6223  0.4247
 2383TIP3    H228641   1.925   1.695   3.126  1.3739  0.4251  0.4127
 2384TIP3   OH228642   4.486   5.211   3.176  0.4278  0.0212 -0.2048
 2384TIP3    H128643   4.531   5.269   3.237 -2.0801  2.0178 -0.0715
 2384TIP3    H228644   4.468   5.267   3.100  0.8837 -1.5938 -1.5611
 2385TIP3   OH228645   4.087   4.994  14.559 -0.0466  0.2128  0.5174
 2385TIP3    H128646   4.163   5.033  14.601  0.4268 -0.2346  0.0940
 2385TIP3    H228647   4.123   4.946  14.484 -0.7234 -0.1503  0.4154
 2386TIP3   OH228648   2.712   6.588   4.330 -0.3995  0.1657 -0.0451
 2386TIP3    H128649   2.644   6.598   4.397 -2.2431 -0.6376 -1.7103
 2386TIP3    H228650   2.667   6.603   4.247  1.5896  0.0968 -1.2060
 2387TIP3   OH228651   3.095   0.984  13.536  0.4955 -0.5534 -0.2484
 2387TIP3    H128652   3.002   0.971  13.515 -0.1143  2.6671 -0.0254
 2387TIP3    H228653   3.097   0.997  13.630  1.6769 -3.4022  0.2369
 2388TIP3   OH228654   6.809   1.039  15.234 -0.2684 -0.1477  0.0792
 2388TIP3    H128655   6.877   0.976  15.212 -0.7316 -0.3756 -0.7592
 2388TIP3    H228656   6.781   1.074  15.149  0.4711  1.7239  0.5772
 2389TIP3   OH228657   1.483   2.223   1.440 -0.6173  0.0727  0.3427
 2389TIP3    H128658   1.496   2.218   1.345  0.9254 -1.1010  0.5630
 2389TIP3    H228659   1.534   2.300   1.467 -0.7843  0.2138  0.2529
 2390TIP3   OH228660   1.046   5.316  14.922 -0.1551 -0.0227 -0.2124
 2390TIP3    H128661   1.043   5.400  14.967  1.6437  0.1835 -0.3955
 2390TIP3    H228662   0.967   5.269  14.952 -0.2795  1.0433  1.2317
 2391TIP3   OH228663   2.575   3.991  14.687  0.3399 -0.1473 -0.1609
 2391TIP3    H128664   2.507   4.040  14.731  0.3666 -0.9423  0.7980
 2391TIP3    H228665   2.530   3.918  14.644  0.2784  0.7555 -1.7063
 2392TIP3   OH228666   2.619   0.339   4.446  0.3249 -0.5411  0.4741
 2392TIP3    H128667   2.524   0.346   4.451  0.4127  0.0653  1.6505
 2392TIP3    H228668   2.644   0.398   4.375 -0.2142 -1.2519 -0.3292
 2393TIP3   OH228669   1.044   0.326   3.982  0.8637  0.4498 -0.3399
 2393TIP3    H128670   1.018   0.241   4.016  1.1411 -0.6463 -2.6716
 2393TIP3    H228671   0.979   0.345   3.914  1.3011  1.7097 -0.4322
 2394TIP3   OH228672   0.013   5.862  12.356  0.5212 -0.1662  0.1551
 2394TIP3    H128673  -0.029   5.809  12.424  1.7902 -0.3295  0.8373
 2394TIP3    H228674   0.084   5.907  12.401  0.7104  0.5723 -0.8472
 2395TIP3   OH228675   2.469   1.123  15.993  0.5624  0.7112  0.3384
 2395TIP3    H128676   2.404   1.077  16.046 -0.2649  0.1919 -1.0452
 2395TIP3    H228677   2.547   1.129  16.048 -0.7047  1.5334  2.1334
 2396TIP3   OH228678   6.111   2.231   2.574  0.1719 -0.5768  0.1707
 2396TIP3    H128679   6.135   2.220   2.482 -1.0762 -0.4419 -0.1918
 2396TIP3    H228680   6.156   2.159   2.619 -0.4988 -1.6481 -0.7947
 2397TIP3   OH228681   4.898   4.402  12.703  0.5575 -0.5472 -0.1349
 2397TIP3    H128682   4.955   4.339  12.746 -0.6154 -0.2329  2.0122
 2397TIP3    H228683   4.856   4.449  12.775  0.1237  1.5297 -1.6649
 2398TIP3   OH228684   1.703   1.357   2.276 -0.0059 -0.2149  0.5901
 2398TIP3    H128685   1.730   1.335   2.365 -1.0601 -0.8769  0.7674
 2398TIP3    H228686   1.659   1.441   2.285 -1.2375 -0.8752  0.9282
 2399TIP3   OH228687   1.577   2.713  13.517  0.0523 -0.4536 -0.2824
 2399TIP3    H128688   1.640   2.765  13.566  0.9888 -1.3138 -0.5271
 2399TIP3    H228689   1.492   2.734  13.555  0.4305  1.0674 -0.2415
 2400TIP3   OH228690   1.123   6.659  16.668 -0.6712  0.7213 -0.3222
 2400TIP3    H128691   1.048   6.614  16.705 -0.3319  0.0455 -0.4466
 2400TIP3    H228692   1.199   6.610  16.699 -0.3694  0.2457 -1.7293
 2401TIP3   OH228693   5.633   4.858  15.680  0.0400 -0.8428  0.3230
 2401TIP3    H128694   5.678   4.885  15.760  0.0971 -1.8074  0.6257
 2401TIP3    H228695   5.653   4.765  15.671  0.0337 -0.7543 -0.8181
 2402TIP3   OH228696   0.277   1.373  14.323  0.0943 -0.0828 -0.4796
 2402TIP3    H128697   0.294   1.456  14.366  0.4144 -0.4147  0.0557
 2402TIP3    H228698   0.297   1.389  14.231  1.0140  0.2001 -0.2454
 2403TIP3   OH228699   2.651   4.433  16.576 -0.2304 -1.1617  0.3553
 2403TIP3    H128700   2.658   4.414  16.483  1.8170 -3.2475  0.8535
 2403TIP3    H228701   2.562   4.404  16.599 -0.4849 -1.3433 -0.7882
 2404TIP3   OH228702   2.103   4.394  12.724  0.5647  0.0329 -0.0253
 2404TIP3    H128703   2.039   4.336  12.765 -0.4033  0.7893 -0.4267
 2404TIP3    H228704   2.187   4.369  12.763 -0.0411 -0.6501  0.8726
 2405TIP3   OH228705   5.716   4.037   2.534  0.1263  0.1622  0.7598
 2405TIP3    H128706   5.764   4.081   2.463  0.4698  2.3200  2.2217
 2405TIP3    H228707   5.627   4.030   2.502  0.7184 -1.0440 -0.7689
 2406TIP3   OH228708   6.366   0.973   4.103  0.0456  0.0102 -0.5562
 2406TIP3    H128709   6.427   0.899   4.106  1.7218  1.3467  1.1949
 2406TIP3    H228710   6.328   0.970   4.015  0.8673 -2.2529 -0.9000
 2407TIP3   OH228711   4.198   3.264   0.855  0.1890  0.1372 -0.0480
 2407TIP3    H128712   4.176   3.225   0.939  3.4588 -0.2628  0.7310
 2407TIP3    H228713   4.187   3.358   0.868 -3.0875 -0.0400 -0.4991
 2408TIP3   OH228714   6.235   6.471  16.654 -0.2200 -0.5095  0.0390
 2408TIP3    H128715   6.169   6.540  16.656 -0.4167 -0.7030  0.3496
 2408TIP3    H228716   6.188   6.392  16.680  0.1035 -0.6732  0.1384
 2409TIP3   OH228717   0.618   5.164  15.918 -0.2540  0.1616  0.2462
 2409TIP3    H128718   0.553   5.177  15.849 -0.6424 -0.4195  0.4867
 2409TIP3    H228719   0.702   5.183  15.876 -0.4378 -0.6642 -0.5365
 2410TIP3   OH228720   1.611   3.266   3.670  0.7056  0.0864  0.1710
 2410TIP3    H128721   1.567   3.310   3.743 -3.1688 -1.4543 -0.9508
 2410TIP3    H228722   1.646   3.186   3.708 -2.1363 -1.1980  0.3917
 2411TIP3   OH228723   4.570   2.305  14.968  0.0657  0.4921  0.7522
 2411TIP3    H128724   4.506   2.239  14.996  0.1116 -0.1123 -0.5063
 2411TIP3    H228725   4.614   2.331  15.049  0.0210 -1.0046  1.2877
 2412TIP3   OH228726   4.196   4.533   2.816  0.1587  0.6156  0.2378
 2412TIP3    H128727   4.272   4.482   2.845 -1.5301 -1.4983  1.3367
 2412TIP3    H228728   4.164   4.575   2.896 -0.9661 -0.2006  0.2479
 2413TIP3   OH228729   1.069   5.925   5.091 -0.1658 -0.6300  0.1180
 2413TIP3    H128730   1.078   6.018   5.070  0.5662 -0.1617  2.2287
 2413TIP3    H228731   1.131   5.882   5.032  1.1627  0.4908  0.6362
 2414TIP3   OH228732   6.293   2.014  16.873  0.8024  0.1095 -0.4333
 2414TIP3    H128733   6.239   1.997  16.796 -0.5241  2.2474 -0.0746
 2414TIP3    H228734   6.370   2.059  16.838  0.8971 -0.2100 -0.6428
 2415TIP3   OH228735   0.664   4.898  15.972  0.3682 -0.2651 -0.0711
 2415TIP3    H128736   0.657   4.990  15.947 -0.8073  0.0173  1.1917
 2415TIP3    H228737   0.752   4.889  16.008  0.0130  0.7350  1.1232
 2416TIP3   OH228738   5.750   4.564   2.258  0.4385 -0.1305 -0.7036
 2416TIP3    H128739   5.787   4.572   2.170 -0.4719 -1.5219 -1.2605
 2416TIP3    H228740   5.708   4.477   2.258  1.1997 -0.5602  1.4029
 2417TIP3   OH228741   4.062   4.854   5.425  0.4695  0.3231 -0.4715
 2417TIP3    H128742   4.140   4.908   5.412  0.2089  0.9508  0.5165
 2417TIP3    H228743   4.080   4.803   5.504 -0.5973  1.3856  0.4971
 2418TIP3   OH228744   4.877   5.718   1.875 -0.5859  0.1436 -0.2133
 2418TIP3    H128745   4.916   5.740   1.791 -1.7629 -1.3606 -1.1932
 2418TIP3    H228746   4.783   5.730   1.862 -1.0854 -2.8463 -0.0661
 2419TIP3   OH228747   1.703   3.655  15.492  0.0800 -0.5989  0.4797
 2419TIP3    H128748   1.778   3.715  15.498 -0.7313  0.2705  3.0442
 2419TIP3    H228749   1.728   3.581  15.547 -0.6180 -0.6472  0.7399
 2420TIP3   OH228750   0.132   1.291  11.149 -0.1093 -0.3528 -0.1220
 2420TIP3    H128751   0.121   1.366  11.091 -1.8337 -1.1440 -0.8864
 2420TIP3    H228752   0.079   1.222  11.109 -0.5653 -1.2259  1.8780
 2421TIP3   OH228753   6.781   3.322   3.189 -0.0601 -0.6476 -0.7527
 2421TIP3    H128754   6.821   3.235   3.185 -0.4549 -0.8104 -1.2134
 2421TIP3    H228755   6.705   3.311   3.247  0.1224 -0.5127 -0.4846
 2422TIP3   OH228756   2.248   3.332  13.141  0.1200 -0.4783 -0.2149
 2422TIP3    H128757   2.322   3.376  13.184  0.0398  0.5213 -1.0704
 2422TIP3    H228758   2.280   3.311  13.053  0.2564 -2.4472  0.2497
 2423TIP3   OH228759   0.948   4.574   2.364  0.5269  0.2556 -0.0633
 2423TIP3    H128760   1.024   4.579   2.306  1.6482  0.0826  1.3393
 2423TIP3    H228761   0.934   4.664   2.394  0.1711  0.2856 -0.3096
 2424TIP3   OH228762   2.794   2.533   6.266  0.2176 -0.1086  0.4305
 2424TIP3    H128763   2.783   2.581   6.184 -1.4346 -1.9927 -0.5355
 2424TIP3    H228764   2.721   2.561   6.321 -0.0903 -0.6516  0.3023
 2425TIP3   OH228765   2.123   5.022  11.536 -0.2846 -0.0839  0.2516
 2425TIP3    H128766   2.064   4.950  11.516 -2.0096  0.8894  1.5299
 2425TIP3    H228767   2.206   4.997  11.496 -1.1986 -2.1033 -0.5265
 2426TIP3   OH228768   2.061   3.066   2.635 -0.4427 -0.2202  0.3125
 2426TIP3    H128769   1.996   3.135   2.649  1.8487  2.4682 -1.2931
 2426TIP3    H228770   2.109   3.061   2.717 -0.4103  0.3231  0.3269
 2427TIP3   OH228771   2.200   1.769   5.610 -0.5196  0.2685 -0.4401
 2427TIP3    H128772   2.270   1.710   5.634 -0.1232  1.4779  1.5757
 2427TIP3    H228773   2.122   1.733   5.652 -0.1000  1.5949  1.6175
 2428TIP3   OH228774   3.689   3.595   1.770 -0.0659  0.3842  0.2894
 2428TIP3    H128775   3.773   3.622   1.809 -0.4777  0.3059  1.2726
 2428TIP3    H228776   3.709   3.579   1.678  0.5669  2.3288  0.0537
 2429TIP3   OH228777   2.581   5.116   3.674 -0.3359 -0.1512  0.3459
 2429TIP3    H128778   2.659   5.079   3.716 -2.3236 -0.9489  3.7959
 2429TIP3    H228779   2.545   5.044   3.623 -0.2256 -0.6484  0.9535
 2430TIP3   OH228780   6.021   4.897  14.103 -0.5590 -0.4760  0.0445
 2430TIP3    H128781   5.951   4.896  14.169  0.2451  1.4116  1.0063
 2430TIP3    H228782   6.093   4.942  14.146  0.5609 -0.6115 -1.6170
 2431TIP3   OH228783   6.421   3.075  12.934  0.2703  0.0869 -0.4743
 2431TIP3    H128784   6.464   3.028  13.006  1.1999  2.4635  0.6443
 2431TIP3    H228785   6.344   3.022  12.913  0.3456 -1.0615  1.8007
 2432TIP3   OH228786   4.537   0.152   3.895  0.8813 -0.2060  0.6055
 2432TIP3    H128787   4.478   0.099   3.949  1.2946 -1.8150 -0.4380
 2432TIP3    H228788   4.593   0.196   3.959  0.3158 -0.7924  1.5381
 2433TIP3   OH228789   0.883   3.229  15.562 -0.4277 -0.2500 -0.3294
 2433TIP3    H128790   0.885   3.134  15.553  1.1030 -0.4962  1.9344
 2433TIP3    H228791   0.847   3.244  15.649  1.7538  1.0947  0.4245
 2434TIP3   OH228792   6.259   6.792   2.054 -0.4267 -0.2694 -0.0162
 2434TIP3    H128793   6.305   6.712   2.028  2.3444  1.2421 -0.1226
 2434TIP3    H228794   6.236   6.778   2.146 -0.0880 -1.2353 -0.0710
 2435TIP3   OH228795   6.697   6.222  12.103  0.4181 -0.0646 -0.3203
 2435TIP3    H128796   6.793   6.223  12.108  0.3678 -0.1602  0.9711
 2435TIP3    H228797   6.669   6.174  12.181 -0.7021  0.5268 -0.3396
 2436TIP3   OH228798   5.928   3.173  13.586  0.0684 -0.5671 -0.3987
 2436TIP3    H128799   5.889   3.253  13.551  0.9475  0.3794  0.7074
 2436TIP3    H228800   6.022   3.191  13.589  0.0909 -0.7888  1.8632
 2437TIP3   OH228801   3.392   5.987  12.128  0.3105  0.4512  0.0694
 2437TIP3    H128802   3.321   6.016  12.185  0.4659  0.7818  0.0964
 2437TIP3    H228803   3.430   6.067  12.093  0.7284  0.2828  0.1250
 2438TIP3   OH228804   5.796   4.088  11.825 -0.2061  0.5555 -0.1834
 2438TIP3    H128805   5.809   4.079  11.731 -1.8090 -2.0987 -0.2463
 2438TIP3    H228806   5.801   4.182  11.841  2.1435  0.9528 -2.5491
 2439TIP3   OH228807   5.915   4.006  16.095 -0.4308 -0.3559 -0.0773
 2439TIP3    H128808   5.865   4.052  16.161  0.9358  1.0649  0.0364
 2439TIP3    H228809   5.850   3.974  16.033 -1.4886  1.4014  0.0688
 2440TIP3   OH228810   6.310   4.819  10.977  0.0133 -0.3895  0.0612
 2440TIP3    H128811   6.375   4.753  10.953 -0.1211 -1.0298  1.4034
 2440TIP3    H228812   6.258   4.832  10.897  0.7903 -1.0276 -0.5579
 2441TIP3   OH228813   6.398   4.901  11.395 -0.3971 -0.1216  0.3238
 2441TIP3    H128814   6.453   4.972  11.427 -0.9580 -0.2684  1.6518
 2441TIP3    H228815   6.376   4.850  11.472 -3.5700  0.7219  0.1536
 2442TIP3   OH228816   0.806   5.465   4.294  0.0122 -0.1082  0.1987
 2442TIP3    H128817   0.857   5.389   4.321  1.5008 -0.0221 -2.1439
 2442TIP3    H228818   0.790   5.452   4.200 -1.5264  1.4623  0.1748
 2443TIP3   OH228819   3.394   1.576  14.307 -0.4233 -0.3218  0.5487
 2443TIP3    H128820   3.383   1.497  14.359 -3.8969  1.5414  3.0412
 2443TIP3    H228821   3.328   1.569  14.238  0.3857 -0.2926 -0.2421
 2444TIP3   OH228822   0.557   6.601  17.085  0.1069  0.1918 -0.3492
 2444TIP3    H128823   0.513   6.676  17.124  1.3945  0.7844  0.0134
 2444TIP3    H228824   0.493   6.530  17.090 -0.8173  1.0399  0.0908
 2445TIP3   OH228825   1.840   4.787   2.384 -0.9526  0.1381 -0.6758
 2445TIP3    H128826   1.878   4.790   2.296 -0.5535 -0.8798 -0.5545
 2445TIP3    H228827   1.895   4.845   2.436 -0.7558  0.1917 -0.9406
 2446TIP3   OH228828   2.309   0.914   1.619 -0.0847  0.2331 -0.0696
 2446TIP3    H128829   2.253   0.984   1.654  0.0431  0.3741 -0.1491
 2446TIP3    H228830   2.389   0.959   1.590 -0.0032  0.0546 -0.1216
 2447TIP3   OH228831   5.722   1.154   1.734 -0.1279 -0.1661  0.5215
 2447TIP3    H128832   5.690   1.093   1.801  0.4214  0.5415  1.4494
 2447TIP3    H228833   5.816   1.162   1.752 -0.0786  0.4595  0.0122
 2448TIP3   OH228834   0.518   5.096  13.537 -0.3400  0.0606 -0.2416
 2448TIP3    H128835   0.472   5.013  13.547  0.1437 -0.1864 -0.0651
 2448TIP3    H228836   0.563   5.109  13.621  0.9974 -0.3578 -0.8659
 2449TIP3   OH228837   1.264   4.356   0.590 -0.4590  0.5060 -0.1122
 2449TIP3    H128838   1.285   4.407   0.668  0.9507  0.4140 -0.3963
 2449TIP3    H228839   1.208   4.414   0.538  0.0520  1.2574  0.1590
 2450TIP3   OH228840   4.638   2.817  13.593 -0.1411  0.2117  0.1566
 2450TIP3    H128841   4.672   2.863  13.517  1.7740 -0.6004  0.4580
 2450TIP3    H228842   4.714   2.771  13.629 -1.4118 -1.0188  1.3978
 2451TIP3   OH228843   6.701   4.916  16.305 -0.1352 -0.7850  0.1666
 2451TIP3    H128844   6.729   4.997  16.263 -0.8434 -0.6829 -0.1302
 2451TIP3    H228845   6.736   4.921  16.394 -0.7933  0.1943  0.3820
 2452TIP3   OH228846   6.439   2.925   0.621  0.0304 -0.1750 -0.8232
 2452TIP3    H128847   6.501   2.989   0.658 -0.2347  0.1820 -0.9857
 2452TIP3    H228848   6.404   2.880   0.698  0.0976 -0.0089 -0.6930
 2453TIP3   OH228849   0.102   0.852  15.434  0.4188  0.2508  0.7023
 2453TIP3    H128850   0.100   0.825  15.342 -0.9136 -0.9271  1.0436
 2453TIP3    H228851   0.145   0.937  15.433  1.2420 -0.1400 -0.9033
 2454TIP3   OH228852   1.406   5.610   1.368  0.2680  0.4581 -0.5924
 2454TIP3    H128853   1.369   5.628   1.455  0.4459  1.5508 -0.7282
 2454TIP3    H228854   1.500   5.598   1.383 -0.1008 -2.9489 -0.1561
 2455TIP3   OH228855   6.564   0.963   2.696  0.0740  0.3445  0.0110
 2455TIP3    H128856   6.571   1.040   2.753  0.9239  1.3772 -1.4139
 2455TIP3    H228857   6.618   0.985   2.620 -0.4551 -1.2720 -0.8727
 2456TIP3   OH228858   0.665   6.136  16.689  0.7503  0.4089  0.0679
 2456TIP3    H128859   0.746   6.146  16.739  1.0885 -0.0311 -0.3834
 2456TIP3    H228860   0.598   6.115  16.755  1.0078  0.7338  0.4349
 2457TIP3   OH228861   5.678   4.613  12.293  0.0993  0.4993 -0.4474
 2457TIP3    H128862   5.683   4.709  12.293  2.0956  0.4403  0.1514
 2457TIP3    H228863   5.603   4.593  12.350 -1.5452  1.6865 -2.0814
 2458TIP3   OH228864   2.767   2.415  14.589 -0.3345 -0.0723 -0.1473
 2458TIP3    H128865   2.831   2.343  14.586 -0.0748  0.1438  0.2033
 2458TIP3    H228866   2.771   2.447  14.679 -0.6203  0.2294 -0.2426
 2459TIP3   OH228867   2.486   2.867   4.195 -0.4561 -0.0447  0.0195
 2459TIP3    H128868   2.403   2.819   4.199 -1.7074  2.0629  1.2251
 2459TIP3    H228869   2.510   2.882   4.287  1.2336 -0.5110 -0.3097
 2460TIP3   OH228870   6.140   5.831   1.391 -0.1749  0.1485 -0.1175
 2460TIP3    H128871   6.052   5.863   1.370 -1.1869 -1.6944  0.9845
 2460TIP3    H228872   6.157   5.763   1.326 -0.1977 -0.4784  0.5152
 2461TIP3   OH228873   4.950   6.178  16.859  0.5613  0.1641 -0.2948
 2461TIP3    H128874   4.959   6.271  16.838 -2.8011  0.5112 -0.7316
 2461TIP3    H228875   4.963   6.133  16.776  1.8810  0.2465 -0.1444
 2462TIP3   OH228876   4.521   5.720  11.176  0.0845 -0.3375  0.5899
 2462TIP3    H128877   4.593   5.784  11.179  0.3514 -0.6449  0.7812
 2462TIP3    H228878   4.526   5.683  11.088 -0.6059  0.5059  0.1724
 2463TIP3   OH228879   0.906   4.103   5.566 -0.3156  0.0728  0.9150
 2463TIP3    H128880   0.919   4.111   5.660 -0.5543  0.2596  0.9330
 2463TIP3    H228881   0.811   4.100   5.555 -0.2963  0.4056  0.6496
 2464TIP3   OH228882   6.795   5.575   3.350 -0.0367  0.9200 -0.0132
 2464TIP3    H128883   6.769   5.612   3.434 -0.2540 -0.4344  0.5533
 2464TIP3    H228884   6.739   5.498   3.339 -0.1955  1.2112 -1.5365
 2465TIP3   OH228885   4.350   3.167   0.494  0.3785  0.4080 -0.1034
 2465TIP3    H128886   4.372   3.100   0.558 -0.6335  0.2676  0.1181
 2465TIP3    H228887   4.257   3.184   0.508  1.0477  3.4928  1.4039
 2466TIP3   OH228888   2.428   5.151  13.546 -0.5263 -0.3340 -0.0114
 2466TIP3    H128889   2.362   5.084  13.564 -1.8488  0.5058 -1.4443
 2466TIP3    H228890   2.404   5.185  13.460  1.3873  0.5045 -0.2537
 2467TIP3   OH228891   1.959   0.520   2.538  0.2028 -0.1847  0.3746
 2467TIP3    H128892   1.943   0.435   2.578 -1.5220  0.1421  0.4642
 2467TIP3    H228893   1.929   0.510   2.448  0.8155  0.0889  0.1328
 2468TIP3   OH228894   6.607   5.969   0.606 -0.0940 -0.0602  0.1652
 2468TIP3    H128895   6.663   5.892   0.601 -0.3973 -0.2232 -1.3726
 2468TIP3    H228896   6.521   5.936   0.629  0.0555 -0.0175  0.7965
 2469TIP3   OH228897   4.139   1.771  14.880  0.2485 -0.2394 -0.7522
 2469TIP3    H128898   4.190   1.849  14.857  0.2411 -0.2719 -0.8780
 2469TIP3    H228899   4.092   1.795  14.960  2.0431 -0.8737  0.5774
 2470TIP3   OH228900   6.726   6.575  15.138  0.2660 -0.3816  0.4567
 2470TIP3    H128901   6.741   6.488  15.173 -0.7007 -0.4699  0.6916
 2470TIP3    H228902   6.630   6.583  15.134  0.3423  0.3033 -0.4636
 2471TIP3   OH228903   3.975   5.622  15.960  0.1385 -0.8565  0.0221
 2471TIP3    H128904   3.995   5.678  15.885 -0.2053  0.7791  1.1158
 2471TIP3    H228905   4.006   5.535  15.933 -1.4998 -0.7452 -2.7117
 2472TIP3   OH228906   1.250   5.594  14.418  0.2465 -0.0413 -0.0371
 2472TIP3    H128907   1.328   5.580  14.472  0.5116  2.2154  0.2521
 2472TIP3    H228908   1.187   5.636  14.477 -0.7388 -0.6503 -0.6161
 2473TIP3   OH228909   4.667   4.386   2.821 -0.3844  0.8780  0.0021
 2473TIP3    H128910   4.572   4.378   2.806 -0.2376 -0.8815 -0.2421
 2473TIP3    H228911   4.706   4.343   2.744  0.6114  1.5832  0.1077
 2474TIP3   OH228912   2.244   5.479   0.205  0.2108  0.3635  0.3957
 2474TIP3    H128913   2.250   5.485   0.300 -0.4470  0.3777  0.4439
 2474TIP3    H228914   2.212   5.391   0.188  2.5816 -0.5050  0.0562
 2475TIP3   OH228915   0.939   1.130  16.364 -0.6528  0.2502  0.4506
 2475TIP3    H128916   0.850   1.149  16.393 -0.9453  1.4456 -1.1416
 2475TIP3    H228917   0.934   1.127  16.269  0.8855 -0.3643  0.3563
 2476TIP3   OH228918   5.229   4.969   1.983 -0.3543  0.6015 -0.3157
 2476TIP3    H128919   5.205   5.008   2.067 -1.2658 -2.6283  1.0719
 2476TIP3    H228920   5.155   4.989   1.925 -1.8097 -0.7184  0.9853
 2477TIP3   OH228921   0.607   3.535  16.430 -0.2274  0.1844 -0.1886
 2477TIP3    H128922   0.618   3.441  16.417 -0.7929  0.1100 -0.1271
 2477TIP3    H228923   0.691   3.564  16.467 -0.0100 -0.2694 -0.3256
 2478TIP3   OH228924   0.252   1.236   3.981 -0.7379 -0.3497  0.0923
 2478TIP3    H128925   0.238   1.325   4.014 -0.9424 -0.8190  1.3243
 2478TIP3    H228926   0.196   1.181   4.037 -0.3582 -1.2925 -0.4360
 2479TIP3   OH228927   4.327   4.796  10.594 -0.2008 -0.1459 -0.4850
 2479TIP3    H128928   4.260   4.773  10.658  0.0350  0.7972  0.1158
 2479TIP3    H228929   4.280   4.848  10.528  0.0009  0.8196  0.1233
 2480TIP3   OH228930   3.194   1.671   5.765 -0.6732 -0.3569  0.1506
 2480TIP3    H128931   3.267   1.655   5.825 -0.7166  0.8531  0.5592
 2480TIP3    H228932   3.163   1.584   5.741 -1.3622 -0.9071  2.7498
 2481TIP3   OH228933   0.374   5.386  16.986 -0.4821 -0.5959 -0.6469
 2481TIP3    H128934   0.439   5.331  16.943  0.5570  1.2967 -1.6121
 2481TIP3    H228935   0.374   5.467  16.936 -3.7656 -0.5714 -0.8017
 2482TIP3   OH228936   5.291   5.542   2.365  0.3943  0.2683 -0.2422
 2482TIP3    H128937   5.236   5.615   2.393  1.0605  0.6953 -0.0331
 2482TIP3    H228938   5.239   5.464   2.386  1.4495  0.4436  3.8426
 2483TIP3   OH228939   5.136   6.487  15.034 -0.1105  0.2854  0.5691
 2483TIP3    H128940   5.230   6.471  15.030 -0.3425 -1.0819 -1.8046
 2483TIP3    H228941   5.098   6.399  15.042 -1.2052  0.8762  2.3291
 2484TIP3   OH228942   2.236   5.123  17.084  0.3751 -0.2040 -0.2891
 2484TIP3    H128943   2.186   5.042  17.098 -0.0835  0.1640  0.3045
 2484TIP3    H228944   2.287   5.133  17.165 -1.4198  1.3548  0.7504
 2485TIP3   OH228945   3.694   0.503   4.248  0.2070 -0.2733 -0.2135
 2485TIP3    H128946   3.616   0.550   4.218 -1.0320 -2.6031 -0.9143
 2485TIP3    H228947   3.707   0.434   4.182  3.2093  0.3306 -0.4049
 2486TIP3   OH228948   4.687   2.918  11.487  0.1631 -0.5626  0.1627
 2486TIP3    H128949   4.655   2.900  11.399  0.5880 -1.1103  0.1163
 2486TIP3    H228950   4.764   2.974  11.473  0.1170 -0.4896  0.1995
 2487TIP3   OH228951   2.097   0.927  13.019 -0.2099  0.1548 -0.4739
 2487TIP3    H128952   2.120   0.992  13.086  0.4381 -1.7222  1.2313
 2487TIP3    H228953   2.024   0.966  12.971  0.6999  2.4724 -0.0988
 2488TIP3   OH228954   6.537   1.590  14.624 -0.0663 -0.0909  0.1642
 2488TIP3    H128955   6.445   1.581  14.599 -0.1991  0.4562  0.4417
 2488TIP3    H228956   6.578   1.631  14.548 -0.9709  4.0532  1.6025
 2489TIP3   OH228957   1.362   2.135   1.894 -0.1282  0.4701 -0.0607
 2489TIP3    H128958   1.374   2.081   1.816  0.3348  1.3063 -0.5929
 2489TIP3    H228959   1.389   2.080   1.967  0.5708  0.0729 -0.6159
 2490TIP3   OH228960   3.891   1.440  11.695 -0.5432  0.2156  0.0028
 2490TIP3    H128961   3.810   1.390  11.688 -1.2824  1.6102 -2.2896
 2490TIP3    H228962   3.884   1.508  11.628  2.4737  0.4739 -0.1903
 2491TIP3   OH228963   1.499   0.470   4.582  1.3430 -0.1568 -0.3642
 2491TIP3    H128964   1.494   0.436   4.493  0.4863 -1.2959  0.0887
 2491TIP3    H228965   1.416   0.445   4.622  1.7589  0.2248  0.7902
 2492TIP3   OH228966   3.398   3.447  10.794  0.2285 -0.0490  0.0686
 2492TIP3    H128967   3.454   3.516  10.828  1.8640 -0.5661 -1.4231
 2492TIP3    H228968   3.453   3.369  10.794 -1.0040 -0.9506  0.0110
 2493TIP3   OH228969   5.062   6.720  14.629  0.1378  0.1819 -0.6845
 2493TIP3    H128970   5.036   6.714  14.721  3.1590  0.7461  0.3169
 2493TIP3    H228971   5.095   6.809  14.620  0.6350 -0.1319 -2.1268
 2494TIP3   OH228972   4.383   2.993  11.023 -0.0484  0.1371  0.6321
 2494TIP3    H128973   4.415   3.005  10.934  1.3000  1.2577  1.2106
 2494TIP3    H228974   4.429   3.061  11.074 -0.8774 -0.3836  2.1462
 2495TIP3   OH228975   4.793   2.525   3.810 -0.3306 -0.3161 -0.0454
 2495TIP3    H128976   4.759   2.511   3.899  1.3374 -1.9521  0.3912
 2495TIP3    H228977   4.888   2.527   3.821 -0.0673 -1.1531 -1.8794
 2496TIP3   OH228978   1.994   3.365  11.545  0.0454 -0.3159 -0.7914
 2496TIP3    H128979   1.927   3.427  11.517  0.5279  0.8464  0.5045
 2496TIP3    H228980   2.037   3.338  11.464  0.7757  2.1686 -1.2974
 2497TIP3   OH228981   3.168   2.355  14.408 -0.5080  0.0016 -0.0773
 2497TIP3    H128982   3.117   2.351  14.327 -0.3956  1.3854 -0.2367
 2497TIP3    H228983   3.202   2.444  14.411 -0.6662  0.0513  1.5873
 2498TIP3   OH228984   5.898   0.003  16.387  0.1146  0.4078 -0.3117
 2498TIP3    H128985   5.812  -0.029  16.358 -0.1551  0.9103 -0.0827
 2498TIP3    H228986   5.877   0.078  16.443  0.7782  1.5324 -1.5240
 2499TIP3   OH228987   2.953   1.086  14.123  0.6090  0.6613 -0.2589
 2499TIP3    H128988   2.893   1.067  14.051  1.3099  0.6572 -0.8444
 2499TIP3    H228989   2.989   1.001  14.147 -1.1317  0.3313  1.4820
 2500TIP3   OH228990   6.512   2.509  16.474 -0.5379  0.2981 -0.0486
 2500TIP3    H128991   6.548   2.484  16.389 -0.8262 -0.0325 -0.0755
 2500TIP3    H228992   6.583   2.490  16.537 -0.7337 -0.5581 -0.0699
 2501TIP3   OH228993   5.472   6.340  12.582  0.3081  0.3078  0.2189
 2501TIP3    H128994   5.516   6.393  12.516 -1.2220  0.0682 -1.0366
 2501TIP3    H228995   5.423   6.274  12.532 -1.5654  0.6356  1.5104
 2502TIP3   OH228996   0.890   6.633  14.025  1.2268  0.3634 -0.2387
 2502TIP3    H128997   0.874   6.545  14.061 -0.2000  1.6652  2.6286
 2502TIP3    H228998   0.816   6.649  13.967  0.7590  0.1788  0.3036
 2503TIP3   OH228999   2.353   4.340  13.977  0.1493  0.2623  0.1661
 2503TIP3    H129000   2.304   4.399  14.034  0.5961 -0.6284  1.5100
 2503TIP3    H229001   2.290   4.315  13.909 -1.4313 -1.0644  2.0021
 2504TIP3   OH229002   0.116   3.373  11.315  0.2525  1.1134  0.2387
 2504TIP3    H129003   0.133   3.314  11.389 -1.7181 -0.6159 -0.6152
 2504TIP3    H229004   0.172   3.341  11.245  2.1337  2.7645  0.8762
 2505TIP3   OH229005   5.576   4.631  12.007 -0.2059 -0.0967  0.1332
 2505TIP3    H129006   5.550   4.633  12.099  1.5295  0.9130  0.6591
 2505TIP3    H229007   5.578   4.538  11.985  1.4801 -0.5252  1.8088
 2506TIP3   OH229008   3.837   4.602  16.949  0.5820  0.1155 -0.5923
 2506TIP3    H129009   3.886   4.578  16.871  0.7719 -1.1205 -0.1062
 2506TIP3    H229010   3.840   4.698  16.951  0.2728  0.1761 -2.2775
 2507TIP3   OH229011   2.547   1.309  13.645  0.7494  0.3293 -1.1285
 2507TIP3    H129012   2.594   1.297  13.562 -1.5509 -2.0759 -2.2107
 2507TIP3    H229013   2.579   1.238  13.701 -2.3954 -2.3090 -2.3943
 2508TIP3   OH229014   1.870   3.729  14.303  0.1045  0.3433  0.0441
 2508TIP3    H129015   1.894   3.820  14.321  1.4659  1.0419 -4.1774
 2508TIP3    H229016   1.951   3.687  14.276 -0.8208 -1.6565  0.2091
 2509TIP3   OH229017   5.303   4.654  14.218  0.2871 -0.0793  0.4659
 2509TIP3    H129018   5.350   4.725  14.261 -1.0318  0.8044  0.5108
 2509TIP3    H229019   5.358   4.577  14.231  1.7692  0.9312  0.3869
 2510TIP3   OH229020   0.780   1.032  12.659 -0.1005  0.6176  0.0167
 2510TIP3    H129021   0.772   0.941  12.687 -1.1731  0.5370 -0.5012
 2510TIP3    H229022   0.873   1.043  12.638  0.4061  0.1938  1.8713
 2511TIP3   OH229023   3.099   1.233   4.474 -0.3308  0.0257 -0.4971
 2511TIP3    H129024   3.136   1.302   4.419 -1.1831 -0.1718 -1.3303
 2511TIP3    H229025   3.140   1.153   4.443 -0.6755 -0.0620 -0.7336
 2512TIP3   OH229026   0.989   0.633   6.184 -0.0910 -0.5618  0.2099
 2512TIP3    H129027   0.986   0.561   6.247  1.0959 -1.2542 -0.4919
 2512TIP3    H229028   0.979   0.712   6.237 -0.0930 -1.1786  1.1446
 2513TIP3   OH229029   1.226   6.559  13.719  0.4709  0.0522  0.0242
 2513TIP3    H129030   1.152   6.532  13.774  1.4567 -0.0812  1.3507
 2513TIP3    H229031   1.250   6.481  13.670 -0.3632  0.1453 -0.5553
 2514TIP3   OH229032   4.268   5.748   6.343  0.4566 -0.0948  0.2594
 2514TIP3    H129033   4.211   5.796   6.404  0.1627 -1.1792  0.8694
 2514TIP3    H229034   4.208   5.695   6.291  0.7748  0.1983 -0.4168
 2515TIP3   OH229035   2.328   0.827  12.570  0.2384 -0.0252 -0.4649
 2515TIP3    H129036   2.342   0.746  12.522 -2.3293  0.1419 -1.6909
 2515TIP3    H229037   2.319   0.894  12.501 -3.6980  0.1983  0.0372
 2516TIP3   OH229038   5.655   4.650  10.799  0.0541  0.0125 -0.2431
 2516TIP3    H129039   5.607   4.570  10.779 -0.1226  0.1834 -0.5096
 2516TIP3    H229040   5.678   4.686  10.713 -0.5245  0.6411 -0.1411
 2517TIP3   OH229041   1.833   1.009  16.493 -0.1484  0.1930 -0.1108
 2517TIP3    H129042   1.877   1.068  16.554  0.9202  0.9928 -1.5934
 2517TIP3    H229043   1.813   1.064  16.417 -1.2963 -0.8071 -0.5623
 2518TIP3   OH229044   4.631   2.560  14.862 -0.2909  0.4590  0.2849
 2518TIP3    H129045   4.630   2.468  14.889  0.4550  0.1179 -0.7820
 2518TIP3    H229046   4.721   2.576  14.835 -0.4326  1.4904  0.3844
 2519TIP3   OH229047   5.606   3.644  14.778  0.4826  0.7530 -0.1527
 2519TIP3    H129048   5.631   3.712  14.715  0.0709  0.1438 -0.9850
 2519TIP3    H229049   5.523   3.610  14.746 -0.0222  0.8097  1.0331
 2520TIP3   OH229050   1.294   1.042  14.311  0.0043  0.2599  0.2561
 2520TIP3    H129051   1.349   1.092  14.371 -1.0252 -0.3733  1.7950
 2520TIP3    H229052   1.319   1.073  14.224  1.0874  1.6848  1.0292
 2521TIP3   OH229053   2.271   4.188   3.299  0.2614  0.2291  0.5372
 2521TIP3    H129054   2.330   4.234   3.239  1.6894 -0.1196  1.6169
 2521TIP3    H229055   2.183   4.212   3.269  0.9173  0.2460 -1.5364
 2522TIP3   OH229056   5.975   6.319   2.190 -0.1931  0.2060  0.0951
 2522TIP3    H129057   5.982   6.224   2.192 -0.4615  0.1839  0.0760
 2522TIP3    H229058   5.890   6.336   2.149 -1.0049  0.4145  1.7645
 2523TIP3   OH229059   1.232   4.070  14.579 -0.2491 -0.0609 -0.0480
 2523TIP3    H129060   1.299   4.132  14.552 -0.5472  0.9206  1.3829
 2523TIP3    H229061   1.272   4.021  14.651 -0.0643 -1.4634 -1.0690
 2524TIP3   OH229062   3.584   2.851   4.908  0.1678  0.5740 -0.1925
 2524TIP3    H129063   3.634   2.840   4.989  0.8161  1.7553 -0.4105
 2524TIP3    H229064   3.643   2.897   4.849  0.4396 -2.0121 -2.1018
 2525TIP3   OH229065   2.058   6.572   4.901  0.1811  0.1060  0.0542
 2525TIP3    H129066   2.120   6.498   4.903  0.5135  0.3908  1.3292
 2525TIP3    H229067   1.987   6.542   4.845  1.9809  0.2127 -2.4728
 2526TIP3   OH229068   0.010   1.857  14.219  0.3371 -0.8252  0.0575
 2526TIP3    H129069  -0.006   1.812  14.136 -1.3513 -0.5561  0.2122
 2526TIP3    H229070   0.105   1.857  14.228  0.6235 -0.0161 -2.3241
 2527TIP3   OH229071   6.586   5.246   0.778  0.0516 -0.6423  0.2066
 2527TIP3    H129072   6.546   5.307   0.841  1.1428  1.2299 -0.8198
 2527TIP3    H229073   6.548   5.271   0.693  1.9648 -0.0116 -0.5210
 2528TIP3   OH229074   6.472   1.376   2.148  0.7491 -0.0136 -0.3593
 2528TIP3    H129075   6.387   1.385   2.191  1.1902  0.4597  0.4566
 2528TIP3    H229076   6.482   1.281   2.135  0.2572 -0.1018 -0.1277
 2529TIP3   OH229077   0.138   3.045  14.002  0.2253  0.3465 -0.3997
 2529TIP3    H129078   0.177   3.082  14.082 -0.3870  0.7449 -0.2803
 2529TIP3    H229079   0.195   3.076  13.932  0.0745  1.0141 -0.2371
 2530TIP3   OH229080   0.096   4.327   6.891  0.6234 -0.2018  0.4018
 2530TIP3    H129081   0.141   4.313   6.975  0.7979  0.4631  0.4254
 2530TIP3    H229082   0.136   4.407   6.856  0.7167 -0.6048 -0.4321
 2531TIP3   OH229083   5.294   1.020  10.842  0.1506  0.2853  0.4635
 2531TIP3    H129084   5.277   0.959  10.914  0.3347 -0.4668 -0.1151
 2531TIP3    H229085   5.389   1.021  10.834  0.1057 -0.2320 -0.2543
 2532TIP3   OH229086   0.147   1.798  15.780  0.4337 -0.0226  0.5309
 2532TIP3    H129087   0.065   1.756  15.807 -0.3276  1.5803  0.8386
 2532TIP3    H229088   0.148   1.790  15.685 -0.1188 -0.0045  0.5194
 2533TIP3   OH229089   1.417   3.070  14.971  0.3981  0.1278  0.1878
 2533TIP3    H129090   1.445   3.155  14.938 -1.8710  0.7287 -0.3061
 2533TIP3    H229091   1.469   3.007  14.920  0.6612  1.1656 -0.8733
 2534TIP3   OH229092   4.920   1.168  13.674  0.3928 -0.5105 -0.0866
 2534TIP3    H129093   4.974   1.223  13.731  0.3722 -1.2754  0.6874
 2534TIP3    H229094   4.877   1.107  13.733 -1.0274 -0.1869 -0.7256
 2535TIP3   OH229095   2.737   6.784  16.896 -0.4124  0.0285  1.1665
 2535TIP3    H129096   2.794   6.736  16.836  2.8618  3.0114  1.5925
 2535TIP3    H229097   2.650   6.778  16.855  0.5877 -2.5448 -0.9229
 2536TIP3   OH229098   4.842   4.713   5.735 -0.3259 -0.0771  0.8639
 2536TIP3    H129099   4.829   4.714   5.641  1.3805  1.0563  0.5743
 2536TIP3    H229100   4.758   4.738   5.772 -0.3007  2.3813 -0.5318
 2537TIP3   OH229101   2.878   6.628  16.719  0.1624  0.0568  0.2546
 2537TIP3    H129102   2.883   6.575  16.640 -1.3631  1.1876 -0.6604
 2537TIP3    H229103   2.965   6.668  16.726  0.0349  0.7791 -1.5149
 2538TIP3   OH229104   5.884   5.503  11.820  0.1836  0.1936  0.7941
 2538TIP3    H129105   5.929   5.425  11.852 -0.1355 -0.1852  0.3136
 2538TIP3    H229106   5.953   5.568  11.810  1.3703 -1.4267 -3.5085
 2539TIP3   OH229107   0.515   2.978   1.580 -0.4487  0.4524 -0.1610
 2539TIP3    H129108   0.593   3.034   1.584 -0.8029  1.0060 -0.9197
 2539TIP3    H229109   0.550   2.889   1.582  0.1495  0.6917  0.4524
 2540TIP3   OH229110   1.275   3.547  13.034 -0.1979 -0.5514  0.5015
 2540TIP3    H129111   1.363   3.582  13.040  0.1648 -1.2476 -0.4972
 2540TIP3    H229112   1.235   3.568  13.118  0.8403 -0.0339  0.8806
 2541TIP3   OH229113   0.458   0.583  15.666  0.2868  0.1048  0.0971
 2541TIP3    H129114   0.474   0.495  15.630  1.0505  0.8606 -1.5306
 2541TIP3    H229115   0.484   0.642  15.596  2.9675  1.7583  2.2638
 2542TIP3   OH229116   2.723   3.706   6.280  0.1880 -0.4752  0.0860
 2542TIP3    H129117   2.673   3.767   6.225  0.5370 -1.6072 -1.5678
 2542TIP3    H229118   2.811   3.742   6.281 -0.0863  0.2124  0.9760
 2543TIP3   OH229119   6.665   4.371  16.978 -0.6040 -0.3640 -0.0256
 2543TIP3    H129120   6.698   4.460  16.962  0.3092 -0.8174 -0.7698
 2543TIP3    H229121   6.721   4.336  17.047 -1.0625 -0.3145  0.3768
 2544TIP3   OH229122   2.499   2.452   6.718  0.0668 -0.1682 -0.3622
 2544TIP3    H129123   2.463   2.415   6.799 -1.0978 -1.7584 -1.5412
 2544TIP3    H229124   2.442   2.526   6.699 -0.2133 -0.3412 -0.2077
 2545TIP3   OH229125   5.767   1.986  14.196 -0.1670  0.6455 -0.2213
 2545TIP3    H129126   5.827   2.026  14.259  1.1940  0.1691 -1.1711
 2545TIP3    H229127   5.724   2.060  14.154  0.2448  1.0133 -0.0032
 2546TIP3   OH229128   2.749   2.197  16.936 -0.4820 -0.0663 -0.0576
 2546TIP3    H129129   2.783   2.287  16.942  2.3200 -1.0406  0.1029
 2546TIP3    H229130   2.687   2.190  17.009  0.6955  1.2024  1.1281
 2547TIP3   OH229131   4.842   1.132  14.429 -0.3315  0.2972 -0.8385
 2547TIP3    H129132   4.764   1.187  14.432 -0.5575  0.0061 -1.2300
 2547TIP3    H229133   4.807   1.043  14.426  0.0268  0.1367 -0.3361
 2548TIP3   OH229134   1.503   6.602  14.716  0.1306  0.5368 -0.0968
 2548TIP3    H129135   1.442   6.635  14.650  1.8203  1.5989 -1.1919
 2548TIP3    H229136   1.544   6.680  14.752  1.7531 -0.1812 -0.3156
 2549TIP3   OH229137   4.887   5.274   5.635 -0.4861 -0.5221 -0.1089
 2549TIP3    H129138   4.956   5.209   5.642 -0.6862 -1.1265 -2.7016
 2549TIP3    H229139   4.924   5.343   5.580 -0.9379  0.6820  1.0299
 2550TIP3   OH229140   3.516   5.045  16.812  0.0189 -0.2416 -0.0866
 2550TIP3    H129141   3.430   5.030  16.853 -0.1765 -1.8177 -1.0034
 2550TIP3    H229142   3.553   5.119  16.861 -0.8715 -1.0287  1.8691
 2551TIP3   OH229143   6.657   0.425   2.893 -0.4914 -0.0673 -0.1301
 2551TIP3    H129144   6.684   0.360   2.828 -2.2182  0.0653 -1.0401
 2551TIP3    H229145   6.678   0.509   2.853 -1.1319  0.0025 -0.3338
 2552TIP3   OH229146   1.865   1.172  11.283  0.5162 -0.3406 -0.1659
 2552TIP3    H129147   1.932   1.201  11.345 -1.0064  0.9156  0.9602
 2552TIP3    H229148   1.888   1.217  11.202  0.4057  1.0182  0.5218
 2553TIP3   OH229149   6.402   6.175   6.146 -0.0689  0.2114  0.0286
 2553TIP3    H129150   6.309   6.153   6.140  0.3843 -2.4087  0.9298
 2553TIP3    H229151   6.433   6.125   6.222  2.8077 -2.2238 -2.4690
 2554TIP3   OH229152   5.037   5.242  14.631 -0.2492  0.1192  0.1932
 2554TIP3    H129153   4.963   5.251  14.571 -1.7594  0.6454  2.0457
 2554TIP3    H229154   5.082   5.163  14.601 -1.1442  0.1642 -1.3903
 2555TIP3   OH229155   6.810   1.132   1.369 -0.5559 -0.2645  0.6045
 2555TIP3    H129156   6.804   1.155   1.276 -0.0173  1.3053  0.9411
 2555TIP3    H229157   6.719   1.124   1.398 -0.7548  0.6626  0.2687
 2556TIP3   OH229158   1.568   2.372   2.008  0.3726  0.3210  0.1589
 2556TIP3    H129159   1.498   2.394   1.946  0.0228  1.4656  0.9370
 2556TIP3    H229160   1.640   2.340   1.952  0.2758  1.8770 -0.9150
 2557TIP3   OH229161   2.729   6.773   3.548 -0.5326  0.3533  1.0082
 2557TIP3    H129162   2.819   6.739   3.550 -0.6577  0.0044  0.8219
 2557TIP3    H229163   2.729   6.834   3.474 -0.8581 -0.8327  0.0056
 2558TIP3   OH229164   2.373   2.247  11.118 -0.0274 -0.2000  0.1601
 2558TIP3    H129165   2.406   2.195  11.045 -0.3094  0.1243 -0.2018
 2558TIP3    H229166   2.315   2.312  11.078  0.1873  0.2883  0.6219
 2559TIP3   OH229167   0.675   1.260  12.318 -0.1077 -0.3633  0.0138
 2559TIP3    H129168   0.616   1.295  12.251 -1.1939 -0.7451  0.7319
 2559TIP3    H229169   0.741   1.327  12.330 -0.0118 -0.2071 -1.2987
 2560TIP3   OH229170   0.402   5.732   1.658 -0.1107 -0.2467 -0.3655
 2560TIP3    H129171   0.446   5.651   1.685  1.6449  1.1731  1.3715
 2560TIP3    H229172   0.473   5.796   1.649 -1.6643  2.1740  2.5294
 2561TIP3   OH229173   2.247   0.666  16.234 -0.0612 -0.6734  0.3829
 2561TIP3    H129174   2.219   0.654  16.143  1.1990 -1.3098  0.0539
 2561TIP3    H229175   2.178   0.624  16.286 -1.2943  0.5572 -0.1944
 2562TIP3   OH229176   6.730   5.257  15.706 -0.1372  0.0188  0.2813
 2562TIP3    H129177   6.800   5.311  15.669 -0.6833  0.3867 -0.2289
 2562TIP3    H229178   6.698   5.206  15.632 -0.6210  0.0784  0.4504
 2563TIP3   OH229179   3.339   0.194   2.766 -0.1366  0.0774  0.8172
 2563TIP3    H129180   3.317   0.135   2.694 -0.1355 -0.0331  0.9070
 2563TIP3    H229181   3.291   0.274   2.747 -0.5525 -0.1310  0.9692
 2564TIP3   OH229182   0.868   0.758  11.483  0.4629  0.3688 -0.4286
 2564TIP3    H129183   0.903   0.685  11.535 -0.7173 -0.2562 -0.4933
 2564TIP3    H229184   0.827   0.716  11.407 -2.2816  0.8604  0.6631
 2565TIP3   OH229185   1.171   2.174  15.292  0.3166  0.3046 -0.3601
 2565TIP3    H129186   1.196   2.265  15.303  1.1976 -0.0941  1.2138
 2565TIP3    H229187   1.232   2.125  15.348 -1.1274 -1.0993  0.0617
 2566TIP3   OH229188   1.673   5.850  13.512 -0.4852 -0.5753  0.4716
 2566TIP3    H129189   1.717   5.766  13.506  0.1615 -0.1847 -0.4948
 2566TIP3    H229190   1.641   5.854  13.602  0.7924 -1.1985  0.9775
 2567TIP3   OH229191   0.578   5.373   1.102  0.1795 -0.0503 -0.0009
 2567TIP3    H129192   0.638   5.381   1.176  1.3485 -1.6772 -0.7088
 2567TIP3    H229193   0.602   5.445   1.044  1.8606 -0.9515 -0.5061
 2568TIP3   OH229194   3.731   5.089  11.704 -0.4571 -0.3606  0.2238
 2568TIP3    H129195   3.824   5.111  11.713 -1.0883  2.1712  1.1888
 2568TIP3    H229196   3.721   5.008  11.755  1.3971 -1.3406 -0.8661
 2569TIP3   OH229197   5.373   0.683   3.476  0.4467 -0.1229 -0.4111
 2569TIP3    H129198   5.283   0.653   3.490  0.1518 -0.3782 -2.6008
 2569TIP3    H229199   5.364   0.775   3.452  0.9316  0.2908  0.8883
 2570TIP3   OH229200   0.584   0.038  11.098  0.1171  0.0033  0.0313
 2570TIP3    H129201   0.495   0.072  11.103 -0.2038 -0.9579  2.0529
 2570TIP3    H229202   0.585  -0.034  11.161  2.0268 -0.7179 -0.7644
 2571TIP3   OH229203   1.286   3.670  16.542 -0.2302  0.5394 -0.2294
 2571TIP3    H129204   1.220   3.739  16.542  0.0852  0.8474  0.2846
 2571TIP3    H229205   1.363   3.710  16.583 -0.0544 -0.1195  0.0997
 2572TIP3   OH229206   6.223   4.927  16.596 -0.6134 -0.7340  0.5958
 2572TIP3    H129207   6.127   4.924  16.602 -0.5966 -1.9772  0.4743
 2572TIP3    H229208   6.241   4.918  16.503 -0.3808 -0.0410  0.5689
 2573TIP3   OH229209   2.659   3.979   5.563  0.2100  0.5891 -0.5981
 2573TIP3    H129210   2.607   3.927   5.624  2.4339 -0.3640  0.6161
 2573TIP3    H229211   2.595   4.022   5.507 -1.8178 -1.4267  0.0323
 2574TIP3   OH229212   5.790   1.553  13.257  0.1617  0.4743 -0.3215
 2574TIP3    H129213   5.819   1.553  13.165 -0.7079  0.1494 -0.6009
 2574TIP3    H229214   5.797   1.462  13.284  2.6364  0.8837  0.6785
 2575TIP3   OH229215   6.788   3.164   4.835  0.4554  0.0603 -0.4991
 2575TIP3    H129216   6.729   3.104   4.789  1.5172  0.2187 -2.1738
 2575TIP3    H229217   6.733   3.208   4.899 -1.1412 -0.1438 -1.6578
 2576TIP3   OH229218   1.362   3.857   3.964 -0.8886 -0.1647 -0.1667
 2576TIP3    H129219   1.352   3.888   4.054 -1.1950 -1.5096  0.2931
 2576TIP3    H229220   1.450   3.885   3.938  0.1792 -1.7824  1.4427
 2577TIP3   OH229221   1.971   0.635   2.913  0.4010 -0.1501  0.3205
 2577TIP3    H129222   1.887   0.674   2.939  0.5869  0.5456 -0.0878
 2577TIP3    H229223   1.963   0.543   2.937  0.7416  0.4913  3.3685
 2578TIP3   OH229224   0.546   2.136   0.630  0.2837  0.2070  0.3966
 2578TIP3    H129225   0.562   2.043   0.649  0.8138  0.6515  2.3389
 2578TIP3    H229226   0.496   2.135   0.548 -1.4644 -1.8972  1.3715
 2579TIP3   OH229227   1.187   0.470  14.801 -0.3387  0.3050  0.3298
 2579TIP3    H129228   1.243   0.524  14.745 -0.3231  0.0346  0.0822
 2579TIP3    H229229   1.123   0.531  14.837  0.2210  0.6537  0.7620
 2580TIP3   OH229230   4.520   1.463   3.416 -0.7616 -0.3278 -0.3639
 2580TIP3    H129231   4.450   1.399   3.415 -2.2063  1.1754 -0.8172
 2580TIP3    H229232   4.498   1.522   3.489 -0.0506  0.2430 -0.5920
 2581TIP3   OH229233   0.607   0.176  15.078 -0.1030  0.0892  0.2656
 2581TIP3    H129234   0.512   0.166  15.078 -0.0378 -0.5805  0.5932
 2581TIP3    H229235   0.638   0.111  15.015  0.1651 -0.0684  0.5529
 2582TIP3   OH229236   2.898   0.476   4.667  0.2311  0.3044 -0.3130
 2582TIP3    H129237   2.907   0.381   4.664  1.7068  0.4570 -1.5171
 2582TIP3    H229238   2.869   0.500   4.579  0.8392  1.0449 -0.3204
 2583TIP3   OH229239   2.341   2.505   5.819  0.0428  0.2985  0.3520
 2583TIP3    H129240   2.418   2.512   5.762  0.2795  0.6191  0.7058
 2583TIP3    H229241   2.315   2.413   5.812  1.0757 -0.0573  1.0187
 2584TIP3   OH229242   6.275   4.995   0.277  0.3317 -0.5633  0.0488
 2584TIP3    H129243   6.239   4.924   0.330  0.0259  0.2063  0.9096
 2584TIP3    H229244   6.227   4.992   0.195  0.6376 -1.6267 -0.0994
 2585TIP3   OH229245   3.650   2.084   2.603 -0.4732  0.8228  0.5615
 2585TIP3    H129246   3.665   2.035   2.522  1.7507  1.4006  0.5707
 2585TIP3    H229247   3.635   2.016   2.669 -3.7637  0.3610 -0.4955
 2586TIP3   OH229248   0.576   3.192  14.494  0.0750 -0.2216 -0.4428
 2586TIP3    H129249   0.653   3.136  14.490  0.3270  0.1787 -2.0451
 2586TIP3    H229250   0.525   3.158  14.566  2.0265 -0.1213  1.0761
 2587TIP3   OH229251   2.539   6.215   3.925 -0.0412  0.3790  0.8138
 2587TIP3    H129252   2.521   6.169   3.843 -3.3046 -1.3609  2.2994
 2587TIP3    H229253   2.465   6.274   3.936  1.2474  1.8925  1.7190
 2588TIP3   OH229254   3.908   0.660   0.173 -0.3078 -0.8057 -0.1936
 2588TIP3    H129255   3.923   0.651   0.079 -0.4994  0.3612 -0.3443
 2588TIP3    H229256   3.939   0.577   0.209  0.1908 -1.0976 -1.2333
 2589TIP3   OH229257   2.158   6.584   2.475 -0.4476  0.2743 -0.0382
 2589TIP3    H129258   2.233   6.527   2.458  1.8320  3.1442 -0.5041
 2589TIP3    H229259   2.139   6.572   2.568  1.1081 -0.0229  0.2657
 2590TIP3   OH229260   3.213   2.500  15.928 -0.3383  0.4397  0.1239
 2590TIP3    H129261   3.216   2.557  15.851 -0.8552  0.3912  0.0665
 2590TIP3    H229262   3.141   2.440  15.911 -1.0661  1.0230  1.0679
 2591TIP3   OH229263   6.656   4.852   2.743 -0.5650 -0.5755  0.4761
 2591TIP3    H129264   6.662   4.938   2.784  2.9082  0.1167 -1.0615
 2591TIP3    H229265   6.691   4.791   2.809 -0.8975 -0.4646  0.7558
 2592TIP3   OH229266   5.115   4.875   4.574 -0.2643  0.3673  0.6267
 2592TIP3    H129267   5.125   4.810   4.644  1.2962  0.3668  0.4274
 2592TIP3    H229268   5.059   4.942   4.613 -0.6814 -0.3692  1.3417
 2593TIP3   OH229269   3.175   2.992   3.443  0.7758  0.3800  0.5637
 2593TIP3    H129270   3.137   3.053   3.506  0.1692 -0.5517  1.1400
 2593TIP3    H229271   3.253   3.036   3.410 -0.5741  2.1703 -0.3567
 2594TIP3   OH229272   4.629   3.807   4.734 -0.4915  0.0859 -0.6747
 2594TIP3    H129273   4.572   3.829   4.660  0.8887 -1.1658 -2.1903
 2594TIP3    H229274   4.623   3.712   4.741 -0.5933  0.1773  0.8675
 2595TIP3   OH229275   4.404   5.265  12.626 -0.0529  0.6682 -0.4375
 2595TIP3    H129276   4.347   5.215  12.567  0.3155 -0.9091  0.4689
 2595TIP3    H229277   4.355   5.345  12.644  0.1342  1.5819 -3.3994
 2596TIP3   OH229278   4.347   5.988  13.181  0.4843  0.0635  0.0123
 2596TIP3    H129279   4.318   6.058  13.238 -2.1721 -0.9625  0.0448
 2596TIP3    H229280   4.440   5.976  13.202  0.4041  1.9411  1.6595
 2597TIP3   OH229281   0.974   3.299  11.787 -0.4874 -0.2427  0.1719
 2597TIP3    H129282   1.022   3.308  11.869 -0.5017  1.1916  0.0447
 2597TIP3    H229283   0.907   3.233  11.805  0.7232 -1.3859  0.7138
 2598TIP3   OH229284   2.967   1.502  17.257  0.0541  0.2271  0.5182
 2598TIP3    H129285   2.947   1.539  17.343  0.5078  2.2916 -0.2159
 2598TIP3    H229286   3.026   1.429  17.275 -0.7678 -0.1120  2.0202
 2599TIP3   OH229287   4.604   3.512   4.711 -0.3380  0.2488 -0.3890
 2599TIP3    H129288   4.558   3.496   4.629  1.5926 -1.1879 -1.2953
 2599TIP3    H229289   4.633   3.425   4.739  2.4113  1.0618 -0.3437
 2600TIP3   OH229290   3.671   2.013   0.229  0.3151 -0.3921 -0.6232
 2600TIP3    H129291   3.651   2.090   0.176  2.7097  1.3183  0.7398
 2600TIP3    H229292   3.636   2.033   0.316 -0.5018 -1.6200 -0.6387
 2601TIP3   OH229293   1.054   3.154  15.984 -0.2424 -0.6878  0.2537
 2601TIP3    H129294   1.131   3.122  16.032  0.4805 -1.4433 -1.3006
 2601TIP3    H229295   1.091   3.192  15.904 -1.3016  1.6488  0.7869
 2602TIP3   OH229296   1.809   0.375   6.256 -0.2760 -0.0886  0.2106
 2602TIP3    H129297   1.844   0.428   6.327 -0.2068 -0.0819  0.1716
 2602TIP3    H229298   1.794   0.289   6.295  0.7318 -0.3864 -0.0193
 2603TIP3   OH229299   0.800   0.322   0.755 -0.6260  0.2637 -0.0979
 2603TIP3    H129300   0.827   0.243   0.708 -0.3323  0.4011 -0.1656
 2603TIP3    H229301   0.706   0.330   0.736 -0.8075 -0.4393  0.4639
 2604TIP3   OH229302   6.510   1.441   2.557  0.1723  0.1438  0.3566
 2604TIP3    H129303   6.524   1.534   2.573 -0.8309 -0.0417  2.8532
 2604TIP3    H229304   6.596   1.407   2.533  0.5227  1.7093 -0.7765
 2605TIP3   OH229305   4.296   6.066   3.876  0.2510  0.1530 -0.8961
 2605TIP3    H129306   4.361   6.130   3.845  0.7215 -0.1239 -0.4817
 2605TIP3    H229307   4.327   6.039   3.962  0.5786 -1.3480 -1.4530
 2606TIP3   OH229308   6.575   5.387   2.776 -0.4575  0.3006 -0.2802
 2606TIP3    H129309   6.528   5.461   2.739  2.0347  1.3968 -1.4747
 2606TIP3    H229310   6.666   5.417   2.782  0.0812 -1.5223  2.3313
 2607TIP3   OH229311   0.450   0.254  16.525  0.0060  0.4065 -0.2474
 2607TIP3    H129312   0.418   0.330  16.477  0.2087  1.4662  1.2595
 2607TIP3    H229313   0.461   0.284  16.615  1.3405 -1.0365  0.1266
 2608TIP3   OH229314   5.253   3.226   5.480  0.2849  0.1708  0.3223
 2608TIP3    H129315   5.255   3.181   5.564  0.9562 -0.3681  0.0207
 2608TIP3    H229316   5.269   3.318   5.501  0.8620 -0.0251  0.7394
 2609TIP3   OH229317   1.986   6.187  16.493  0.1122  0.0359 -0.0751
 2609TIP3    H129318   1.957   6.220  16.408  1.2009  0.1769 -0.4076
 2609TIP3    H229319   2.061   6.131  16.472  0.4621  0.1649  0.8105
 2610TIP3   OH229320   1.088   4.838   2.106  0.1930  0.9112 -0.3311
 2610TIP3    H129321   1.156   4.867   2.045  0.3912  0.0681 -0.5181
 2610TIP3    H229322   1.136   4.811   2.185  0.1236 -0.0513 -0.6030
 2611TIP3   OH229323   1.353   6.386   2.246 -0.0532 -0.1484 -0.2729
 2611TIP3    H129324   1.268   6.368   2.286  0.5695  1.3438  1.8602
 2611TIP3    H229325   1.347   6.476   2.215  0.2107 -0.5916 -1.7107
 2612TIP3   OH229326   4.314   0.007  11.799 -0.1913  0.1280 -0.9678
 2612TIP3    H129327   4.340  -0.050  11.727 -0.4930 -0.5596 -0.5336
 2612TIP3    H229328   4.309   0.094  11.759  2.3621  0.2476 -1.1666
 2613TIP3   OH229329   4.285   1.081   0.131  0.6938  0.3519 -0.6845
 2613TIP3    H129330   4.223   1.009   0.133 -0.2398  1.1310  1.0749
 2613TIP3    H229331   4.362   1.046   0.086 -1.3738 -0.3033 -3.9920
 2614TIP3   OH229332   5.629   4.139   4.967  0.4453 -0.1671 -0.3530
 2614TIP3    H129333   5.722   4.160   4.960  0.4178 -0.0782 -0.4444
 2614TIP3    H229334   5.614   4.072   4.900  0.4876 -0.3313 -0.1999
 2615TIP3   OH229335   6.787   3.524   0.091  0.2471  0.1241  0.6826
 2615TIP3    H129336   6.808   3.439   0.130 -1.8511 -0.2338  1.1457
 2615TIP3    H229337   6.763   3.503   0.001  0.5292  0.3437  0.5557
 2616TIP3   OH229338   3.149   4.150  16.711  0.4629  0.3767  0.2041
 2616TIP3    H129339   3.129   4.155  16.804  0.8377 -1.8386  0.4577
 2616TIP3    H229340   3.067   4.171  16.667 -0.2868 -0.6380  1.0802
 2617TIP3   OH229341   4.413   4.329   5.073  0.5355  0.5278  0.3341
 2617TIP3    H129342   4.443   4.406   5.121 -1.0322  2.0435 -0.9601
 2617TIP3    H229343   4.421   4.353   4.980 -1.3588 -0.2525 -0.0936
 2618TIP3   OH229344   2.932   6.544  14.188  0.0333 -0.1047  0.1536
 2618TIP3    H129345   2.869   6.598  14.140  1.0787  0.1207 -1.0113
 2618TIP3    H229346   2.879   6.499  14.254 -1.3109  0.2285 -0.6491
 2619TIP3   OH229347   1.407   3.754   4.312  0.1884  0.6993 -0.0727
 2619TIP3    H129348   1.371   3.837   4.344  1.2337  0.3960  2.0184
 2619TIP3    H229349   1.331   3.706   4.280 -0.6688  1.7501  0.3206
 2620TIP3   OH229350   1.844   3.000  15.332 -0.6931 -0.4700  0.2238
 2620TIP3    H129351   1.885   2.977  15.249  0.3885  0.4516  0.4740
 2620TIP3    H229352   1.902   2.964  15.399 -0.5256  0.4376  0.5828
 2621TIP3   OH229353   5.054   4.329   1.812  0.1139  0.2973 -0.6253
 2621TIP3    H129354   4.963   4.357   1.813 -0.1933 -0.5846  1.3739
 2621TIP3    H229355   5.073   4.304   1.902  1.4664 -2.2074 -1.4785
 2622TIP3   OH229356   4.214   2.702  17.116  0.2795 -0.2167  0.2664
 2622TIP3    H129357   4.250   2.617  17.090  1.1339 -0.5875  2.4777
 2622TIP3    H229358   4.195   2.746  17.033  1.8648 -1.6893 -0.9530
 2623TIP3   OH229359   6.711   4.143   3.841 -0.1803 -0.5081 -0.8295
 2623TIP3    H129360   6.722   4.081   3.913 -0.8880 -0.9584 -1.0981
 2623TIP3    H229361   6.763   4.219   3.867 -1.7222  0.0120  0.9408
 2624TIP3   OH229362   4.992   1.975   3.115 -0.2441 -0.6892 -0.6314
 2624TIP3    H129363   4.953   1.888   3.110 -1.4643 -0.1488 -0.6500
 2624TIP3    H229364   4.922   2.032   3.147  0.4816  0.3252 -0.7971
 2625TIP3   OH229365   6.158   0.898  15.500  0.6879  0.5190  0.4473
 2625TIP3    H129366   6.210   0.924  15.576  0.1525 -0.6596  1.2451
 2625TIP3    H229367   6.222   0.884  15.430  1.1592  1.9055  0.5749
 2626TIP3   OH229368   3.267   5.303   2.058  0.1972  0.1053  0.3895
 2626TIP3    H129369   3.238   5.293   2.149  1.1833  0.4193  0.7439
 2626TIP3    H229370   3.307   5.389   2.055 -1.9403  1.1468 -0.9403
 2627TIP3   OH229371   3.774   4.238  16.286  0.8251 -0.1957 -0.6085
 2627TIP3    H129372   3.700   4.236  16.225  0.9100  0.6095 -0.7552
 2627TIP3    H229373   3.762   4.161  16.341 -0.4743  0.2531 -0.2248
 2628TIP3   OH229374   5.511   0.603   1.094 -0.4290 -0.2192  0.2429
 2628TIP3    H129375   5.548   0.637   1.012  0.3306 -1.8469 -0.1431
 2628TIP3    H229376   5.418   0.621   1.087 -0.1712  1.0438 -0.2743
 2629TIP3   OH229377   3.617   4.262  12.321  0.0197 -0.3120 -0.2036
 2629TIP3    H129378   3.674   4.253  12.397  0.5478  2.7596 -0.1102
 2629TIP3    H229379   3.553   4.192  12.331  0.7958 -0.7585  2.4078
 2630TIP3   OH229380   0.493   1.609  12.638  0.0585 -0.0083 -0.0534
 2630TIP3    H129381   0.417   1.653  12.676 -0.2570 -1.6916  1.3318
 2630TIP3    H229382   0.569   1.651  12.679 -0.1497  0.6452 -0.3210
 2631TIP3   OH229383   3.069   1.566  11.426 -0.4514 -0.2656 -0.1642
 2631TIP3    H129384   3.106   1.486  11.462 -1.1145 -1.1491 -1.3949
 2631TIP3    H229385   2.975   1.549  11.418 -0.4263  0.1404 -1.6357
 2632TIP3   OH229386   2.242   6.528   1.145  0.5383  0.3375 -0.1614
 2632TIP3    H129387   2.277   6.456   1.093  1.9706 -0.1882  1.4686
 2632TIP3    H229388   2.274   6.607   1.101  0.4014 -0.0499 -0.9722
 2633TIP3   OH229389   1.682   3.834  17.203  0.1960  0.1432  0.0506
 2633TIP3    H129390   1.725   3.902  17.152  0.2559 -0.2627 -0.4542
 2633TIP3    H229391   1.631   3.881  17.268 -1.2084  0.7532 -1.4231
 2634TIP3   OH229392   0.425   2.836   0.759 -0.1088  0.4625 -0.0129
 2634TIP3    H129393   0.380   2.855   0.841  0.1486 -1.9374  0.7592
 2634TIP3    H229394   0.510   2.878   0.768 -0.7970  1.8827  0.0875
 2635TIP3   OH229395   3.364   5.038  16.567  0.0493  0.5378 -0.8932
 2635TIP3    H129396   3.404   5.054  16.652  0.7082 -0.6633 -0.9611
 2635TIP3    H229397   3.272   5.061  16.579 -0.1850 -0.9753  0.5858
 2636TIP3   OH229398   4.911   6.042  14.735  0.0140 -0.2231  0.5489
 2636TIP3    H129399   4.976   6.046  14.665 -0.1336  0.4355  0.4422
 2636TIP3    H229400   4.954   5.993  14.805  0.5640  0.0587  0.4138
 2637TIP3   OH229401   1.455   4.493  10.432 -0.3380 -0.3647 -0.6935
 2637TIP3    H129402   1.474   4.553  10.360  0.0658 -0.6205 -0.8041
 2637TIP3    H229403   1.361   4.501  10.446 -0.2850  0.3195 -0.6807
 2638TIP3   OH229404   0.803   4.418   1.293 -0.7111 -0.7558 -0.2483
 2638TIP3    H129405   0.868   4.373   1.348 -1.0195 -1.2506 -0.2828
 2638TIP3    H229406   0.785   4.356   1.223 -0.4378 -0.1913 -0.8236
 2639TIP3   OH229407   3.134   2.681   5.645 -0.3690 -0.0430  0.2353
 2639TIP3    H129408   3.170   2.631   5.571 -0.6947 -0.3436  0.2761
 2639TIP3    H229409   3.137   2.772   5.616 -2.2850 -0.3061 -0.9410
 2640TIP3   OH229410   0.297   6.062   1.343 -0.1246 -0.7309 -0.1072
 2640TIP3    H129411   0.270   6.131   1.282 -3.5566 -1.1501  0.7361
 2640TIP3    H229412   0.390   6.048   1.324 -0.1970  1.5745 -2.7784
 2641TIP3   OH229413   1.834   5.662  15.042  0.6586  0.3624  0.3254
 2641TIP3    H129414   1.881   5.589  15.083  0.5355 -0.8178 -1.4781
 2641TIP3    H229415   1.746   5.658  15.079  0.7453 -0.2213  0.4773
 2642TIP3   OH229416   0.063   1.067   3.575  0.6764 -0.0919 -0.1394
 2642TIP3    H129417   0.102   1.148   3.540 -1.7431  1.1864 -0.0926
 2642TIP3    H229418   0.080   1.072   3.669  0.8323  0.1835 -0.1783
 2643TIP3   OH229419   0.656   4.366   0.024  0.0661  0.2782 -0.0712
 2643TIP3    H129420   0.705   4.295  -0.016  0.0034 -0.0764  0.4645
 2643TIP3    H229421   0.649   4.433  -0.045  1.8738  0.6402  0.0441
 2644TIP3   OH229422   4.128   5.952   1.814  0.6012 -0.4183  0.0412
 2644TIP3    H129423   4.041   5.975   1.847  0.8812 -0.8859  1.1634
 2644TIP3    H229424   4.128   5.982   1.723 -1.1380 -1.4387 -0.3376
 2645TIP3   OH229425   2.908   1.920   1.422 -0.4773 -0.1955  0.6790
 2645TIP3    H129426   2.898   1.876   1.337  0.8138  0.6753  0.0281
 2645TIP3    H229427   2.863   2.004   1.410  0.2151  0.1840  0.6099
 2646TIP3   OH229428   1.129   2.838  14.602  0.7229 -0.5089  0.3692
 2646TIP3    H129429   1.039   2.810  14.622 -0.1129  2.7617  2.0518
 2646TIP3    H229430   1.184   2.790  14.664 -0.1248 -1.0119  0.7514
 2647TIP3   OH229431   5.406   6.194  15.271  0.2952  0.4130  0.0492
 2647TIP3    H129432   5.317   6.182  15.302 -0.4465  0.2596 -1.9696
 2647TIP3    H229433   5.397   6.250  15.193  1.9083  0.0746 -0.4292
 2648TIP3   OH229434   5.196   0.400  14.324 -0.7665 -0.1519 -0.2108
 2648TIP3    H129435   5.145   0.451  14.387 -0.6908  0.6284 -0.7653
 2648TIP3    H229436   5.165   0.310  14.336 -1.4820  0.1417  0.2356
 2649TIP3   OH229437   1.464   5.588   6.618 -0.6642  0.3196 -0.5971
 2649TIP3    H129438   1.400   5.521   6.646 -1.9619  1.1754 -1.4083
 2649TIP3    H229439   1.448   5.662   6.676 -0.0272  0.3592 -0.4628
 2650TIP3   OH229440   4.957   2.609   0.442 -0.2511  0.0219  0.1199
 2650TIP3    H129441   4.952   2.594   0.536  0.6650 -1.9021 -0.0974
 2650TIP3    H229442   4.993   2.528   0.406 -1.0044  0.5366 -1.9488
 2651TIP3   OH229443   2.128   5.210   5.605 -0.6726 -0.6551  0.1327
 2651TIP3    H129444   2.119   5.263   5.526 -1.3937 -0.3699  0.4005
 2651TIP3    H229445   2.211   5.238   5.644 -0.6850 -0.2574 -0.1221
 2652TIP3   OH229446   3.445   0.081  13.262 -0.0636 -0.0432  0.6236
 2652TIP3    H129447   3.355   0.070  13.292 -0.7030  0.8014 -0.8828
 2652TIP3    H229448   3.459   0.008  13.201  0.5586 -0.6198  1.4310
 2653TIP3   OH229449   1.480   4.700   5.576 -0.3367  0.7416 -0.1272
 2653TIP3    H129450   1.491   4.654   5.493  0.8299  0.5132  0.1460
 2653TIP3    H229451   1.548   4.666   5.633  0.0345  2.2003  0.3499
 2654TIP3   OH229452   1.704   2.139  13.687  0.0100 -0.0737  0.1715
 2654TIP3    H129453   1.783   2.115  13.640 -0.2671 -0.4031 -0.1295
 2654TIP3    H229454   1.728   2.218  13.736  1.5614 -2.0273  2.7899
 2655TIP3   OH229455   6.319   1.605  12.289  0.5949 -0.0087 -0.4436
 2655TIP3    H129456   6.358   1.629  12.374 -1.0748  0.2257  0.3017
 2655TIP3    H229457   6.244   1.663  12.281 -0.5039 -1.4765 -1.0757
 2656TIP3   OH229458   1.731   5.226  13.487  0.6540 -0.0929  0.4488
 2656TIP3    H129459   1.743   5.217  13.393 -0.3523  0.6201  0.2362
 2656TIP3    H229460   1.817   5.249  13.521  0.7042  1.2136 -0.5045
 2657TIP3   OH229461   0.070   4.070  16.867  0.3407  0.7610 -0.3747
 2657TIP3    H129462   0.024   4.152  16.848 -1.2985 -0.0763 -0.1925
 2657TIP3    H229463   0.015   4.027  16.934  0.8155 -0.7726 -0.9340
 2658TIP3   OH229464   4.554   0.212   0.553 -0.0601 -0.0095  0.2074
 2658TIP3    H129465   4.547   0.197   0.647  1.8086 -2.8936 -0.0073
 2658TIP3    H229466   4.586   0.302   0.546  1.0457 -0.1775  2.4025
 2659TIP3   OH229467   6.475   0.310   5.581  0.6037  0.4697  0.7563
 2659TIP3    H129468   6.410   0.255   5.538  0.1793  1.0455  0.6383
 2659TIP3    H229469   6.502   0.372   5.513  2.3112 -0.6087  0.3883
 2660TIP3   OH229470   6.733   2.066  11.014 -0.7026  0.1629  0.0858
 2660TIP3    H129471   6.761   2.045  11.103  1.0302 -0.4586 -0.5597
 2660TIP3    H229472   6.647   2.026  11.006 -0.2034 -1.1664  0.9957
 2661TIP3   OH229473   3.331   1.981  16.364  0.3010  0.2812  0.7894
 2661TIP3    H129474   3.402   1.972  16.301 -0.6673 -1.0613 -0.1660
 2661TIP3    H229475   3.345   2.066  16.405  3.1422 -0.4158  1.5073
 2662TIP3   OH229476   6.134   3.990   5.173 -0.0567  0.0144 -0.7676
 2662TIP3    H129477   6.111   4.060   5.112  2.6844  0.6895 -1.1613
 2662TIP3    H229478   6.173   3.922   5.118 -0.9927 -1.0548 -0.1652
 2663TIP3   OH229479   3.830   2.330  11.088  0.3413 -0.2374  0.3825
 2663TIP3    H129480   3.826   2.306  10.995 -1.9753 -2.5226  0.9434
 2663TIP3    H229481   3.923   2.339  11.107  1.0963 -3.0207 -1.4410
 2664TIP3   OH229482   0.444   6.562   2.601 -0.7413  0.2803 -0.0536
 2664TIP3    H129483   0.411   6.545   2.513  0.4114  0.1620 -0.4828
 2664TIP3    H229484   0.374   6.533   2.659 -0.4423 -2.3089 -0.8438
 2665TIP3   OH229485   1.842   2.137  15.750  0.1282 -0.2320  0.1468
 2665TIP3    H129486   1.825   2.212  15.807 -0.5359 -0.4003  0.1753
 2665TIP3    H229487   1.761   2.086  15.752 -0.1217  0.0430 -1.3575
 2666TIP3   OH229488   5.163   0.108   3.056 -0.1673 -0.2372 -0.4422
 2666TIP3    H129489   5.258   0.095   3.054 -0.4345 -2.4946 -2.2341
 2666TIP3    H229490   5.130   0.035   3.108 -0.9581  0.5016  0.1219
 2667TIP3   OH229491   3.577   2.602  13.164 -0.5845  0.0390 -0.0079
 2667TIP3    H129492   3.655   2.654  13.144  0.4476 -1.5134 -0.2208
 2667TIP3    H229493   3.516   2.622  13.093  0.8881 -1.1280 -1.7313
 2668TIP3   OH229494   1.103   4.074   1.197  0.2986 -0.2304 -0.2277
 2668TIP3    H129495   1.193   4.043   1.197  0.0258 -1.0245 -0.3153
 2668TIP3    H229496   1.075   4.068   1.106 -0.6075 -2.2741  0.1295
 2669TIP3   OH229497   0.316   3.324   5.487  0.5560  0.1018  0.5640
 2669TIP3    H129498   0.394   3.375   5.506  0.4180  0.8879 -0.8680
 2669TIP3    H229499   0.269   3.375   5.421 -0.2079 -1.2881 -0.0111
 2670TIP3   OH229500   5.210   5.857   2.390 -0.5718 -0.3604 -0.2613
 2670TIP3    H129501   5.284   5.916   2.407 -1.5161  0.9104 -0.3799
 2670TIP3    H229502   5.203   5.854   2.295 -0.0159 -1.3594 -0.2847
 2671TIP3   OH229503   1.709   0.587  11.308  0.1021  0.3337 -0.0433
 2671TIP3    H129504   1.713   0.496  11.280 -2.4312 -0.0682  0.6987
 2671TIP3    H229505   1.712   0.637  11.226 -1.7085 -0.5954 -0.7291
 2672TIP3   OH229506   6.722   2.231  10.780 -0.3785  0.1800 -0.2583
 2672TIP3    H129507   6.661   2.165  10.747 -0.9114 -0.5304  1.9641
 2672TIP3    H229508   6.746   2.199  10.867  2.4487  0.9394 -0.6626
 2673TIP3   OH229509   2.630   2.919   1.040 -0.2751  0.0264 -0.0062
 2673TIP3    H129510   2.678   2.863   0.979 -1.2268 -0.1127 -0.6508
 2673TIP3    H229511   2.562   2.960   0.986 -0.6540  0.4963  0.8098
 2674TIP3   OH229512   1.373   2.946  15.197  0.5922  0.3501  0.3626
 2674TIP3    H129513   1.393   2.998  15.120  0.4860  1.5909  1.1339
 2674TIP3    H229514   1.277   2.945  15.202  0.5890  1.6347  1.3077
 2675TIP3   OH229515   2.262   1.701   0.070  0.2562 -0.5922  0.1144
 2675TIP3    H129516   2.262   1.614   0.108  2.2278 -0.7958 -0.2751
 2675TIP3    H229517   2.336   1.702   0.009  1.0959  1.7524  1.0448
 2676TIP3   OH229518   0.230   0.685   4.713 -0.1503  0.5528  0.1455
 2676TIP3    H129519   0.258   0.629   4.785  0.5522  0.9138  0.1628
 2676TIP3    H229520   0.259   0.773   4.738 -1.1146  0.9053  0.0503
 2677TIP3   OH229521   5.514   1.661   3.206  0.8028  0.3227 -0.1845
 2677TIP3    H129522   5.477   1.581   3.243 -0.3101  0.9321  0.0461
 2677TIP3    H229523   5.441   1.722   3.202  1.5074  1.1501 -0.8963
 2678TIP3   OH229524   0.548   1.854  13.842  0.2423  0.6275  0.4018
 2678TIP3    H129525   0.620   1.917  13.842  0.8770 -0.0789 -0.1310
 2678TIP3    H229526   0.591   1.769  13.851 -0.6114  0.2693  1.3060
 2679TIP3   OH229527   5.606   1.829   3.782 -0.2293 -0.1075  0.1433
 2679TIP3    H129528   5.566   1.902   3.831 -0.6468 -0.4567  0.3295
 2679TIP3    H229529   5.647   1.774   3.848 -2.5166 -1.6678  0.3765
 2680TIP3   OH229530   5.151   3.905  14.105  0.3312  0.5882  0.2988
 2680TIP3    H129531   5.124   3.856  14.027  1.0601  0.0907  0.3456
 2680TIP3    H229532   5.244   3.925  14.089 -0.1142  2.6643 -0.0887
 2681TIP3   OH229533   3.793   2.026  13.211  0.3567  0.0522  0.1994
 2681TIP3    H129534   3.757   1.951  13.258  0.5337 -2.1596 -2.8766
 2681TIP3    H229535   3.884   2.031  13.239 -0.1550  0.4137  1.8845
 2682TIP3   OH229536   0.156   3.391  17.076 -0.2415 -0.1443  0.3898
 2682TIP3    H129537   0.078   3.441  17.100  0.5290 -0.3392  3.8621
 2682TIP3    H229538   0.220   3.457  17.050 -1.4878 -0.0008 -2.8229
 2683TIP3   OH229539   6.155   4.387   1.041  0.3074  0.0082 -0.1173
 2683TIP3    H129540   6.171   4.376   0.948  1.2064  0.0285  0.0273
 2683TIP3    H229541   6.183   4.304   1.080  3.0675  1.1061  0.4878
 2684TIP3   OH229542   4.365   5.122  12.865 -0.2670  0.0603 -0.5627
 2684TIP3    H129543   4.388   5.161  12.781 -1.6250 -0.0353 -1.0022
 2684TIP3    H229544   4.269   5.126  12.868 -0.2792 -0.6665  0.6284
 2685TIP3   OH229545   4.897   4.353   4.535  0.2548  0.1389 -0.6711
 2685TIP3    H129546   4.986   4.343   4.569 -0.6766 -0.7741  1.7043
 2685TIP3    H229547   4.858   4.266   4.543 -1.9995  1.2350  2.0329
 2686TIP3   OH229548   1.167   0.212  14.882  0.2044 -0.2051 -0.0123
 2686TIP3    H129549   1.190   0.150  14.813 -1.4259 -0.4306 -0.3764
 2686TIP3    H229550   1.206   0.294  14.854  2.1600 -0.9528  0.3394
 2687TIP3   OH229551   1.073   4.600   3.240  0.1695 -0.5547  0.3592
 2687TIP3    H129552   1.093   4.601   3.334 -0.8008 -1.2030  0.5768
 2687TIP3    H229553   1.054   4.509   3.220 -1.5248 -0.1357 -0.0529
 2688TIP3   OH229554   6.458   3.744  15.413  0.1951 -0.1169  1.1031
 2688TIP3    H129555   6.370   3.728  15.380  0.2309  1.3964  0.1756
 2688TIP3    H229556   6.461   3.839  15.428  2.1278  0.1182 -0.3691
 2689TIP3   OH229557   6.738   6.075   4.974  0.4206 -0.0506 -0.3004
 2689TIP3    H129558   6.650   6.090   5.009 -0.5920 -2.0200 -1.7968
 2689TIP3    H229559   6.737   6.115   4.887  1.3795  0.8108  0.0642
 2690TIP3   OH229560   1.460   2.370  11.776 -0.6107  0.2895  0.6595
 2690TIP3    H129561   1.522   2.426  11.823 -0.1051  1.1710 -0.9914
 2690TIP3    H229562   1.477   2.283  11.810  0.7240  0.6894  1.0905
 2691TIP3   OH229563   5.662   1.690   1.557  0.3272 -0.4442 -0.3476
 2691TIP3    H129564   5.699   1.654   1.637  0.3568 -1.7672 -0.9196
 2691TIP3    H229565   5.627   1.775   1.582 -1.9032 -1.8289  1.6616
 2692TIP3   OH229566   6.323   0.217  10.719  0.0840  0.0544  0.0655
 2692TIP3    H129567   6.280   0.138  10.751 -1.4440  0.3730 -1.0692
 2692TIP3    H229568   6.402   0.186  10.676 -1.5465 -1.1605 -2.2579
 2693TIP3   OH229569   4.231   0.294   1.638 -0.8165 -0.2424 -0.1424
 2693TIP3    H129570   4.250   0.263   1.726 -1.9587  1.3660  0.7199
 2693TIP3    H229571   4.299   0.255   1.583 -0.4515 -1.7732  1.3263
 2694TIP3   OH229572   1.991   4.549  12.018  0.1136 -0.4209  0.1915
 2694TIP3    H129573   1.983   4.630  12.068 -0.6993 -0.4928  0.1867
 2694TIP3    H229574   1.984   4.479  12.084 -0.2597 -0.5056  0.0603
 2695TIP3   OH229575   1.404   6.726   4.827 -0.0424 -0.7655  0.5274
 2695TIP3    H129576   1.364   6.780   4.759 -0.4651 -1.3599  0.2903
 2695TIP3    H229577   1.408   6.783   4.904  4.1905  1.3872 -0.9438
 2696TIP3   OH229578   2.630   3.160   3.696 -0.5706 -0.1477  0.1124
 2696TIP3    H129579   2.550   3.123   3.732 -0.1835 -1.4432 -0.3136
 2696TIP3    H229580   2.600   3.233   3.641 -1.2637  0.9124  1.8195
 2697TIP3   OH229581   6.124   4.799  12.193  0.2074 -0.6397 -0.0637
 2697TIP3    H129582   6.197   4.805  12.131  1.5613 -1.0952  1.4204
 2697TIP3    H229583   6.065   4.734  12.154  1.3558 -1.4237 -0.5688
 2698TIP3   OH229584   2.786   0.168   3.375 -0.0863  0.3220  0.6392
 2698TIP3    H129585   2.759   0.220   3.451 -1.4841 -0.4973  0.7376
 2698TIP3    H229586   2.866   0.210   3.345 -0.7408  2.0531  1.1804
 2699TIP3   OH229587   0.812   6.614  11.429  0.4050  0.3687 -0.7107
 2699TIP3    H129588   0.748   6.653  11.370  0.0017 -1.2228 -1.3648
 2699TIP3    H229589   0.760   6.576  11.499  0.5581 -1.3534 -1.4937
 2700TIP3   OH229590   6.247   3.180  14.237  0.0134  0.5975 -0.1616
 2700TIP3    H129591   6.167   3.128  14.234  0.8879 -0.7502 -1.4671
 2700TIP3    H229592   6.317   3.116  14.232  1.1349  1.8723 -1.9483
 2701TIP3   OH229593   4.790   6.293   2.218 -0.5264 -0.5647  0.5523
 2701TIP3    H129594   4.812   6.212   2.263 -2.3019 -1.2143  0.2877
 2701TIP3    H229595   4.716   6.329   2.266 -1.9730 -0.8711 -1.3289
 2702TIP3   OH229596   2.565   4.913   0.627 -0.1083 -0.0176  0.6759
 2702TIP3    H129597   2.617   4.992   0.637  0.3937 -0.3645  0.8377
 2702TIP3    H229598   2.554   4.903   0.532 -0.0042  0.1356  0.6478
 2703TIP3   OH229599   6.302   6.100  11.176  0.1479 -0.2946 -0.0443
 2703TIP3    H129600   6.315   6.062  11.089  0.5485 -1.8549  0.6524
 2703TIP3    H229601   6.390   6.126  11.204 -0.0908  0.9635 -0.4090
 2704TIP3   OH229602   6.133   1.104  16.887 -0.6693 -0.6613 -0.0563
 2704TIP3    H129603   6.218   1.100  16.844 -0.3315  0.2252  0.5026
 2704TIP3    H229604   6.093   1.184  16.855 -1.2842 -1.0479 -0.2783
 2705TIP3   OH229605   3.410   1.413   4.833 -0.1100  0.4265  0.1213
 2705TIP3    H129606   3.394   1.506   4.850 -2.2688 -0.1393  1.5652
 2705TIP3    H229607   3.324   1.372   4.838  0.9996 -1.9645  1.5507
 2706TIP3   OH229608   3.098   4.858  11.262  0.6506 -0.8366  0.1731
 2706TIP3    H129609   3.173   4.917  11.257  0.7837 -1.0597 -0.8796
 2706TIP3    H229610   3.043   4.894  11.331  1.0980  0.0789  0.0725
 2707TIP3   OH229611   3.687   1.081  12.872 -0.1086  0.2870 -0.2727
 2707TIP3    H129612   3.687   0.999  12.921 -0.0898  0.7213  0.4661
 2707TIP3    H229613   3.619   1.069  12.806 -1.4261  0.3732  1.0221
 2708TIP3   OH229614   6.609   6.061  12.346  0.2534  0.4255 -0.3048
 2708TIP3    H129615   6.527   6.043  12.392  0.4825 -1.2121 -0.4656
 2708TIP3    H229616   6.656   5.978  12.346  3.2081  1.8986  2.1832
 2709TIP3   OH229617   0.055   4.869  17.280  0.4619  0.0620 -0.2574
 2709TIP3    H129618   0.077   4.961  17.295  1.8155 -0.1122 -1.0600
 2709TIP3    H229619   0.134   4.831  17.244 -0.8661 -0.8214 -2.4413
 2710TIP3   OH229620   3.849   5.386   4.932 -0.2979  0.1319 -0.2783
 2710TIP3    H129621   3.808   5.300   4.939  1.0199 -0.3936  1.8504
 2710TIP3    H229622   3.936   5.369   4.897  0.4094  0.4226  1.2856
 2711TIP3   OH229623   3.103   3.172   5.666  0.1699 -0.1812  0.8017
 2711TIP3    H129624   3.033   3.210   5.614  0.4266  0.6266  1.0350
 2711TIP3    H229625   3.130   3.242   5.726 -0.6674 -1.3227  2.5949
 2712TIP3   OH229626   5.689   1.507   0.659  0.3316 -0.0822  0.4711
 2712TIP3    H129627   5.637   1.462   0.592 -0.3505 -0.7314  1.3961
 2712TIP3    H229628   5.779   1.482   0.641  0.8229  3.1638 -2.8211
 2713TIP3   OH229629   3.848   3.292  13.745  0.1708 -0.0355  0.0378
 2713TIP3    H129630   3.835   3.203  13.777  0.5453  0.4415  1.5889
 2713TIP3    H229631   3.889   3.339  13.818  2.4469  0.7511 -1.6067
 2714TIP3   OH229632   1.669   0.252  16.853  0.5394 -0.0357 -0.3800
 2714TIP3    H129633   1.712   0.317  16.908  0.5214 -0.9929  0.8055
 2714TIP3    H229634   1.586   0.234  16.897 -0.2417  0.3734 -1.6195
 2715TIP3   OH229635   5.507   1.632  12.930 -0.0096 -0.2646  0.8068
 2715TIP3    H129636   5.511   1.607  13.022 -0.6359 -0.6075  0.7445
 2715TIP3    H229637   5.552   1.561  12.884 -1.0562 -0.8789  0.7091
 2716TIP3   OH229638   3.126   6.276  10.825  0.7678  0.8861 -0.2801
 2716TIP3    H129639   3.050   6.315  10.868  0.0600  0.1715 -0.8781
 2716TIP3    H229640   3.191   6.346  10.824 -0.1484  1.7472 -0.4654
 2717TIP3   OH229641   3.009   4.188   4.448 -0.1746  0.4431 -0.0876
 2717TIP3    H129642   2.972   4.273   4.472  2.1398  1.3860  0.4460
 2717TIP3    H229643   3.027   4.195   4.354  0.6105  0.8126  0.0828
 2718TIP3   OH229644   1.581   0.116   1.861  0.0313  0.2488 -0.5517
 2718TIP3    H129645   1.539   0.121   1.947  1.4517 -1.5044  0.3262
 2718TIP3    H229646   1.509   0.110   1.799 -1.0256 -0.2986  0.6872
 2719TIP3   OH229647   2.889   5.987   4.642 -0.1544  0.2438  0.6390
 2719TIP3    H129648   2.816   5.926   4.635  0.6829 -0.8281  0.9894
 2719TIP3    H229649   2.966   5.932   4.655  0.6516  1.3697  0.8402
 2720TIP3   OH229650   6.659   3.758  12.160  0.3223  0.2377 -0.1980
 2720TIP3    H129651   6.597   3.745  12.232  1.8929  0.7549  1.3248
 2720TIP3    H229652   6.610   3.736  12.081 -0.9905 -1.9518  1.1391
 2721TIP3   OH229653   1.012   2.661  11.716  0.3247 -0.3984  0.3207
 2721TIP3    H129654   1.038   2.607  11.790 -1.8995  0.8818  2.1625
 2721TIP3    H229655   0.926   2.627  11.691  0.6577 -0.2475 -1.1737
 2722TIP3   OH229656   3.204   6.271  16.547  0.6453  0.3089 -0.3841
 2722TIP3    H129657   3.268   6.211  16.583  0.8176  0.1226 -0.9932
 2722TIP3    H229658   3.169   6.227  16.470  0.1163  0.6028 -0.3205
 2723TIP3   OH229659   3.845   1.640  11.942  0.4617 -0.6217 -0.6105
 2723TIP3    H129660   3.764   1.606  11.982 -0.9865  1.1955 -1.8491
 2723TIP3    H229661   3.880   1.702  12.007 -2.4174  3.0944 -2.2576
 2724TIP3   OH229662   4.660   0.348   5.816 -0.5345  0.2177  0.7298
 2724TIP3    H129663   4.691   0.309   5.898  1.6648 -2.6531 -1.2750
 2724TIP3    H229664   4.736   0.392   5.779 -0.4666 -1.4344 -1.2808
 2725TIP3   OH229665   3.373   3.046  13.429 -0.0173  0.1994 -0.0341
 2725TIP3    H129666   3.399   2.955  13.415  0.4944  0.2635  0.4542
 2725TIP3    H229667   3.284   3.041  13.461  0.3139 -0.1902  0.8493
 2726TIP3   OH229668   3.864   6.648  14.598  0.1133 -0.7910 -0.3833
 2726TIP3    H129669   3.808   6.724  14.618  1.5776 -0.0318  1.0716
 2726TIP3    H229670   3.833   6.580  14.658  0.9010 -0.2717  0.6465
 2727TIP3   OH229671   1.220   1.092  16.375  0.0873 -0.3367  0.2328
 2727TIP3    H129672   1.239   1.016  16.319  0.2403  1.3065 -2.0581
 2727TIP3    H229673   1.125   1.102  16.370  0.0454 -0.4650  0.6991
 2728TIP3   OH229674   0.242   2.118  11.333  0.3279  0.1692 -0.1251
 2728TIP3    H129675   0.309   2.059  11.300  0.8127  0.5174  0.2294
 2728TIP3    H229676   0.289   2.181  11.387 -0.4319 -0.3684  1.2185
 2729TIP3   OH229677   6.788   2.574  13.267  0.5508 -0.4524  0.4448
 2729TIP3    H129678   6.746   2.644  13.218 -0.4773  1.3737  3.6054
 2729TIP3    H229679   6.716   2.530  13.312  1.3697 -2.4191 -0.0897
 2730TIP3   OH229680   1.440   2.093  13.613 -0.3871 -0.0263  0.2896
 2730TIP3    H129681   1.527   2.103  13.650 -1.0503 -0.2559  1.9831
 2730TIP3    H229682   1.453   2.035  13.538  0.7734 -0.8579  1.0974
 2731TIP3   OH229683   4.072   4.521  15.108  0.2987  0.5252  0.0010
 2731TIP3    H129684   4.123   4.530  15.027 -2.4012  0.2037 -1.8477
 2731TIP3    H229685   4.014   4.447  15.092  0.9387 -0.7816  3.0315
 2732TIP3   OH229686   3.910   4.192   0.253 -0.1738 -0.2516 -0.2680
 2732TIP3    H129687   4.004   4.178   0.240 -0.5056 -0.7048 -2.6143
 2732TIP3    H229688   3.881   4.234   0.172 -1.9979 -0.0604  0.4442
 2733TIP3   OH229689   1.030   6.629  12.061  0.2226 -0.2648 -0.4545
 2733TIP3    H129690   0.956   6.690  12.066  0.1133 -0.4962  0.8249
 2733TIP3    H229691   1.049   6.606  12.151  0.1506 -2.2988 -0.9181
 2734TIP3   OH229692   3.814   1.831   2.513 -0.0179  0.1263 -0.1137
 2734TIP3    H129693   3.751   1.768   2.548  1.3052 -1.9086 -1.1719
 2734TIP3    H229694   3.769   1.870   2.438  0.0147 -1.5774 -1.0847
 2735TIP3   OH229695   6.788   6.500  12.756 -0.8869 -0.2169  0.1237
 2735TIP3    H129696   6.739   6.452  12.690  0.5648 -0.6290 -0.6878
 2735TIP3    H229697   6.760   6.462  12.839  1.3446 -3.6630 -0.5282
 2736TIP3   OH229698   4.452   2.973  13.806 -0.4030  0.4001  0.0966
 2736TIP3    H129699   4.466   2.880  13.787  1.3519  1.0245 -2.1150
 2736TIP3    H229700   4.385   3.000  13.742 -2.0073  0.3943  1.7029
 2737TIP3   OH229701   3.575   5.359  11.509  0.3188  0.1972  0.2809
 2737TIP3    H129702   3.494   5.327  11.547  1.4424 -2.7975  0.4531
 2737TIP3    H229703   3.550   5.397  11.425 -1.3555  0.3468  0.8286
 2738TIP3   OH229704   1.844   1.146  15.374  0.2314 -0.5394 -0.2862
 2738TIP3    H129705   1.923   1.195  15.349  0.6192 -0.3299  1.2653
 2738TIP3    H229706   1.878   1.070  15.422 -0.4397 -1.4838 -1.2686
 2739TIP3   OH229707   3.080   1.804   5.556  0.3618 -0.5363  0.1058
 2739TIP3    H129708   3.119   1.879   5.600 -0.2326 -0.3256  0.2799
 2739TIP3    H229709   3.097   1.729   5.614  0.1515 -0.3735  0.3789
 2740TIP3   OH229710   1.755   4.383   5.089 -0.1521 -0.0241  0.0393
 2740TIP3    H129711   1.838   4.384   5.041  0.1476 -0.5611  0.5442
 2740TIP3    H229712   1.752   4.468   5.132  1.4374 -0.9751  2.1960
 2741TIP3   OH229713   1.021   2.297  13.593  0.0348 -0.1584  0.0387
 2741TIP3    H129714   1.067   2.262  13.517  0.5808 -0.2786  0.4168
 2741TIP3    H229715   1.061   2.252  13.668  0.2134  0.7120  0.4707
 2742TIP3   OH229716   5.550   2.917  10.867  0.1038  0.2486 -0.0114
 2742TIP3    H129717   5.493   2.932  10.942 -1.6958 -1.3227 -1.0043
 2742TIP3    H229718   5.531   2.989  10.807  0.6764  0.8403  0.5008
 2743TIP3   OH229719   6.148   3.214   0.645 -0.4203  0.1871 -0.0068
 2743TIP3    H129720   6.089   3.194   0.572 -0.0734 -1.3748  0.1100
 2743TIP3    H229721   6.235   3.216   0.605 -0.1354 -1.4559  0.4425
 2744TIP3   OH229722   0.463   6.492   5.392 -0.1112  0.2207 -0.5115
 2744TIP3    H129723   0.452   6.404   5.429 -0.9388  0.7640  0.6047
 2744TIP3    H229724   0.404   6.493   5.316 -1.2682  0.2745  0.3556
 2745TIP3   OH229725   6.262   1.526   4.301  0.0341 -0.5949  0.2007
 2745TIP3    H129726   6.211   1.516   4.381 -1.8476 -0.8667 -0.9639
 2745TIP3    H229727   6.202   1.502   4.231  1.6079 -0.3399 -1.3157
 2746TIP3   OH229728   0.049   6.000   1.000  0.1728 -0.0812  0.2910
 2746TIP3    H129729   0.134   6.010   0.957  0.6451 -1.0261  0.9801
 2746TIP3    H229730   0.064   5.935   1.068 -0.8467  0.5469  1.1416
 2747TIP3   OH229731   3.104   6.701  15.975  0.1118 -0.1930 -0.2037
 2747TIP3    H129732   3.118   6.606  15.977  0.2944 -0.1565  0.6766
 2747TIP3    H229733   3.192   6.738  15.967 -0.0700 -0.1127 -2.5811
 2748TIP3   OH229734   3.060   6.708   3.999 -0.1465  0.4068  0.5327
 2748TIP3    H129735   2.996   6.646   4.033 -0.3085  0.5451  0.4801
 2748TIP3    H229736   3.056   6.782   4.060  1.8390 -0.6687  2.0949
 2749TIP3   OH229737   0.379   3.962  14.300 -0.1565  0.2996  0.4599
 2749TIP3    H129738   0.433   4.027  14.345 -0.9272  0.4067  1.2456
 2749TIP3    H229739   0.436   3.928  14.232  1.4423 -0.6755  2.1979
 2750TIP3   OH229740   3.562   4.238  14.231 -0.0604 -0.0297  0.0657
 2750TIP3    H129741   3.486   4.263  14.178  0.4559  0.3658 -0.4986
 2750TIP3    H229742   3.569   4.307  14.297  0.3526  0.4074 -0.4415
 2751TIP3   OH229743   3.413   5.070   5.173  0.0754 -0.0464  0.2327
 2751TIP3    H129744   3.394   5.106   5.260 -0.7597 -0.7027  0.3316
 2751TIP3    H229745   3.495   5.022   5.184  0.0564  0.0074  0.6193
 2752TIP3   OH229746   1.640   1.161   4.295 -0.1169  0.2087 -0.0784
 2752TIP3    H129747   1.661   1.231   4.233  0.7252  0.2141  0.2042
 2752TIP3    H229748   1.723   1.140   4.337 -0.6364  0.0403  0.8857
 2753TIP3   OH229749   2.835   4.254  12.418  0.0733 -0.0663  0.2202
 2753TIP3    H129750   2.780   4.312  12.470  0.5254  0.6397 -0.0556
 2753TIP3    H229751   2.832   4.170  12.462  1.4030  0.8006  2.0982
 2754TIP3   OH229752   3.529   4.377   2.681 -0.0832 -0.1741  0.2577
 2754TIP3    H129753   3.565   4.461   2.710 -0.7350  0.3736 -0.5010
 2754TIP3    H229754   3.442   4.374   2.720 -0.5062  0.0274 -0.6714
 2755TIP3   OH229755   4.303   1.184  13.872  0.0173 -0.1078  0.3802
 2755TIP3    H129756   4.230   1.126  13.850 -1.0065  0.5883  1.8378
 2755TIP3    H229757   4.276   1.229  13.951  1.5562  1.0435  0.3053
 2756TIP3   OH229758   3.942   6.011  16.084  0.9045  0.4457  0.1806
 2756TIP3    H129759   4.013   5.978  16.140 -0.0005 -1.6640  0.1883
 2756TIP3    H229760   3.899   5.932  16.052 -0.2827  1.6575 -1.3502
 2757TIP3   OH229761   3.257   2.321  11.394  0.3558  0.1583 -0.1531
 2757TIP3    H129762   3.321   2.257  11.362  1.0185  2.3357 -3.7082
 2757TIP3    H229763   3.172   2.278  11.380  0.7397  0.1422 -3.1262
 2758TIP3   OH229764   1.319   6.680  14.126 -0.0322  0.1379 -0.6151
 2758TIP3    H129765   1.361   6.602  14.091 -0.7380  0.0219 -1.2349
 2758TIP3    H229766   1.227   6.656  14.135 -0.2045  0.7979 -0.5210
 2759TIP3   OH229767   3.835   2.912   4.220  0.3942 -0.2763  0.1117
 2759TIP3    H129768   3.849   2.999   4.183 -1.5932  0.0638  0.0712
 2759TIP3    H229769   3.788   2.927   4.301  2.6750 -1.1791  1.7074
 2760TIP3   OH229770   3.549   1.145  16.414  0.7866  0.6041  0.3190
 2760TIP3    H129771   3.502   1.148  16.330 -2.8323 -0.1289  2.1530
 2760TIP3    H229772   3.596   1.062  16.412  0.3632  0.3683 -0.7738
 2761TIP3   OH229773   2.380   1.164  14.594 -0.3018 -0.1192 -0.1383
 2761TIP3    H129774   2.437   1.197  14.664  1.9194  1.7924 -2.6038
 2761TIP3    H229775   2.318   1.235  14.578 -0.6231 -0.4301 -0.2957
 2762TIP3   OH229776   5.917   5.142  16.521  0.1763 -0.3511 -0.1742
 2762TIP3    H129777   5.971   5.147  16.442  1.1755  0.4373  0.5354
 2762TIP3    H229778   5.877   5.228  16.529  0.8759 -0.1014  0.7205
 2763TIP3   OH229779   1.550   2.266   6.582  0.3029  0.6942  0.1972
 2763TIP3    H129780   1.457   2.251   6.566  0.4832  1.8135 -2.1638
 2763TIP3    H229781   1.572   2.343   6.531  3.1707 -1.2442 -1.7879
 2764TIP3   OH229782   1.438   4.637  11.316  0.0822  0.1708 -0.0934
 2764TIP3    H129783   1.381   4.607  11.387  0.6053  1.1640  0.7833
 2764TIP3    H229784   1.437   4.566  11.252  0.6928 -1.4042  1.5446
 2765TIP3   OH229785   2.297   5.904   4.183  0.0800  0.3808 -0.3395
 2765TIP3    H129786   2.260   5.836   4.126  0.1984  0.2797 -0.2961
 2765TIP3    H229787   2.370   5.861   4.228  0.4808  0.6876 -0.6971
 2766TIP3   OH229788   4.447   1.032  16.374 -0.5263 -0.0127  0.4177
 2766TIP3    H129789   4.411   0.971  16.438 -2.3130  1.4468  0.8973
 2766TIP3    H229790   4.390   1.023  16.298 -0.5758  0.7690  0.3578
 2767TIP3   OH229791   0.832   3.875  11.111 -0.6820  0.6842 -0.6696
 2767TIP3    H129792   0.753   3.821  11.101 -0.4748 -0.4613  2.5370
 2767TIP3    H229793   0.885   3.854  11.035 -2.1477 -0.9520 -1.3185
 2768TIP3   OH229794   4.961   4.627  13.192  0.2843  0.0449  0.0073
 2768TIP3    H129795   5.032   4.635  13.128 -0.2799 -0.6057 -0.7059
 2768TIP3    H229796   4.945   4.717  13.220 -1.4925  0.8005 -3.0257
 2769TIP3   OH229797   1.836   5.979  13.711 -0.0268  0.3022 -0.2028
 2769TIP3    H129798   1.836   5.959  13.617 -1.9033  0.1610 -0.2219
 2769TIP3    H229799   1.745   5.968  13.738  0.4411  0.4777  1.6243
 2770TIP3   OH229800   2.097   4.332  16.229 -0.1841  0.0106 -0.3087
 2770TIP3    H129801   2.012   4.289  16.218 -0.2677  0.1297 -0.1493
 2770TIP3    H229802   2.149   4.303  16.155 -0.6258  0.5562 -0.8481
 2771TIP3   OH229803   2.483   0.769   1.211  0.5285 -0.5245 -0.3014
 2771TIP3    H129804   2.454   0.797   1.124  0.5976  0.1907 -0.0988
 2771TIP3    H229805   2.480   0.674   1.207  1.8384 -0.5446 -1.5354
 2772TIP3   OH229806   5.098   6.639   5.393  0.4897  0.4649 -0.2696
 2772TIP3    H129807   5.074   6.724   5.354 -1.3637 -0.6523 -1.7516
 2772TIP3    H229808   5.022   6.617   5.447  1.5525  0.3475  1.2187
 2773TIP3   OH229809   4.565   1.649  14.060 -0.0531  0.3327  0.2770
 2773TIP3    H129810   4.642   1.595  14.081  0.8579  1.3840 -0.2686
 2773TIP3    H229811   4.551   1.702  14.138  0.8638  1.3719 -0.2367
 2774TIP3   OH229812   6.707   5.398  13.207  0.1009  0.2497 -0.1246
 2774TIP3    H129813   6.624   5.365  13.172 -0.4184  1.3435  0.0440
 2774TIP3    H229814   6.683   5.446  13.286  0.8269  1.0214 -0.3555
 2775TIP3   OH229815   0.462   5.972  11.022  0.7148 -0.0484 -0.0800
 2775TIP3    H129816   0.478   5.897  10.965  0.8534 -0.6367  0.7259
 2775TIP3    H229817   0.490   6.048  10.969  1.2234 -0.6151 -0.6388
 2776TIP3   OH229818   4.890   3.952   4.224  0.1775  0.0067  0.0540
 2776TIP3    H129819   4.913   3.875   4.173  3.3604  0.7922  0.1230
 2776TIP3    H229820   4.880   4.022   4.159 -1.6724 -0.1639  0.0880
 2777TIP3   OH229821   0.300   4.547   2.416  0.0710  0.1185 -0.3234
 2777TIP3    H129822   0.337   4.581   2.497  0.8132  1.1058 -1.0554
 2777TIP3    H229823   0.334   4.605   2.348 -3.0844  1.3413 -1.0279
 2778TIP3   OH229824   4.685   5.042   3.048  0.0711 -0.8920 -0.9308
 2778TIP3    H129825   4.610   5.089   3.085  2.0512 -0.4929  3.1283
 2778TIP3    H229826   4.659   4.950   3.050 -0.5341 -0.7130 -0.0871
 2779TIP3   OH229827   5.933   1.557  17.054  0.6827  0.2663  0.0354
 2779TIP3    H129828   5.875   1.586  16.984 -0.5979 -2.1372  0.0080
 2779TIP3    H229829   5.902   1.470  17.077  1.8649  0.4494  2.7410
 2780TIP3   OH229830   4.857   6.803   2.744 -0.3450 -0.3588 -0.7558
 2780TIP3    H129831   4.766   6.817   2.718 -1.0381 -3.0705 -0.1113
 2780TIP3    H229832   4.863   6.844   2.831 -1.3447 -1.1990 -0.2581
 2781TIP3   OH229833   1.070   0.820  15.038 -0.3695 -0.5226  0.2061
 2781TIP3    H129834   1.101   0.844  15.125 -2.1083 -2.0120  1.2919
 2781TIP3    H229835   1.073   0.724  15.037 -0.6181 -0.5384 -1.2904
 2782TIP3   OH229836   5.257   3.599  16.504  1.1622  0.5542  0.3911
 2782TIP3    H129837   5.204   3.659  16.556  1.1210 -1.7672  3.2567
 2782TIP3    H229838   5.194   3.557  16.445  0.4455  0.4247  1.2320
 2783TIP3   OH229839   3.675   4.598   0.086  0.1918  0.3328  0.0944
 2783TIP3    H129840   3.633   4.537   0.147 -3.6496 -0.8685 -3.2977
 2783TIP3    H229841   3.735   4.543   0.036  2.4419  1.0802  1.8005
 2784TIP3   OH229842   6.268   5.069   1.948 -0.3944  0.2227 -0.3300
 2784TIP3    H129843   6.218   5.147   1.970 -1.1535  0.0691 -1.4546
 2784TIP3    H229844   6.304   5.040   2.032  1.6403  2.9050 -0.1183
 2785TIP3   OH229845   6.122   3.404   4.843 -0.2092  0.1883  0.6696
 2785TIP3    H129846   6.149   3.373   4.930  1.2259  0.8354  0.4908
 2785TIP3    H229847   6.186   3.473   4.822 -0.5886  0.0980 -0.8534
 2786TIP3   OH229848   6.493   6.721  10.711  0.0324  0.7309 -0.4721
 2786TIP3    H129849   6.402   6.748  10.698 -0.0343  0.4820 -0.5488
 2786TIP3    H229850   6.530   6.721  10.623 -0.5569 -1.4396 -0.7902
 2787TIP3   OH229851   0.083   1.318   5.806  0.1095 -0.2333  0.7830
 2787TIP3    H129852   0.163   1.319   5.860  1.0248  1.5240 -0.5075
 2787TIP3    H229853   0.107   1.367   5.727 -2.2881  0.4238  0.3930
 2788TIP3   OH229854   5.275   5.535   0.729  0.0365 -0.4055  0.0087
 2788TIP3    H129855   5.288   5.543   0.823 -1.3514  0.3428  0.1722
 2788TIP3    H229856   5.358   5.561   0.690 -0.3227  2.4797  0.9497
 2789TIP3   OH229857   5.808   4.353   6.174  0.3157 -0.0820 -0.9196
 2789TIP3    H129858   5.870   4.340   6.246  0.3361 -0.4645 -1.0033
 2789TIP3    H229859   5.781   4.444   6.182 -0.2003 -0.3057 -0.0158
 2790TIP3   OH229860   4.014   1.703  11.629  0.3008 -0.0754 -0.0929
 2790TIP3    H129861   3.926   1.732  11.605 -0.8484 -1.7220  1.7999
 2790TIP3    H229862   4.071   1.735  11.558 -1.8789  0.5649 -1.6434
 2791TIP3   OH229863   0.240   2.784  14.283 -0.0020  0.5273  0.0127
 2791TIP3    H129864   0.171   2.782  14.350  0.1376  1.7212  0.2086
 2791TIP3    H229865   0.249   2.876  14.260 -0.8402  0.0738 -2.4918
 2792TIP3   OH229866   1.600   5.239  13.974  0.0322 -0.5167 -0.1604
 2792TIP3    H129867   1.512   5.202  13.964  0.3247 -1.5566  0.8363
 2792TIP3    H229868   1.598   5.282  14.059 -0.0383  1.0923 -0.9413
 2793TIP3   OH229869   6.218   0.918   4.507  0.1924  0.0123 -0.4293
 2793TIP3    H129870   6.265   0.972   4.444  0.4654  0.5581  0.2326
 2793TIP3    H229871   6.126   0.938   4.492  0.3218  1.3241  0.3697
 2794TIP3   OH229872   3.640   4.756  14.374  0.1739 -0.2130  0.3434
 2794TIP3    H129873   3.702   4.819  14.411 -0.8482  1.2590 -0.3840
 2794TIP3    H229874   3.556   4.801  14.374 -0.3485 -1.0898 -1.4345
 2795TIP3   OH229875   6.639   2.114   4.073 -0.1369 -0.5908  0.2965
 2795TIP3    H129876   6.549   2.085   4.083 -0.1523 -0.2029  1.3941
 2795TIP3    H229877   6.670   2.127   4.163  1.3423 -1.7167 -0.0178
 2796TIP3   OH229878   2.870   0.672  15.992 -0.0597  0.0210 -0.1239
 2796TIP3    H129879   2.775   0.674  15.993 -0.0720  0.2703  1.9106
 2796TIP3    H229880   2.893   0.581  16.010  0.0490  0.1980  0.6989
 2797TIP3   OH229881   4.568   4.055   4.073  0.3946 -0.3514 -0.4832
 2797TIP3    H129882   4.622   4.129   4.044  0.2644 -0.6312 -1.4755
 2797TIP3    H229883   4.546   4.076   4.164  0.0553  1.0111 -0.8596
 2798TIP3   OH229884   3.171   0.772  15.728 -0.4706 -0.0645 -0.1671
 2798TIP3    H129885   3.084   0.740  15.705 -0.3957  0.1032 -0.6891
 2798TIP3    H229886   3.231   0.704  15.696 -0.4562 -0.6910  1.1190
 2799TIP3   OH229887   1.165   5.374   3.320 -0.9770  0.5369  0.4555
 2799TIP3    H129888   1.209   5.458   3.327 -0.1214  0.2568 -1.2126
 2799TIP3    H229889   1.209   5.318   3.384 -0.1022  0.7702  0.0681
 2800TIP3   OH229890   4.256   1.673  12.537  0.2216 -0.5054  0.3567
 2800TIP3    H129891   4.312   1.733  12.587  1.2855  0.9162 -2.3519
 2800TIP3    H229892   4.315   1.602  12.511 -0.6116 -1.8882  1.9870
 2801TIP3   OH229893   1.107   3.604   2.220 -0.2641  0.0327  0.0647
 2801TIP3    H129894   1.035   3.543   2.209 -0.1864  0.1400 -1.1651
 2801TIP3    H229895   1.065   3.689   2.232 -0.3470 -0.0274  0.2051
 2802TIP3   OH229896   1.609   1.202  13.092  0.6167  0.0853 -0.4319
 2802TIP3    H129897   1.516   1.204  13.115  0.9428  0.7757  0.9056
 2802TIP3    H229898   1.654   1.197  13.176  1.8241  1.2076 -0.9825
 2803TIP3   OH229899   3.794   2.720  16.093  0.4203  0.1412  0.1009
 2803TIP3    H129900   3.878   2.687  16.124 -0.5133 -1.9309  0.5739
 2803TIP3    H229901   3.764   2.779  16.161  2.9540  3.7011 -1.5592
 2804TIP3   OH229902   6.361   4.159   0.618 -0.2197 -0.8413  0.9579
 2804TIP3    H129903   6.293   4.144   0.684 -0.4850 -1.1187  0.6270
 2804TIP3    H229904   6.313   4.167   0.536  0.0462  0.2872  0.8996
 2805TIP3   OH229905   3.609   1.559   6.054 -0.3203 -0.0624  0.7849
 2805TIP3    H129906   3.585   1.467   6.044  1.0906 -0.4450  0.6057
 2805TIP3    H229907   3.701   1.563   6.025 -0.1187  1.2476  1.5154
 2806TIP3   OH229908   2.869   0.412  12.155  0.0522 -0.4643 -0.4809
 2806TIP3    H129909   2.901   0.495  12.189  0.5837 -1.3536  1.2843
 2806TIP3    H229910   2.789   0.435  12.107 -0.0357  1.0001  0.3233
 2807TIP3   OH229911   0.270   4.846  15.470 -0.0608 -0.4417  0.4548
 2807TIP3    H129912   0.223   4.920  15.433  1.7152 -0.2222 -1.5692
 2807TIP3    H229913   0.318   4.882  15.544 -0.9006 -0.1005  0.8532
 2808TIP3   OH229914   3.973   6.638   5.855 -0.3223  0.3124 -0.2703
 2808TIP3    H129915   3.974   6.569   5.921 -0.1094  0.7344  0.1800
 2808TIP3    H229916   4.006   6.597   5.776 -0.3031 -0.1300 -0.0333
 2809TIP3   OH229917   6.816   4.909  14.296 -0.0237 -0.0882 -0.1849
 2809TIP3    H129918   6.906   4.942  14.292  0.1841 -0.6799 -0.4531
 2809TIP3    H229919   6.803   4.885  14.388 -0.5369  1.6919  0.2631
 2810TIP3   OH229920   1.709   0.681   2.527 -0.0000 -0.0137  0.5653
 2810TIP3    H129921   1.752   0.739   2.464 -0.4083 -1.0500 -0.6966
 2810TIP3    H229922   1.779   0.621   2.556  0.5514  1.3518  2.2587
 2811TIP3   OH229923   4.080   0.262  15.748 -0.3008 -0.0799  0.3129
 2811TIP3    H129924   4.076   0.171  15.777 -0.9687  0.4221  1.8806
 2811TIP3    H229925   4.024   0.264  15.670 -1.6024 -0.7181  1.1859
 2812TIP3   OH229926   3.904   0.602   0.513  0.2311  0.2743  0.3555
 2812TIP3    H129927   3.904   0.696   0.498 -0.9883  0.5591  1.8536
 2812TIP3    H229928   3.991   0.583   0.549  0.5942  0.7606 -0.2521
 2813TIP3   OH229929   0.097   6.215  12.795 -0.1283 -0.1974  0.0640
 2813TIP3    H129930   0.128   6.140  12.846  0.6577 -0.3923 -0.6757
 2813TIP3    H229931   0.175   6.246  12.748 -0.1141  1.9992  1.4536
 2814TIP3   OH229932   0.788   2.517  14.942 -0.1334  0.2964  0.3096
 2814TIP3    H129933   0.853   2.580  14.913  2.4360 -1.1771  2.4306
 2814TIP3    H229934   0.800   2.441  14.885 -0.3911  0.2306  0.3396
 2815TIP3   OH229935   1.330   3.717  11.344  0.6719 -0.2608 -0.9810
 2815TIP3    H129936   1.319   3.779  11.272  0.6426  0.2951 -0.5047
 2815TIP3    H229937   1.249   3.724  11.395  0.6534 -0.7156 -0.9424
 2816TIP3   OH229938   4.021   6.056  15.655  0.2015 -0.4140 -0.0225
 2816TIP3    H129939   3.927   6.073  15.648  0.6294  2.9336  0.5311
 2816TIP3    H229940   4.054   6.069  15.566  0.1005 -2.4223 -0.3934
 2817TIP3   OH229941   2.512   4.849   0.148  0.0857 -0.4841 -0.3493
 2817TIP3    H129942   2.553   4.832   0.063  0.1571 -0.0872 -0.3973
 2817TIP3    H229943   2.420   4.865   0.128  0.6642  3.2633 -0.8601
 2818TIP3   OH229944   4.934   2.768  10.600  0.0221  0.4276 -0.4209
 2818TIP3    H129945   4.940   2.831  10.529  0.8480  0.8271 -0.0109
 2818TIP3    H229946   4.851   2.788  10.644 -0.7162 -0.1123 -1.5263
 2819TIP3   OH229947   6.196   4.942   5.715 -0.0574  0.0326 -0.2048
 2819TIP3    H129948   6.153   5.022   5.688  2.0590  1.6907  0.9973
 2819TIP3    H229949   6.288   4.966   5.726  0.4997 -2.3008  1.1875
 2820TIP3   OH229950   1.973   5.597  15.668 -0.2106 -0.3471 -0.0794
 2820TIP3    H129951   2.012   5.516  15.635 -1.1374 -0.0011 -2.1485
 2820TIP3    H229952   1.916   5.628  15.597 -0.3884  1.7768  0.8983
 2821TIP3   OH229953   1.530   2.682   1.946  0.2372 -0.2056  0.7236
 2821TIP3    H129954   1.518   2.685   1.851  3.5007 -1.1553  0.1388
 2821TIP3    H229955   1.611   2.633   1.958 -0.1797 -0.2978  4.0525
 2822TIP3   OH229956   0.455   2.090   2.874 -0.2790  0.3945 -0.0856
 2822TIP3    H129957   0.485   2.153   2.808 -2.4241 -0.7859 -2.3790
 2822TIP3    H229958   0.533   2.040   2.897  0.4422  0.2537 -2.4920
 2823TIP3   OH229959   1.725   6.651  16.606 -0.3524 -0.4145  0.3248
 2823TIP3    H129960   1.809   6.675  16.644  0.2263 -1.2751 -0.3800
 2823TIP3    H229961   1.740   6.566  16.565 -1.5218 -0.5090  0.0495
 2824TIP3   OH229962   3.002   4.932  13.451  0.3001  0.1695 -0.3288
 2824TIP3    H129963   2.941   4.866  13.482  0.1086  1.2074  1.7413
 2824TIP3    H229964   3.057   4.887  13.387 -1.4268 -1.2682 -0.8863
 2825TIP3   OH229965   3.952   0.500   3.486 -0.3799  0.1826 -0.5686
 2825TIP3    H129966   3.865   0.479   3.521  0.0614 -2.0087 -0.6622
 2825TIP3    H229967   3.997   0.544   3.559 -1.4411  1.0850 -0.4257
 2826TIP3   OH229968   0.934   3.107  13.967  0.2283 -0.1086  0.6729
 2826TIP3    H129969   1.010   3.051  13.981 -0.9467 -1.8081  0.5701
 2826TIP3    H229970   0.877   3.089  14.042  0.7207  2.6123  1.8052
 2827TIP3   OH229971   0.215   1.775  11.445  0.1880 -0.3761 -0.1178
 2827TIP3    H129972   0.206   1.698  11.388  0.7965 -0.7151  0.2322
 2827TIP3    H229973   0.157   1.840  11.407 -0.6232 -1.1355 -0.2040
 2828TIP3   OH229974   3.408   5.663   4.147 -0.3585  0.0830 -0.6136
 2828TIP3    H129975   3.423   5.609   4.070 -0.6662  0.9989 -1.3249
 2828TIP3    H229976   3.489   5.654   4.199  0.6192  0.9236 -1.9318
 2829TIP3   OH229977   4.961   6.795  12.023  0.3135 -0.8057  1.0621
 2829TIP3    H129978   4.884   6.766  12.072 -0.5665  0.9734  0.8213
 2829TIP3    H229979   4.972   6.887  12.048  1.0768 -0.4300 -0.5441
 2830TIP3   OH229980   0.330   4.234  13.266 -0.3626 -0.1818 -0.5625
 2830TIP3    H129981   0.239   4.223  13.294 -0.9367 -1.2646 -2.6923
 2830TIP3    H229982   0.331   4.208  13.174  1.5555  2.3964 -1.4167
 2831TIP3   OH229983   3.010   1.043   4.772  0.6040  0.5298  0.0218
 2831TIP3    H129984   3.017   0.960   4.819  2.0023  0.5446 -0.1152
 2831TIP3    H229985   3.031   1.020   4.681 -0.6175  0.7617 -0.3320
 2832TIP3   OH229986   3.098   4.090   0.112  0.3154  0.6847 -0.1621
 2832TIP3    H129987   3.160   4.033   0.157 -0.3597 -1.1475 -1.4584
 2832TIP3    H229988   3.150   4.132   0.043  0.0001 -1.6555 -1.9365
 2833TIP3   OH229989   1.878   3.891  10.725 -0.8451 -0.2352  0.0758
 2833TIP3    H129990   1.823   3.945  10.668 -3.1810 -2.0057  0.4631
 2833TIP3    H229991   1.941   3.849  10.666 -0.6623  0.9237 -0.5803
 2834TIP3   OH229992   2.025   4.668  12.373  0.2418  0.1678 -1.0937
 2834TIP3    H129993   2.013   4.578  12.342  0.4235 -0.1664 -0.2256
 2834TIP3    H229994   2.017   4.722  12.294 -0.3363 -0.5669 -1.5481
 2835TIP3   OH229995   0.742   0.152   3.695 -0.1462  0.2938 -0.5302
 2835TIP3    H129996   0.780   0.090   3.633  0.2691 -0.4164  0.4224
 2835TIP3    H229997   0.647   0.143   3.683 -0.2256 -2.3617  1.2930
 2836TIP3   OH229998   6.232   1.830  17.265  0.1142  0.7116  0.1072
 2836TIP3    H129999   6.278   1.748  17.283  1.6985  1.5555  0.0415
 2836TIP3    H230000   6.148   1.821  17.310  0.1345 -1.0552 -0.1502
 2837TIP3   OH230001   5.284   0.557   4.847  0.3190  0.3987 -0.0035
 2837TIP3    H130002   5.370   0.566   4.888  1.0718 -1.0251 -1.2060
 2837TIP3    H230003   5.291   0.607   4.766 -0.5044  1.5204  0.5903
 2838TIP3   OH230004   1.853   0.544   6.475 -0.3268  0.6532  0.0501
 2838TIP3    H130005   1.949   0.548   6.473 -0.1729 -0.8534  1.9144
 2838TIP3    H230006   1.826   0.631   6.503  0.4002  1.4215 -1.4861
 2839TIP3   OH230007   5.199   3.142   0.366 -0.1466  0.4520 -0.0403
 2839TIP3    H130008   5.158   3.224   0.393 -1.1932  0.1179 -0.5683
 2839TIP3    H230009   5.135   3.100   0.308  0.8027 -0.2503 -0.6233
 2840TIP3   OH230010   1.235   4.336  17.216 -0.4296 -0.1932 -0.6994
 2840TIP3    H130011   1.326   4.339  17.246  0.1693 -0.1593 -2.3983
 2840TIP3    H230012   1.221   4.245  17.191 -1.0919 -0.3356  0.1399
 2841TIP3   OH230013   4.280   4.097  13.383  0.5967  0.4057 -0.0681
 2841TIP3    H130014   4.238   4.158  13.444  0.7433  0.6809 -0.2459
 2841TIP3    H230015   4.255   4.010  13.416  1.2645  0.5354  0.8128
 2842TIP3   OH230016   2.396   3.692  11.955  0.1577 -0.1173  0.2341
 2842TIP3    H130017   2.492   3.693  11.954  0.1756 -1.0067  0.2689
 2842TIP3    H230018   2.373   3.614  11.904 -0.5914  1.1428 -1.4734
 2843TIP3   OH230019   2.721   3.182   2.632  0.6476  0.1445 -0.8121
 2843TIP3    H130020   2.780   3.253   2.657 -0.3776  0.6271  0.3531
 2843TIP3    H230021   2.653   3.224   2.580 -0.3066  0.1612  0.4088
 2844TIP3   OH230022   2.955   6.659   3.491 -0.0474  0.2542 -0.2279
 2844TIP3    H130023   3.017   6.658   3.564 -0.8821  1.6166  0.5587
 2844TIP3    H230024   3.005   6.696   3.418  0.9080 -1.4787 -0.5056
 2845TIP3   OH230025   2.064   3.618   6.768  0.2856  0.1325  0.6193
 2845TIP3    H130026   2.129   3.557   6.731 -0.2550 -0.8367  1.2469
 2845TIP3    H230027   1.989   3.563   6.791 -0.2882  1.0645  1.0406
 2846TIP3   OH230028   5.594   5.751  11.885 -0.2759  0.5636 -0.2118
 2846TIP3    H130029   5.663   5.807  11.920  0.0503  1.1596 -1.6901
 2846TIP3    H230030   5.517   5.771  11.937  0.9571 -1.2819  2.5506
 2847TIP3   OH230031   3.862   0.335   0.223  0.3477  0.1856  0.2121
 2847TIP3    H130032   3.948   0.294   0.213  0.1571  0.0669 -1.1166
 2847TIP3    H230033   3.823   0.332   0.136 -0.3375  1.7225  0.4188
 2848TIP3   OH230034   6.367   4.498  15.198  0.3350  0.1509  0.1400
 2848TIP3    H130035   6.277   4.483  15.228 -0.0091  1.3244 -0.2462
 2848TIP3    H230036   6.422   4.465  15.268 -0.4333  1.2432  1.3022
 2849TIP3   OH230037   2.824   4.178   3.799 -0.1635  0.0733  0.0181
 2849TIP3    H130038   2.778   4.141   3.874  0.6284 -0.9388  0.0324
 2849TIP3    H230039   2.905   4.127   3.793  0.6168  1.3094 -0.4459
 2850TIP3   OH230040   2.682   1.168  15.714  0.2315 -0.4907 -0.1728
 2850TIP3    H130041   2.704   1.218  15.793  1.3396 -0.8320 -0.2498
 2850TIP3    H230042   2.589   1.185  15.701  0.0482 -0.3163  1.1346
 2851TIP3   OH230043   1.535   4.650  15.421 -0.2970 -0.2298 -0.7913
 2851TIP3    H130044   1.596   4.583  15.391  0.0262  0.0739 -0.8237
 2851TIP3    H230045   1.531   4.639  15.516 -0.3787 -0.4083 -0.8161
 2852TIP3   OH230046   4.162   2.882  16.024  0.1091 -0.3938 -0.2464
 2852TIP3    H130047   4.098   2.953  16.035 -0.4509 -1.0182  0.6749
 2852TIP3    H230048   4.133   2.835  15.947  1.2366  1.1189 -1.6785
 2853TIP3   OH230049   2.837   4.369  15.743  0.0213 -0.5676 -0.3113
 2853TIP3    H130050   2.910   4.382  15.683  1.0605  0.3966  1.0916
 2853TIP3    H230051   2.764   4.418  15.705  0.6085 -0.1100 -0.8492
 2854TIP3   OH230052   0.325   4.923   1.506 -0.0369 -0.8016  0.0376
 2854TIP3    H130053   0.415   4.901   1.530  0.3987 -0.2204 -1.0127
 2854TIP3    H230054   0.326   4.930   1.411 -0.5054  2.0400  0.1668
 2855TIP3   OH230055   2.648   0.217  17.130 -0.2585 -0.4189  0.0220
 2855TIP3    H130056   2.569   0.169  17.154  0.2072 -1.3349 -0.2455
 2855TIP3    H230057   2.668   0.187  17.042  0.3651 -0.1572  0.0740
 2856TIP3   OH230058   1.051   2.402  16.758 -0.5150  0.3633 -0.2846
 2856TIP3    H130059   0.985   2.429  16.695 -0.5496 -1.3782 -1.0312
 2856TIP3    H230060   1.084   2.319  16.725  1.6544  0.8948  0.3818
 2857TIP3   OH230061   0.941   6.706  15.401  0.3615 -0.2204 -0.5172
 2857TIP3    H130062   0.869   6.669  15.453 -0.1786  0.7829 -0.5304
 2857TIP3    H230063   0.998   6.746  15.466 -0.6112  1.5458 -0.6951
 2858TIP3   OH230064   5.074   1.731  15.148  0.6481 -0.1283  0.1730
 2858TIP3    H130065   5.104   1.821  15.136 -0.4697  0.0241 -1.8747
 2858TIP3    H230066   5.150   1.685  15.186  1.0031  1.7792  1.9488
 2859TIP3   OH230067   6.689   1.237   0.653  0.3068  0.1513 -0.3213
 2859TIP3    H130068   6.718   1.326   0.635  2.3593  0.1347  2.2473
 2859TIP3    H230069   6.723   1.219   0.741 -0.5051 -2.9790 -0.5513
 2860TIP3   OH230070   0.601   3.019   1.954  0.7155 -0.3870  0.8688
 2860TIP3    H130071   0.566   3.101   1.918  2.6845  0.2742  0.3206
 2860TIP3    H230072   0.524   2.968   1.975 -0.5780  0.7595 -0.7749
 2861TIP3   OH230073   5.752   6.229  17.282 -0.1342 -0.2467  0.0458
 2861TIP3    H130074   5.666   6.221  17.323 -0.3022 -0.3155 -0.3185
 2861TIP3    H230075   5.733   6.246  17.190  0.2428  0.2494  0.0564
 2862TIP3   OH230076   5.179   5.272  10.953 -0.0186 -0.2153 -0.2316
 2862TIP3    H130077   5.137   5.335  10.895  0.2108 -0.6128 -0.8460
 2862TIP3    H230078   5.108   5.215  10.982 -0.1509  0.0438 -0.0565
 2863TIP3   OH230079   3.498   0.602   5.401  0.4291 -0.2793  0.0736
 2863TIP3    H130080   3.520   0.513   5.428 -1.8064 -1.4231 -1.5158
 2863TIP3    H230081   3.517   0.604   5.307  1.9825  1.4900  0.3825
 2864TIP3   OH230082   1.430   2.975  11.484 -0.5485  0.2382  0.0971
 2864TIP3    H130083   1.506   2.930  11.519 -0.8317  1.2201  2.1144
 2864TIP3    H230084   1.374   2.904  11.450  0.4980 -0.6187  0.1019
 2865TIP3   OH230085   6.067   0.457  10.852  0.6303 -0.1595 -0.6750
 2865TIP3    H130086   6.152   0.436  10.891  0.8271 -0.9486 -1.4886
 2865TIP3    H230087   6.030   0.372  10.828 -1.1171  0.0134  1.0816
 2866TIP3   OH230088   2.637   4.771  14.431 -0.0448  0.0592  0.5517
 2866TIP3    H130089   2.571   4.839  14.422 -1.6246 -1.2930  1.3016
 2866TIP3    H230090   2.720   4.818  14.437 -1.0097  1.8645  0.4082
 2867TIP3   OH230091   3.392   3.090   5.877  0.7504 -0.2508 -0.3997
 2867TIP3    H130092   3.445   3.073   5.955 -0.1922  0.3370  0.3921
 2867TIP3    H230093   3.364   3.003   5.848  0.2506 -0.4225  0.5470
 2868TIP3   OH230094   1.518   0.953   4.145 -0.1396 -0.1790 -0.6642
 2868TIP3    H130095   1.559   1.038   4.165 -1.8837  0.0630  2.4728
 2868TIP3    H230096   1.429   0.975   4.116 -0.0750 -0.9280 -1.4908
 2869TIP3   OH230097   4.844   4.118   2.660 -0.3182 -0.2202  0.0290
 2869TIP3    H130098   4.843   4.116   2.755  0.5629 -0.8252  0.0374
 2869TIP3    H230099   4.752   4.122   2.635 -0.5753  3.9244  0.9526
 2870TIP3   OH230100   0.977   5.930   4.545  0.0355 -0.3083  0.5338
 2870TIP3    H130101   1.028   5.864   4.593 -1.1671 -0.1623  2.1088
 2870TIP3    H230102   0.906   5.880   4.504 -0.1933 -0.1550  0.7388
 2871TIP3   OH230103   5.740   3.762   2.645  0.1086  0.6328  0.8020
 2871TIP3    H130104   5.704   3.833   2.591 -1.2802 -0.4894  0.2070
 2871TIP3    H230105   5.664   3.721   2.685  0.8842 -0.6119  1.0547
 2872TIP3   OH230106   5.711   6.456  11.854  0.1876  0.1382  0.1508
 2872TIP3    H130107   5.685   6.532  11.906 -0.6080  1.4005 -1.9417
 2872TIP3    H230108   5.790   6.484  11.808  0.3156 -0.5680 -0.0794
 2873TIP3   OH230109   1.695   2.577   2.250  0.3332  0.3574  0.0984
 2873TIP3    H130110   1.727   2.663   2.226 -0.7249  0.5713 -0.5913
 2873TIP3    H230111   1.773   2.528   2.276  0.8315  1.8411  1.5707
 2874TIP3   OH230112   0.581   3.980   0.665 -0.0391 -0.3459  0.3974
 2874TIP3    H130113   0.614   3.959   0.578  2.2650  0.5886  0.9554
 2874TIP3    H230114   0.491   4.008   0.651  0.6105  0.8876 -1.8807
 2875TIP3   OH230115   0.335   6.015   2.790 -0.3364 -0.6322 -0.2040
 2875TIP3    H130116   0.268   6.052   2.847  0.0399  0.3488 -0.3792
 2875TIP3    H230117   0.301   6.030   2.702 -0.7093 -1.7446 -0.2600
 2876TIP3   OH230118   0.339   6.423   4.713 -0.4393  0.2538  0.0764
 2876TIP3    H130119   0.363   6.429   4.620  0.6810  1.1279  0.4007
 2876TIP3    H230120   0.348   6.330   4.734 -1.5869 -0.1051 -0.9021
 2877TIP3   OH230121   0.015   6.763  16.513  0.0258  0.7261  0.4105
 2877TIP3    H130122   0.106   6.793  16.513  0.3348 -0.1042 -0.9395
 2877TIP3    H230123  -0.013   6.770  16.604  2.5976 -2.3406  1.6296
 2878TIP3   OH230124   0.451   6.202  15.378  0.0755 -0.6805 -0.5928
 2878TIP3    H130125   0.541   6.237  15.380  0.1397 -0.7572 -1.7196
 2878TIP3    H230126   0.439   6.172  15.289 -0.9886 -0.9359 -0.3745
 2879TIP3   OH230127   0.171   4.613  13.960  0.3833 -0.3416 -0.3514
 2879TIP3    H130128   0.237   4.639  14.024 -0.6849 -0.0866  0.6820
 2879TIP3    H230129   0.198   4.526  13.931  0.7182 -0.6017  0.7072
 2880TIP3   OH230130   4.209   4.510  12.132 -0.4439 -0.3873  0.0320
 2880TIP3    H130131   4.139   4.540  12.191 -0.1505  0.5773 -0.0945
 2880TIP3    H230132   4.233   4.588  12.082  0.0792 -0.9382 -0.5871
 2881TIP3   OH230133   2.807   5.157   4.194  0.3922 -0.2202  0.1277
 2881TIP3    H130134   2.847   5.192   4.274 -0.4624  1.1650 -0.0269
 2881TIP3    H230135   2.874   5.170   4.126  0.2836  0.6696  0.1773
 2882TIP3   OH230136   6.401   4.570   2.122  0.2802 -0.0245  0.4484
 2882TIP3    H130137   6.446   4.490   2.148  0.9040  0.5635  1.2190
 2882TIP3    H230138   6.463   4.641   2.143  0.5804  0.5490 -2.0392
 2883TIP3   OH230139   4.010   2.340  14.294 -0.1622 -0.2715 -0.1638
 2883TIP3    H130140   4.039   2.260  14.338 -1.2281 -0.7136 -0.2390
 2883TIP3    H230141   4.042   2.330  14.204  0.7291 -0.0573  0.1252
 2884TIP3   OH230142   5.786   2.552  13.681 -0.6279 -0.4016 -0.1319
 2884TIP3    H130143   5.731   2.546  13.603  0.0851 -0.9240 -0.6157
 2884TIP3    H230144   5.842   2.628  13.666  0.4212 -1.2736 -0.7563
 2885TIP3   OH230145   4.287   4.830  11.701  0.4808 -0.3223  0.0519
 2885TIP3    H130146   4.249   4.749  11.667 -0.1022  0.1753 -0.5012
 2885TIP3    H230147   4.292   4.888  11.625  0.8320  0.1910  0.4580
 2886TIP3   OH230148   6.757   5.343  14.365  0.2558 -0.2604  0.1465
 2886TIP3    H130149   6.746   5.405  14.293 -0.2490 -1.0353 -0.4579
 2886TIP3    H230150   6.736   5.394  14.443  0.8211  0.5974 -0.2399
 2887TIP3   OH230151   3.442   3.699   1.443 -0.2390  0.3123 -0.4191
 2887TIP3    H130152   3.383   3.631   1.409  0.7003  0.1844 -1.8721
 2887TIP3    H230153   3.515   3.649   1.480 -1.1306  0.4573  1.6816
 2888TIP3   OH230154   5.339   4.550  15.659  0.0102  0.6514  0.1210
 2888TIP3    H130155   5.366   4.468  15.700 -1.8278 -0.1009 -0.0556
 2888TIP3    H230156   5.369   4.618  15.719 -0.1282 -0.2696  1.2708
 2889TIP3   OH230157   3.246   5.113  13.335 -0.3340 -0.3580  0.2312
 2889TIP3    H130158   3.163   5.135  13.376 -0.2474 -0.5928  0.5395
 2889TIP3    H230159   3.267   5.026  13.368 -0.4543 -0.7263 -0.6246
 2890TIP3   OH230160   1.572   5.945   5.945  0.4095  0.0076  0.9303
 2890TIP3    H130161   1.488   5.916   5.980  1.5216 -1.2205  2.7478
 2890TIP3    H230162   1.566   6.041   5.945 -1.0494 -0.0507  0.7808
 2891TIP3   OH230163   4.698   4.251  11.688 -0.1240  0.1686 -0.1982
 2891TIP3    H130164   4.747   4.278  11.610 -0.0167 -0.7687 -0.4675
 2891TIP3    H230165   4.624   4.201  11.654 -0.9873  1.1068  0.2387
 2892TIP3   OH230166   3.526   6.424   2.728  0.3534 -0.2548 -0.4552
 2892TIP3    H130167   3.442   6.379   2.723  0.1964 -0.0099 -0.0695
 2892TIP3    H230168   3.579   6.369   2.786 -0.0435  0.3610  0.5232
 2893TIP3   OH230169   6.640   6.108  15.322  0.1029 -0.7913 -0.1494
 2893TIP3    H130170   6.581   6.162  15.375 -2.2088 -0.5698 -2.7151
 2893TIP3    H230171   6.640   6.023  15.366 -2.3593 -0.8513 -0.1286
 2894TIP3   OH230172   2.779   6.239   4.056  0.0270 -0.0766  0.2445
 2894TIP3    H130173   2.831   6.171   4.012 -0.5717 -0.3335 -0.0855
 2894TIP3    H230174   2.694   6.236   4.011 -0.9617 -1.0532  2.0638
 2895TIP3   OH230175   1.235   4.458   4.437  0.0126  0.4558 -0.1137
 2895TIP3    H130176   1.185   4.538   4.420 -0.0719  0.4152 -0.0571
 2895TIP3    H230177   1.229   4.408   4.355 -0.3200  0.3004  0.0027
 2896TIP3   OH230178   6.778   0.722  12.112  0.5102  0.4311  0.0539
 2896TIP3    H130179   6.735   0.674  12.041  0.5380  0.3297  0.1050
 2896TIP3    H230180   6.828   0.655  12.159 -0.0705  0.3725  0.5989
 2897TIP3   OH230181   3.815   1.759  14.321  0.1114  0.6442 -0.2494
 2897TIP3    H130182   3.852   1.715  14.397  0.4977  0.1686 -0.7073
 2897TIP3    H230183   3.727   1.722  14.311 -0.1147  1.0425  0.2357
 2898TIP3   OH230184   1.379   0.080  13.950 -0.3508  0.2468  0.4235
 2898TIP3    H130185   1.369   0.001  14.004 -1.4060 -0.6449 -0.9911
 2898TIP3    H230186   1.448   0.058  13.888  0.4698  1.0588  1.0224
 2899TIP3   OH230187   3.627   4.944   4.006  0.2032  0.3803  0.1656
 2899TIP3    H130188   3.669   4.858   4.014 -0.4324  0.2261  2.4890
 2899TIP3    H230189   3.659   4.994   4.081 -0.8914  1.5395 -0.0958
 2900TIP3   OH230190   1.207   4.240   2.327 -0.3181  0.3565  0.2088
 2900TIP3    H130191   1.148   4.253   2.401  1.7242 -2.0649  2.4803
 2900TIP3    H230192   1.285   4.290   2.350  0.2737 -0.2800 -0.3586
 2901TIP3   OH230193   2.907   6.440  16.543  0.1443 -0.2030  0.7926
 2901TIP3    H130194   2.828   6.478  16.503  1.3851  0.4722 -1.1916
 2901TIP3    H230195   2.918   6.356  16.499  0.7525 -0.1012  0.7433
 2902TIP3   OH230196   3.551   1.270   3.059 -0.0379 -0.1834 -0.2622
 2902TIP3    H130197   3.634   1.305   3.092  0.4756 -0.5104 -1.1764
 2902TIP3    H230198   3.565   1.261   2.965 -0.8289 -1.0199 -0.3063
 2903TIP3   OH230199   3.176   5.325  17.264 -0.2869 -0.1581 -0.5060
 2903TIP3    H130200   3.256   5.283  17.296  0.3589  0.2445 -1.5393
 2903TIP3    H230201   3.191   5.336  17.170 -1.2028  0.7021 -0.5654
 2904TIP3   OH230202   3.602   1.108  15.252  0.0448 -0.3226  0.1998
 2904TIP3    H130203   3.507   1.112  15.248  0.0879  0.6771 -0.3274
 2904TIP3    H230204   3.624   1.143  15.338 -0.0489  0.2140  0.0141
 2905TIP3   OH230205   5.167   1.583   1.972  0.0859  0.2198 -0.1617
 2905TIP3    H130206   5.183   1.678   1.968 -0.3024  0.2724 -0.4987
 2905TIP3    H230207   5.159   1.565   2.066  1.5184  0.2855 -0.0141
 2906TIP3   OH230208   5.586   4.803   2.844  0.1963  0.1726 -0.3256
 2906TIP3    H130209   5.626   4.750   2.912 -0.4408  1.0622  0.7876
 2906TIP3    H230210   5.654   4.813   2.777  0.1198 -2.5515 -0.9227
 2907TIP3   OH230211   4.023   0.363  11.779  0.2301  0.4362  0.3155
 2907TIP3    H130212   3.976   0.338  11.859 -1.4279 -0.1984 -0.8108
 2907TIP3    H230213   3.955   0.395  11.720  1.6204  2.3787 -0.3380
 2908TIP3   OH230214   1.041   4.990   3.743 -0.6764  0.2262 -0.7333
 2908TIP3    H130215   0.974   5.003   3.675 -1.4591  0.1248 -0.0003
 2908TIP3    H230216   1.050   5.076   3.784 -1.6870 -0.1729  0.3561
 2909TIP3   OH230217   5.760   5.849   4.933  0.4903 -0.2436 -0.3052
 2909TIP3    H130218   5.665   5.849   4.947  0.5728  2.0838  0.7000
 2909TIP3    H230219   5.786   5.758   4.946 -1.6623 -1.0392 -1.1332
 2910TIP3   OH230220   1.986   5.551  16.856  0.3126 -0.1718  0.2580
 2910TIP3    H130221   1.975   5.520  16.946 -0.5420  2.3991  1.1259
 2910TIP3    H230222   1.899   5.539  16.816  1.1359 -3.0605 -0.9315
 2911TIP3   OH230223   6.787   4.470  14.693 -0.4490  0.2451  1.0344
 2911TIP3    H130224   6.767   4.385  14.652  2.0717  0.6153 -1.2569
 2911TIP3    H230225   6.805   4.449  14.784  0.0366 -1.6797  0.5423
 2912TIP3   OH230226   2.938   6.722   5.392  0.7489 -0.0566 -0.2723
 2912TIP3    H130227   2.949   6.635   5.431  0.4331  0.1779  0.3543
 2912TIP3    H230228   2.969   6.712   5.302 -1.1490 -1.3364 -0.8366
 2913TIP3   OH230229   1.289   1.446   5.202  0.0325  0.0916  0.3549
 2913TIP3    H130230   1.346   1.376   5.171  0.1120  0.4666 -0.3585
 2913TIP3    H230231   1.333   1.527   5.176 -1.0222  0.3843 -0.5818
 2914TIP3   OH230232   2.728   2.505  14.869 -0.4579 -0.0331 -0.3645
 2914TIP3    H130233   2.638   2.535  14.884 -0.6856 -0.1012 -1.4971
 2914TIP3    H230234   2.777   2.584  14.848 -0.0628  0.1102  1.0073
 2915TIP3   OH230235   0.137   4.758   3.165  0.4952  0.2027 -0.2051
 2915TIP3    H130236   0.217   4.707   3.174 -1.1119 -2.3172  1.0862
 2915TIP3    H230237   0.134   4.813   3.243 -0.4773 -2.0458  1.4428
 2916TIP3   OH230238   0.870   1.493  16.086  0.3642 -0.1792 -0.3231
 2916TIP3    H130239   0.798   1.504  16.148  2.4159  0.0377  2.2036
 2916TIP3    H230240   0.835   1.523  16.002 -2.4306 -0.0749  0.7899
 2917TIP3   OH230241   2.988   6.100  13.730 -0.5647 -0.4006  0.2603
 2917TIP3    H130242   2.903   6.144  13.735  0.0384  0.6360  2.4130
 2917TIP3    H230243   2.967   6.007  13.738 -1.4238 -0.0526  2.7503
 2918TIP3   OH230244   6.421   5.165  15.680  0.1326 -0.7328  0.2736
 2918TIP3    H130245   6.435   5.253  15.713 -1.9153  0.2729 -1.2970
 2918TIP3    H230246   6.458   5.166  15.592 -0.4925 -1.2063 -0.0091
 2919TIP3   OH230247   6.002   2.883  10.736  0.0368  0.3611 -0.1846
 2919TIP3    H130248   5.947   2.901  10.812  0.1057  0.3862 -0.1414
 2919TIP3    H230249   5.956   2.812  10.690  1.0396 -1.0936  0.9883
 2920TIP3   OH230250   4.088   2.040  12.024 -0.3814 -0.0835  0.0585
 2920TIP3    H130251   4.065   2.051  11.932 -2.0145 -1.2153  0.2787
 2920TIP3    H230252   4.090   2.129  12.059  2.3483  0.5547 -1.4536
 2921TIP3   OH230253   4.249   4.951   2.093 -0.0185  0.1402  0.1656
 2921TIP3    H130254   4.197   4.973   2.170  1.7997  0.4330  1.3461
 2921TIP3    H230255   4.203   4.875   2.055 -0.2723 -0.8172  2.2510
 2922TIP3   OH230256   0.831   0.885   5.228 -0.0103 -0.0695  0.3805
 2922TIP3    H130257   0.831   0.789   5.229 -0.0708 -0.1640 -2.2589
 2922TIP3    H230258   0.744   0.909   5.198  0.2714  0.7701  0.2081
 2923TIP3   OH230259   1.937   5.240   5.358  0.2285 -0.4460 -0.3591
 2923TIP3    H130260   2.002   5.310   5.358 -2.0933  1.8506  0.1756
 2923TIP3    H230261   1.903   5.239   5.447 -2.0557  0.0905 -1.1448
 2924TIP3   OH230262   0.385   1.299  11.046 -0.6738 -0.4657 -0.1314
 2924TIP3    H130263   0.306   1.314  11.098 -0.6974 -1.1930  0.0583
 2924TIP3    H230264   0.434   1.381  11.052 -2.8043  1.1243 -2.7546
 2925TIP3   OH230265   4.676   2.828  12.959  0.0895  0.0846  0.1215
 2925TIP3    H130266   4.769   2.812  12.947  0.2189 -0.2441  1.4082
 2925TIP3    H230267   4.656   2.900  12.899  0.6163 -1.4171 -1.9798
 2926TIP3   OH230268   0.610   1.133   0.515 -0.1792 -0.3859  0.2751
 2926TIP3    H130269   0.521   1.139   0.481  0.0210 -0.4574 -0.2844
 2926TIP3    H230270   0.658   1.085   0.448  1.0047  2.2975 -0.9695
 2927TIP3   OH230271   0.336   0.407  14.415  0.2237  0.1181 -0.1530
 2927TIP3    H130272   0.280   0.447  14.481 -1.0047 -0.6456 -0.7087
 2927TIP3    H230273   0.423   0.443  14.433 -0.3736  1.1051  0.9051
 2928TIP3   OH230274   4.606   5.030   5.325 -0.1883 -0.5297  0.1176
 2928TIP3    H130275   4.613   5.003   5.416  2.4326  1.6897  0.6904
 2928TIP3    H230276   4.671   4.977   5.278 -0.6744 -0.8045 -0.2612
 2929TIP3   OH230277   4.558   3.585  13.460 -0.5103  0.4739  0.4460
 2929TIP3    H130278   4.653   3.581  13.467 -0.5337  0.9362  1.0610
 2929TIP3    H230279   4.530   3.493  13.453  0.1830  0.3812 -2.7454
 2930TIP3   OH230280   2.253   3.792  14.039  0.4054  0.0268 -0.0762
 2930TIP3    H130281   2.292   3.880  14.043  0.0586  0.1566  0.5051
 2930TIP3    H230282   2.268   3.764  13.949 -0.4978  1.1678 -0.6187
 2931TIP3   OH230283   4.966   5.068  14.884  0.1515 -0.2834 -0.1100
 2931TIP3    H130284   5.061   5.063  14.888  0.3401  0.7163 -2.1285
 2931TIP3    H230285   4.948   5.138  14.821 -1.9358  0.3058  1.0374
 2932TIP3   OH230286   5.686   0.092  10.775 -0.0902 -0.9146 -0.6344
 2932TIP3    H130287   5.745   0.024  10.743 -1.6978 -2.0506 -1.2958
 2932TIP3    H230288   5.667   0.146  10.698 -0.9641 -1.3575 -0.7311
 2933TIP3   OH230289   3.010   4.265  16.284  0.5727  0.0665  0.2895
 2933TIP3    H130290   3.061   4.345  16.269 -1.3176  0.9924 -1.8095
 2933TIP3    H230291   3.076   4.196  16.289  2.1474  1.1581 -2.5517
 2934TIP3   OH230292   6.386   4.821  13.799 -0.0759  0.5668  0.1539
 2934TIP3    H130293   6.296   4.851  13.803  0.3197  1.8081  0.1513
 2934TIP3    H230294   6.387   4.741  13.852 -1.0923  0.7531  0.4707
 2935TIP3   OH230295   1.277   3.191  16.570  0.5623 -0.3986  0.4569
 2935TIP3    H130296   1.291   3.099  16.548 -1.1735 -0.4425 -0.5949
 2935TIP3    H230297   1.343   3.209  16.638  0.6156 -2.5421  1.0567
 2936TIP3   OH230298   2.855   1.825  16.193 -0.4213  0.0244 -0.3885
 2936TIP3    H130299   2.879   1.765  16.264 -0.2059  0.5716  0.0029
 2936TIP3    H230300   2.912   1.801  16.120  0.0042  0.0809 -0.0708
 2937TIP3   OH230301   2.417   3.201   1.604  0.2325  0.3262 -0.8662
 2937TIP3    H130302   2.470   3.165   1.676  0.1282  0.0015 -0.9503
 2937TIP3    H230303   2.430   3.140   1.532  0.1242  0.5091 -1.0414
 2938TIP3   OH230304   0.873   0.377   3.763 -0.3774  0.0657  0.3262
 2938TIP3    H130305   0.856   0.423   3.681 -1.1984  0.4228  0.6847
 2938TIP3    H230306   0.828   0.293   3.753  2.2290 -1.2970 -0.8663
 2939TIP3   OH230307   1.236   1.002   4.090 -0.0642 -0.4456  0.5497
 2939TIP3    H130308   1.233   0.922   4.038  1.5531  0.3635 -0.8786
 2939TIP3    H230309   1.175   1.062   4.047  1.0648  0.1268 -0.3178
 2940TIP3   OH230310   6.621   1.611  10.798 -0.5602 -0.1697 -0.3267
 2940TIP3    H130311   6.561   1.661  10.742 -0.7919 -0.3413 -0.2366
 2940TIP3    H230312   6.671   1.678  10.845  0.4262 -0.0153 -1.5530
 2941TIP3   OH230313   2.684   6.384  15.485  0.2821 -0.2206 -0.3361
 2941TIP3    H130314   2.642   6.375  15.399 -0.6847 -0.2826  0.1269
 2941TIP3    H230315   2.660   6.472  15.514  1.0571  0.0033 -0.3573
 2942TIP3   OH230316   1.172   4.610   6.313 -0.1513  0.2941  0.3924
 2942TIP3    H130317   1.210   4.533   6.355 -0.2400  0.6460  1.1441
 2942TIP3    H230318   1.246   4.652   6.269 -0.2883 -0.7333 -0.8451
 2943TIP3   OH230319   1.696   4.541  14.683  0.0368  0.2564 -0.5465
 2943TIP3    H130320   1.754   4.500  14.619 -0.1153 -1.9451  0.6161
 2943TIP3    H230321   1.608   4.527  14.648  0.0281  0.2091 -0.5071
 2944TIP3   OH230322   2.301   6.727   1.529  0.0334  0.1374  0.2925
 2944TIP3    H130323   2.240   6.654   1.537  0.5479 -0.2769  0.4893
 2944TIP3    H230324   2.311   6.760   1.618  1.1211 -0.6487  0.4798
 2945TIP3   OH230325   1.059   6.000   2.453 -0.4434 -0.0477 -0.2353
 2945TIP3    H130326   1.118   5.925   2.439 -0.7548 -0.3253 -0.0748
 2945TIP3    H230327   0.974   5.960   2.470 -0.2983  0.2889  1.4322
 2946TIP3   OH230328   0.505   4.347   2.399  0.2828 -0.5093 -0.1225
 2946TIP3    H130329   0.431   4.406   2.385  0.5948 -0.3886 -1.4054
 2946TIP3    H230330   0.581   4.404   2.404  0.4374 -0.7131 -0.1262
 2947TIP3   OH230331   3.016   0.586  16.837 -0.3542 -0.7213  0.1001
 2947TIP3    H130332   3.099   0.620  16.803 -0.8128 -0.8431 -1.2214
 2947TIP3    H230333   3.035   0.561  16.927  1.3246 -1.7251 -0.4965
 2948TIP3   OH230334   5.954   2.032  11.080  0.2971 -0.1389 -0.3559
 2948TIP3    H130335   5.897   1.957  11.096  0.1182  0.2931  1.2525
 2948TIP3    H230336   6.018   2.001  11.016 -1.1730 -0.9112 -1.5082
 2949TIP3   OH230337   4.049   1.582   3.527 -0.0107 -0.0162 -0.4574
 2949TIP3    H130338   4.097   1.528   3.589  0.0830 -0.1908 -0.6780
 2949TIP3    H230339   4.115   1.642   3.492  0.6933 -1.9161 -2.6570
 2950TIP3   OH230340   6.204   6.313  16.978 -0.3346 -0.2070  0.7861
 2950TIP3    H130341   6.184   6.226  17.011  0.6035 -0.5093  0.5952
 2950TIP3    H230342   6.287   6.303  16.932 -0.1709  0.8033  0.8270
 2951TIP3   OH230343   5.809   6.059   5.353 -0.1840  0.5296 -0.2302
 2951TIP3    H130344   5.841   6.071   5.443 -1.0456  2.8658 -0.1869
 2951TIP3    H230345   5.884   6.020   5.307  0.4169 -0.3254  1.3729
 2952TIP3   OH230346   3.532   5.058   4.781  0.5386 -0.1527  0.1373
 2952TIP3    H130347   3.531   5.115   4.704 -1.2223  0.5464  0.6073
 2952TIP3    H230348   3.603   4.996   4.766  1.9218  1.6040 -0.8225
 2953TIP3   OH230349   5.187   4.831   1.207  0.0367 -0.0099  0.0928
 2953TIP3    H130350   5.126   4.759   1.195  1.5592 -1.2600 -0.4386
 2953TIP3    H230351   5.265   4.791   1.246  0.6988  1.4545  0.3607
 2954TIP3   OH230352   3.814   4.541  15.904 -0.3347  0.5921 -0.4377
 2954TIP3    H130353   3.783   4.458  15.867  0.1986  0.9702 -1.7605
 2954TIP3    H230354   3.902   4.521  15.936  0.5531  1.0808 -2.4631
 2955TIP3   OH230355   2.780   3.554  10.824  0.4076  0.4121 -0.0574
 2955TIP3    H130356   2.713   3.537  10.757  0.0572  1.2822  0.0595
 2955TIP3    H230357   2.757   3.495  10.896 -0.8633  1.3893  0.3906
 2956TIP3   OH230358   3.960   2.212   2.500 -0.3912  0.4560 -0.7850
 2956TIP3    H130359   3.969   2.146   2.568 -1.1366 -0.2823 -1.3872
 2956TIP3    H230360   3.987   2.168   2.419 -0.5632  0.9961 -1.1446
 2957TIP3   OH230361   2.148   6.573   6.023 -0.1351  0.1023 -0.2625
 2957TIP3    H130362   2.165   6.631   6.098 -0.5870 -0.1201  0.0182
 2957TIP3    H230363   2.155   6.630   5.947  0.3830  0.3231 -0.0551
 2958TIP3   OH230364   4.341   3.066   5.201 -0.2171  0.2265  0.4332
 2958TIP3    H130365   4.405   3.010   5.158 -0.5170  0.6566 -0.6250
 2958TIP3    H230366   4.353   3.050   5.294 -1.1510 -2.5581  0.1594
 2959TIP3   OH230367   5.913   0.253   3.929  0.3732  0.0139 -0.3155
 2959TIP3    H130368   5.871   0.200   3.862  0.2970  0.1139 -0.3463
 2959TIP3    H230369   5.993   0.205   3.950  0.3266 -0.0906 -0.3751
 2960TIP3   OH230370   4.662   1.409   5.088 -0.0185  0.4790 -0.1296
 2960TIP3    H130371   4.679   1.388   5.180 -0.5762  0.6190  0.0077
 2960TIP3    H230372   4.628   1.498   5.089 -3.6635 -0.7648 -0.0431
 2961TIP3   OH230373   4.250   3.753  11.695 -0.2420 -0.3194  0.1509
 2961TIP3    H130374   4.340   3.785  11.692  0.2491 -1.5519 -3.4285
 2961TIP3    H230375   4.211   3.783  11.612 -1.5326 -3.8301 -0.6992
 2962TIP3   OH230376   5.544   6.706  15.016  0.4473  0.6744  0.2329
 2962TIP3    H130377   5.605   6.761  15.065 -0.4084  2.6394 -0.7999
 2962TIP3    H230378   5.460   6.751  15.023 -0.3918 -0.7207 -0.3413
 2963TIP3   OH230379   6.655   6.500   0.979  0.8483 -0.3323 -0.0936
 2963TIP3    H130380   6.637   6.559   1.052  1.1817 -0.8776  0.4370
 2963TIP3    H230381   6.674   6.416   1.020  3.5863 -0.0576 -0.6276
 2964TIP3   OH230382   6.201   4.892   5.991 -0.5677  0.3517 -0.4148
 2964TIP3    H130383   6.220   4.912   5.899 -0.7815  2.1874 -0.1064
 2964TIP3    H230384   6.210   4.797   5.998 -1.4194  0.0643 -2.5384
 2965TIP3   OH230385   4.983   6.530  12.743 -0.2223  0.0685  0.5597
 2965TIP3    H130386   5.053   6.531  12.677  0.1991  2.3211  0.9624
 2965TIP3    H230387   4.907   6.496  12.696  0.9045 -1.6705 -0.1087
 2966TIP3   OH230388   5.827   4.137   3.051  0.2328  0.0160 -0.2673
 2966TIP3    H130389   5.854   4.228   3.036  0.9973 -0.1028  0.2768
 2966TIP3    H230390   5.810   4.102   2.964  1.9370  0.0954 -0.6690
 2967TIP3   OH230391   4.441   4.841   2.733  0.4474  0.0123  0.9371
 2967TIP3    H130392   4.464   4.802   2.648  1.8955 -1.3969  1.9103
 2967TIP3    H230393   4.367   4.898   2.714  1.4237  0.5938 -1.4662
 2968TIP3   OH230394   3.858   2.513   0.107 -0.2997 -0.8115 -0.0937
 2968TIP3    H130395   3.917   2.441   0.131 -1.2333 -1.3561  0.6418
 2968TIP3    H230396   3.777   2.469   0.079 -0.2865 -0.0833 -1.3206
 2969TIP3   OH230397   0.566   6.715  16.069  0.3792 -0.6350  0.5109
 2969TIP3    H130398   0.631   6.785  16.072 -0.2460 -0.0798  1.3789
 2969TIP3    H230399   0.525   6.716  16.156 -0.7440 -1.0221  0.0035
 2970TIP3   OH230400   0.240   3.448   3.057 -0.3844 -0.1976  0.3954
 2970TIP3    H130401   0.147   3.466   3.053 -0.6679 -1.6562 -0.1400
 2970TIP3    H230402   0.270   3.452   2.967  0.5667  2.4524  0.7441
 2971TIP3   OH230403   1.874   0.938   5.989 -0.0578  0.1368 -0.4887
 2971TIP3    H130404   1.908   1.018   5.949  0.0488  0.4934  0.3056
 2971TIP3    H230405   1.926   0.927   6.069  0.8618 -1.4634 -1.2641
 2972TIP3   OH230406   6.662   6.118   4.023 -0.6465 -0.1621  0.6690
 2972TIP3    H130407   6.721   6.169   3.967 -1.3230 -0.3513 -0.2473
 2972TIP3    H230408   6.712   6.040   4.046 -0.3631 -0.0981  0.2856
 2973TIP3   OH230409   6.248   5.723  12.092 -0.1578  0.1172 -0.3991
 2973TIP3    H130410   6.286   5.652  12.144  0.7972  2.6210  2.6297
 2973TIP3    H230411   6.322   5.779  12.070 -0.5838 -0.5841 -4.4036
 2974TIP3   OH230412   1.662   0.213   5.038 -0.1880  0.0090 -0.3062
 2974TIP3    H130413   1.699   0.171   4.960 -0.0590 -0.6152  0.0801
 2974TIP3    H230414   1.718   0.183   5.109 -1.0360 -0.4107  0.1986
 2975TIP3   OH230415   1.039   3.393   3.050  0.1145 -0.3031 -0.0905
 2975TIP3    H130416   1.089   3.438   2.981  1.1175 -0.2643  0.6416
 2975TIP3    H230417   1.005   3.464   3.105  1.8114 -0.3869  1.1445
 2976TIP3   OH230418   6.555   0.918  12.228 -0.0050 -0.3249  0.3481
 2976TIP3    H130419   6.630   0.876  12.185 -1.1828 -4.1706  1.6454
 2976TIP3    H230420   6.595   0.971  12.297  1.6329 -1.7170  0.5639
 2977TIP3   OH230421   6.061   5.674  10.777  0.5074  0.2417  0.7097
 2977TIP3    H130422   5.969   5.695  10.788  0.4381  0.2582  0.1198
 2977TIP3    H230423   6.107   5.745  10.821  0.2576  1.1163 -0.3914
 2978TIP3   OH230424   5.730   6.224   3.759 -0.6021  0.0799 -0.1798
 2978TIP3    H130425   5.774   6.244   3.677 -0.6431  0.1696 -0.1799
 2978TIP3    H230426   5.731   6.307   3.807 -0.5865  0.0300 -0.0939
 2979TIP3   OH230427   0.350   4.175  10.612 -0.5258 -0.3207  1.0258
 2979TIP3    H130428   0.419   4.148  10.552 -1.4652 -0.0534 -0.2087
 2979TIP3    H230429   0.317   4.094  10.650  0.9032 -0.4062  2.1630
 2980TIP3   OH230430   3.603   2.312   1.560  0.1853  0.1252 -0.2213
 2980TIP3    H130431   3.528   2.297   1.503  0.7354  0.3305 -1.0207
 2980TIP3    H230432   3.652   2.382   1.517  1.5471 -0.9235 -0.4484
 2981TIP3   OH230433   2.105   0.588  16.014  0.2258  0.1293  0.4822
 2981TIP3    H130434   2.086   0.672  15.972 -0.1675 -0.3716 -0.3655
 2981TIP3    H230435   2.136   0.532  15.943 -2.1572 -1.3039  0.4741
 2982TIP3   OH230436   0.463   4.351   2.996 -0.3084  0.4721 -0.5570
 2982TIP3    H130437   0.380   4.376   3.035 -0.8482 -1.5460 -0.3074
 2982TIP3    H230438   0.462   4.390   2.909 -0.6062  2.1310  0.1597
 2983TIP3   OH230439   4.792   4.678  16.262 -0.2193  0.4340 -0.0686
 2983TIP3    H130440   4.756   4.716  16.342  0.8176  0.7932  0.2468
 2983TIP3    H230441   4.717   4.640  16.217 -1.0214  1.3638  0.4437
 2984TIP3   OH230442   3.053   2.140  11.324  0.2016 -0.9890  0.3682
 2984TIP3    H130443   3.029   2.073  11.260  1.7304 -1.2629  0.0568
 2984TIP3    H230444   3.029   2.102  11.409 -2.3134 -0.4236  0.0113
 2985TIP3   OH230445   0.642   1.204   4.707 -0.3111  0.5853 -0.0351
 2985TIP3    H130446   0.654   1.221   4.800 -0.2640 -0.7136  0.2099
 2985TIP3    H230447   0.715   1.148   4.682  0.4964  2.0703 -1.2135
 2986TIP3   OH230448   3.171   3.965  17.051 -0.0958  0.1942  0.3275
 2986TIP3    H130449   3.088   4.011  17.042 -0.7838 -0.3604  2.8816
 2986TIP3    H230450   3.174   3.906  16.976 -2.2300 -0.0584  0.3779
 2987TIP3   OH230451   5.166   3.301   5.965  0.3679 -0.2053 -0.6154
 2987TIP3    H130452   5.154   3.386   6.008  0.5039 -0.1425 -0.6998
 2987TIP3    H230453   5.209   3.247   6.031 -1.6681 -0.9010  0.2321
 2988TIP3   OH230454   4.645   6.158  12.737 -0.0017 -0.5874  0.0400
 2988TIP3    H130455   4.566   6.159  12.683 -0.1477  3.2414  0.0741
 2988TIP3    H230456   4.630   6.225  12.803  1.7722 -2.4593  2.5466
 2989TIP3   OH230457   1.738   0.527   0.441 -0.7876  0.5704 -0.1204
 2989TIP3    H130458   1.798   0.453   0.448 -1.3566  0.1040 -0.0927
 2989TIP3    H230459   1.783   0.590   0.385 -0.1294  0.3782  0.1839
 2990TIP3   OH230460   1.054   3.235   0.706 -0.1016 -0.0617 -0.1138
 2990TIP3    H130461   1.012   3.196   0.782  0.5346 -1.5969 -0.5132
 2990TIP3    H230462   1.147   3.222   0.720 -0.0150 -1.5054 -1.6929
 2991TIP3   OH230463   4.669   5.581   6.413 -0.1665 -0.3290  0.3512
 2991TIP3    H130464   4.575   5.591   6.403  0.0724  0.8829 -1.0052
 2991TIP3    H230465   4.681   5.490   6.439 -1.6289 -0.9011 -0.8501
 2992TIP3   OH230466   5.902   2.516   2.112 -0.3367 -0.1719 -0.3345
 2992TIP3    H130467   5.938   2.572   2.180  0.2968  1.1029 -1.6531
 2992TIP3    H230468   5.964   2.443   2.106 -0.3028 -0.2003  0.3156
 2993TIP3   OH230469   5.993   5.035   6.108 -0.4524  0.1038 -0.0500
 2993TIP3    H130470   6.064   4.990   6.062 -1.8793 -1.4388 -0.8004
 2993TIP3    H230471   6.035   5.113   6.145  2.0689 -1.6752  1.1098
 2994TIP3   OH230472   2.586   4.950   2.706 -0.2840 -0.6765  0.2558
 2994TIP3    H130473   2.670   4.994   2.715 -0.6009  0.0437 -0.1723
 2994TIP3    H230474   2.525   5.007   2.754 -0.5928 -0.9838  0.2279
 2995TIP3   OH230475   3.552   5.084  12.777  0.1967  0.1407  0.4444
 2995TIP3    H130476   3.553   5.080  12.682  1.6767 -3.7376  0.4456
 2995TIP3    H230477   3.640   5.113  12.801  0.3090 -0.2990  0.5880
 2996TIP3   OH230478   3.049   5.914   2.617 -0.3047  0.2927  0.1488
 2996TIP3    H130479   3.043   6.007   2.638  1.4973  0.2754  0.9044
 2996TIP3    H230480   2.959   5.881   2.625 -0.5450  1.3911  2.6828
 2997TIP3   OH230481   4.247   0.582  14.780  0.1159  0.1602 -0.1077
 2997TIP3    H130482   4.301   0.544  14.849 -0.3329  0.2082  0.2727
 2997TIP3    H230483   4.305   0.586  14.703  0.9817  1.1494  0.5658
 2998TIP3   OH230484   3.952   6.206  17.004  0.0776  0.3561  0.2454
 2998TIP3    H130485   4.047   6.218  17.008  0.4328 -2.0444  0.4534
 2998TIP3    H230486   3.935   6.126  17.054 -2.0232  0.5280 -0.0800
 2999TIP3   OH230487   6.530   2.201  12.287 -0.5191  0.3170 -0.4473
 2999TIP3    H130488   6.435   2.208  12.288 -0.5273  1.3312  2.4895
 2999TIP3    H230489   6.561   2.287  12.316  1.1952 -0.5612  0.5144
 3000TIP3   OH230490   0.782   3.745  14.941  0.3749 -0.3888  0.3702
 3000TIP3    H130491   0.710   3.783  14.890  0.4460 -0.4397  0.2313
 3000TIP3    H230492   0.823   3.682  14.881  0.1159 -0.8471  0.6691
 3001TIP3   OH230493   1.902   1.821   0.694  0.1221 -0.4895  0.1727
 3001TIP3    H130494   1.844   1.841   0.620 -0.6844  2.1095  1.3937
 3001TIP3    H230495   1.899   1.726   0.702 -0.6895 -0.7629 -2.3723
 3002TIP3   OH230496   0.468   2.840   4.949  0.3165  0.1503 -0.0143
 3002TIP3    H130497   0.480   2.929   4.983  1.2101  0.8041 -1.9508
 3002TIP3    H230498   0.441   2.852   4.858  2.0626 -1.5449 -0.8246
 3003TIP3   OH230499   1.791   1.711   5.994  0.1338 -0.2192  0.0647
 3003TIP3    H130500   1.782   1.803   5.966 -0.5775 -0.1094  0.6371
 3003TIP3    H230501   1.839   1.716   6.076 -0.0057 -0.3536  0.1531
 3004TIP3   OH230502   1.145   0.052   0.429 -0.4596  0.2278  0.2316
 3004TIP3    H130503   1.157   0.124   0.366 -1.7832 -0.5834 -1.0337
 3004TIP3    H230504   1.218   0.061   0.490 -0.5708  2.6368  0.1320
 3005TIP3   OH230505   1.438   6.033  14.089 -0.2006 -0.2318 -0.1771
 3005TIP3    H130506   1.524   5.992  14.083 -0.1971 -0.2850  0.2036
 3005TIP3    H230507   1.419   6.035  14.182 -0.1167  0.7984 -0.1685
 3006TIP3   OH230508   2.571   2.755  14.078 -0.7945 -0.0478 -0.2524
 3006TIP3    H130509   2.534   2.667  14.065 -1.5014 -0.0032  1.3323
 3006TIP3    H230510   2.513   2.813  14.029 -1.1489 -0.3047 -0.1389
 3007TIP3   OH230511   0.893   4.133  12.029  0.1668  0.3106 -0.5035
 3007TIP3    H130512   0.868   4.225  12.025  0.0550  0.4826  2.3740
 3007TIP3    H230513   0.987   4.134  12.044  0.0788  0.0018  0.1142
 3008TIP3   OH230514   5.390   6.747   4.677 -0.3307 -0.0316  0.2611
 3008TIP3    H130515   5.324   6.681   4.654  0.3447  0.3793 -3.4267
 3008TIP3    H230516   5.471   6.698   4.684 -0.4742 -0.0999  1.6116
 3009TIP3   OH230517   3.032   3.883  14.690  0.2242 -0.2371 -0.2837
 3009TIP3    H130518   3.068   3.844  14.769  0.1933 -0.3697 -0.3354
 3009TIP3    H230519   3.073   3.835  14.618 -0.3356 -0.6422 -0.3373
 3010TIP3   OH230520   1.273   2.240   3.531 -0.3147  0.2934 -0.2906
 3010TIP3    H130521   1.196   2.183   3.526  0.4348 -0.7754  0.0345
 3010TIP3    H230522   1.280   2.262   3.624  1.6765 -2.3862  0.3165
 3011TIP3   OH230523   1.841   1.681  15.839  0.3355 -0.2638  0.2659
 3011TIP3    H130524   1.873   1.740  15.907  2.1565 -1.1244  0.2041
 3011TIP3    H230525   1.778   1.624  15.883  0.1836  0.3098  0.8087
 3012TIP3   OH230526   4.945   3.777  14.573 -0.2151 -0.8080 -0.0502
 3012TIP3    H130527   4.899   3.770  14.490 -0.3997  2.3893 -0.3478
 3012TIP3    H230528   4.899   3.847  14.620 -0.4282 -2.7967  3.0080
 3013TIP3   OH230529   6.589   2.820   2.966 -0.0595  0.5204 -0.5124
 3013TIP3    H130530   6.614   2.893   3.022 -0.2863  0.2875 -0.1002
 3013TIP3    H230531   6.595   2.854   2.877  2.8265  0.1861 -0.5470
 3014TIP3   OH230532   1.893   6.322  14.706 -0.4024  0.3489 -0.2029
 3014TIP3    H130533   1.902   6.319  14.802  0.0916  0.9741 -0.2201
 3014TIP3    H230534   1.948   6.250  14.675  0.4819  0.9527 -0.0692
 3015TIP3   OH230535   5.725   0.206   1.181 -0.0894 -0.1232  1.0218
 3015TIP3    H130536   5.770   0.289   1.161  1.0943 -1.0768 -0.4636
 3015TIP3    H230537   5.676   0.186   1.101  1.4433 -1.9542  0.4685
 3016TIP3   OH230538   0.431   2.910  14.884 -0.4253 -0.2618  0.0171
 3016TIP3    H130539   0.449   2.960  14.964  0.9603  3.3785 -2.3351
 3016TIP3    H230540   0.507   2.852  14.875 -0.1519 -0.0516  0.8387
 3017TIP3   OH230541   6.275   0.862  12.229  0.7217  0.2095  0.6111
 3017TIP3    H130542   6.268   0.920  12.153  0.6989 -2.5680 -1.6775
 3017TIP3    H230543   6.368   0.865  12.253  1.0606 -0.1286 -0.6169
 3018TIP3   OH230544   1.416   4.344   3.479  0.1852  0.2827  0.1807
 3018TIP3    H130545   1.331   4.388   3.479 -1.1780 -2.1670  0.0966
 3018TIP3    H230546   1.462   4.381   3.404 -1.4118  0.6112 -0.6787
 3019TIP3   OH230547   0.841   5.731   1.603 -0.7095  0.0946 -0.1033
 3019TIP3    H130548   0.761   5.774   1.572 -0.7318  0.3660  0.3268
 3019TIP3    H230549   0.849   5.757   1.695  0.7330  1.3937 -0.5486
 3020TIP3   OH230550   4.933   4.056  12.643  0.0098  0.1565  0.1621
 3020TIP3    H130551   4.969   4.106  12.716  1.0906 -0.6473  0.1966
 3020TIP3    H230552   4.935   3.965  12.672 -1.0322 -0.0137 -0.2675
 3021TIP3   OH230553   4.354   0.666   2.299 -0.6285 -0.2191 -0.2046
 3021TIP3    H130554   4.415   0.606   2.255  0.0740  0.3979 -0.0836
 3021TIP3    H230555   4.408   0.714   2.361 -1.0494  1.0352 -0.7735
 3022TIP3   OH230556   3.966   1.735  15.379  0.6715  0.0620  0.6186
 3022TIP3    H130557   3.991   1.739  15.286  2.4213  0.7477  1.0793
 3022TIP3    H230558   4.049   1.743  15.426 -0.1812 -0.3464  2.2606
 3023TIP3   OH230559   3.583   3.754  14.946 -0.5900  0.3394  0.0930
 3023TIP3    H130560   3.628   3.708  15.017  0.0754 -0.3651 -0.7703
 3023TIP3    H230561   3.541   3.684  14.896 -2.2546  0.9386  0.5876
 3024TIP3   OH230562   0.866   0.053   5.057 -0.2836 -0.1926 -0.2982
 3024TIP3    H130563   0.780   0.065   5.099  1.3853  2.5480  2.8582
 3024TIP3    H230564   0.900  -0.028   5.094 -0.6685 -0.1612  0.1368
 3025TIP3   OH230565   4.318   0.305   2.419 -0.2266 -0.4108  0.5240
 3025TIP3    H130566   4.382   0.244   2.454 -0.5601 -0.2942  1.3540
 3025TIP3    H230567   4.312   0.374   2.484 -0.3613  0.1618 -0.0816
 3026TIP3   OH230568   4.257   2.127   2.707  0.1800 -0.4011  0.7587
 3026TIP3    H130569   4.189   2.120   2.774 -1.3804  0.3787 -0.6702
 3026TIP3    H230570   4.320   2.189   2.744  0.4920 -1.6029  2.3735
 3027TIP3   OH230571   6.484   2.686  17.137  0.4317 -0.2464 -0.1422
 3027TIP3    H130572   6.407   2.632  17.155  1.0110 -0.7949  0.8329
 3027TIP3    H230573   6.504   2.670  17.045 -0.0338 -0.8676 -0.1426
 3028TIP3   OH230574   4.516   5.148  13.693  0.0720 -0.9332 -0.2916
 3028TIP3    H130575   4.547   5.162  13.782 -0.4700 -4.3750  0.5889
 3028TIP3    H230576   4.551   5.222  13.643  0.6427  0.9607  2.6650
 3029TIP3   OH230577   6.407   5.899  12.448 -0.1551  0.3050 -0.0769
 3029TIP3    H130578   6.338   5.918  12.512 -1.1650  1.7698 -1.5387
 3029TIP3    H230579   6.370   5.829  12.394  0.6223 -0.7982  0.7788
 3030TIP3   OH230580   0.690   5.706   5.234  0.3248  0.1309 -0.2092
 3030TIP3    H130581   0.733   5.745   5.310  0.8099 -0.1317 -0.3424
 3030TIP3    H230582   0.751   5.639   5.204 -0.3666 -0.5457 -0.1468
 3031TIP3   OH230583   5.731   3.095   4.264 -0.2503 -0.9739 -0.0019
 3031TIP3    H130584   5.736   3.183   4.227 -1.0477 -1.0288 -0.2563
 3031TIP3    H230585   5.821   3.062   4.259  0.0511 -0.1873  0.0728
 3032TIP3   OH230586   2.226   6.794  12.335 -0.0716  0.5494 -0.6374
 3032TIP3    H130587   2.187   6.860  12.279  1.6563  0.4052 -2.1022
 3032TIP3    H230588   2.227   6.714  12.282  1.4264  0.3628 -0.3810
 3033TIP3   OH230589   3.637   1.666  16.692  0.2243 -0.5630 -0.3160
 3033TIP3    H130590   3.565   1.660  16.756 -0.4183 -1.3530 -1.0885
 3033TIP3    H230591   3.705   1.715  16.738 -1.6432  2.2859 -0.3059
 3034TIP3   OH230592   0.722   5.786   1.101 -0.0446  0.6544  0.3795
 3034TIP3    H130593   0.773   5.849   1.152 -1.2499  2.2595 -0.3004
 3034TIP3    H230594   0.633   5.792   1.135 -0.7090  1.1826 -1.3105
 3035TIP3   OH230595   0.155   2.510  10.981 -0.4241  0.0407  0.3996
 3035TIP3    H130596   0.242   2.472  10.967 -0.0605  0.5325  1.2190
 3035TIP3    H230597   0.130   2.546  10.896 -0.8416 -2.0963 -0.4521
 3036TIP3   OH230598   5.536   4.681   2.074  0.7909 -0.3515  0.1614
 3036TIP3    H130599   5.488   4.719   2.000 -0.4294 -1.4673  0.3238
 3036TIP3    H230600   5.543   4.588   2.052 -1.3504 -1.1209  2.2654
 3037TIP3   OH230601   2.027   5.120   6.589 -0.8294  0.3359  0.4066
 3037TIP3    H130602   2.012   5.055   6.657  0.2066  0.1936  0.5165
 3037TIP3    H230603   1.953   5.180   6.596 -0.3870  0.7311  2.1397
 3038TIP3   OH230604   6.456   0.084  12.663  0.5254  0.1537 -0.0286
 3038TIP3    H130605   6.388   0.105  12.599  1.2841  0.5516 -0.7062
 3038TIP3    H230606   6.473   0.166  12.709  2.2330  0.6700 -1.4870
 3039TIP3   OH230607   0.899   0.921  14.763  0.2312  0.0982  0.3353
 3039TIP3    H130608   0.937   1.009  14.760  1.2145 -0.3254 -0.0418
 3039TIP3    H230609   0.807   0.935  14.742  0.2645  1.0957  0.7766
 3040TIP3   OH230610   4.326   3.589  16.735 -0.9130 -0.0342 -0.3147
 3040TIP3    H130611   4.372   3.641  16.669 -3.0059  1.6672 -0.5628
 3040TIP3    H230612   4.245   3.562  16.691 -1.3486 -0.7216  0.8772
 3041TIP3   OH230613   5.780   1.183  14.975 -0.3177  0.3607 -0.0702
 3041TIP3    H130614   5.744   1.096  14.961 -0.5910  0.5133 -0.3131
 3041TIP3    H230615   5.855   1.169  15.034  0.5223 -0.2176 -1.2451
 3042TIP3   OH230616   1.427   2.677  14.425 -0.1718  0.1584 -0.8859
 3042TIP3    H130617   1.389   2.765  14.434 -0.0874  0.1583 -0.5041
 3042TIP3    H230618   1.399   2.647  14.339 -0.4905  0.4233 -0.8747
 3043TIP3   OH230619   1.163   0.775   2.325  0.0761 -0.5332 -0.0541
 3043TIP3    H130620   1.084   0.785   2.273 -0.6334 -1.1827  0.8647
 3043TIP3    H230621   1.209   0.859   2.315 -1.9427  0.8474  1.3492
 3044TIP3   OH230622   5.042   2.048  14.799  0.0388  0.5225 -0.1996
 3044TIP3    H130623   5.082   2.030  14.883  0.7431  0.6566 -0.4975
 3044TIP3    H230624   4.961   2.095  14.820 -0.2716 -0.2818  0.4345
 3045TIP3   OH230625   6.429   6.753   3.757  0.1976 -0.2328 -0.0261
 3045TIP3    H130626   6.464   6.818   3.697  0.2693  0.5547  0.8416
 3045TIP3    H230627   6.433   6.795   3.843 -0.5995 -1.0440  0.4297
 3046TIP3   OH230628   1.117   4.886  15.349  0.5357 -0.0131 -0.1597
 3046TIP3    H130629   1.187   4.865  15.288  1.2899  0.1053  0.6429
 3046TIP3    H230630   1.090   4.975  15.326 -1.1861 -0.9777 -2.1662
 3047TIP3   OH230631   5.178   0.366   3.777 -0.4757 -0.5065  0.1641
 3047TIP3    H130632   5.259   0.416   3.786  0.3772 -1.9022  0.5805
 3047TIP3    H230633   5.133   0.378   3.861  0.1457 -1.1305  0.5935
 3048TIP3   OH230634   1.311   3.136   3.664  0.0765  0.1562  0.0796
 3048TIP3    H130635   1.346   3.215   3.622  0.6647 -0.7536 -1.2190
 3048TIP3    H230636   1.248   3.169   3.728 -1.7819  1.6379 -2.3218
 3049TIP3   OH230637   4.002   5.373  15.404 -0.2251  0.4893  0.2737
 3049TIP3    H130638   4.068   5.386  15.472  0.9769 -1.3374 -0.4650
 3049TIP3    H230639   3.919   5.364  15.452  0.5899 -0.7793  1.5092
 3050TIP3   OH230640   3.730   2.839   1.562  0.2474  0.4626  0.2379
 3050TIP3    H130641   3.767   2.816   1.648 -0.7949 -0.2339  0.5284
 3050TIP3    H230642   3.800   2.885   1.517  0.4643  1.8359  1.8802
 3051TIP3   OH230643   4.114   6.028  12.088  0.1944 -0.0399 -0.7576
 3051TIP3    H130644   4.196   6.037  12.040  0.0050  1.6840 -0.8123
 3051TIP3    H230645   4.050   6.078  12.037 -0.5292 -0.0644  0.0969
 3052TIP3   OH230646   3.492   3.597  12.262  0.0367 -0.8077 -0.9991
 3052TIP3    H130647   3.534   3.642  12.335 -1.0930  0.4221 -1.0589
 3052TIP3    H230648   3.476   3.508  12.295 -0.9055 -0.1411  0.4673
 3053TIP3   OH230649   1.578   3.270   4.340 -0.1527  0.2240 -0.0909
 3053TIP3    H130650   1.613   3.182   4.328 -0.7310 -0.3208  1.8300
 3053TIP3    H230651   1.628   3.306   4.413  0.3865  1.6929 -1.1296
 3054TIP3   OH230652   5.234   2.132   5.821  0.0060 -0.5173 -0.3308
 3054TIP3    H130653   5.322   2.094   5.816  0.1430 -0.3282  0.4504
 3054TIP3    H230654   5.229   2.166   5.910 -0.1580  1.1969 -0.9680
 3055TIP3   OH230655   5.943   4.586  12.137 -0.5616 -0.0391 -0.2226
 3055TIP3    H130656   5.848   4.595  12.147 -0.9096  0.8375 -3.2153
 3055TIP3    H230657   5.958   4.492  12.139 -1.3313 -0.1590  1.1971
 3056TIP3   OH230658   3.455   1.863  16.025  0.2441  0.2241  0.3952
 3056TIP3    H130659   3.419   1.818  16.101  1.1588 -0.1996  0.5966
 3056TIP3    H230660   3.393   1.846  15.955 -0.2889  0.0873  0.8949
 3057TIP3   OH230661   0.949   6.040  13.513  0.3770 -0.7242 -0.3222
 3057TIP3    H130662   1.038   6.009  13.529  1.0090 -1.1532 -3.7600
 3057TIP3    H230663   0.939   6.117  13.568  2.6233 -1.0770  0.6722
 3058TIP3   OH230664   5.224   0.801  16.414  0.0529  0.8344 -0.2879
 3058TIP3    H130665   5.155   0.857  16.380 -0.6911  0.8132  1.1365
 3058TIP3    H230666   5.305   0.841  16.381 -0.5472  1.7185 -0.7264
 3059TIP3   OH230667   1.587   5.569   0.198  0.9963  0.2248 -0.2563
 3059TIP3    H130668   1.611   5.643   0.255  1.8877  1.5246 -2.1942
 3059TIP3    H230669   1.492   5.564   0.204  0.8036  2.2627 -0.8571
 3060TIP3   OH230670   2.513   2.774   0.690  0.3872 -0.2334  0.4635
 3060TIP3    H130671   2.592   2.744   0.646  0.8845 -0.0094  1.1797
 3060TIP3    H230672   2.490   2.702   0.750 -0.2221 -0.4953 -0.0767
 3061TIP3   OH230673   1.701   3.962  14.177  0.3272 -0.3406 -0.1703
 3061TIP3    H130674   1.724   3.913  14.098 -0.1535 -1.0631  0.1223
 3061TIP3    H230675   1.784   3.971  14.225  0.6498  0.2490 -0.8282
 3062TIP3   OH230676   5.547   1.140   5.522  0.2499 -0.6731  0.0910
 3062TIP3    H130677   5.546   1.218   5.467  1.4434 -1.1258 -0.6117
 3062TIP3    H230678   5.510   1.071   5.467  0.6433 -0.9392  0.1583
 3063TIP3   OH230679   0.734   1.526  14.573 -0.0234  0.4257  0.3251
 3063TIP3    H130680   0.735   1.601  14.514  0.6091 -0.3862 -0.7272
 3063TIP3    H230681   0.655   1.478  14.551  0.4788 -0.1586 -0.2479
 3064TIP3   OH230682   3.770   3.414   5.628  1.0453  0.6724 -0.6073
 3064TIP3    H130683   3.707   3.346   5.650  1.3399  0.7570  0.5463
 3064TIP3    H230684   3.717   3.491   5.607  0.7468  0.5302 -0.3828
 3065TIP3   OH230685   6.536   4.850   0.258 -0.0145  0.4147  0.3165
 3065TIP3    H130686   6.476   4.776   0.270 -1.0457  1.6171  3.4000
 3065TIP3    H230687   6.478   4.924   0.240  0.9047  0.8613 -0.9731
 3066TIP3   OH230688   1.370   3.260  11.491 -0.1537  0.0626 -0.0743
 3066TIP3    H130689   1.411   3.176  11.514 -0.4640 -0.0948 -0.1040
 3066TIP3    H230690   1.443   3.314  11.460 -0.1038 -0.5262 -1.0233
 3067TIP3   OH230691   1.780   5.497   0.662 -0.2790  0.0509  0.0398
 3067TIP3    H130692   1.719   5.424   0.669 -0.5099  0.2291 -0.0886
 3067TIP3    H230693   1.725   5.572   0.638  0.3996 -0.4110 -3.4579
 3068TIP3   OH230694   4.197   5.791   0.103 -0.1934  0.4627  0.0713
 3068TIP3    H130695   4.153   5.720   0.056  0.2596 -0.4224  0.9328
 3068TIP3    H230696   4.249   5.835   0.036  2.0209 -1.9985 -0.0161
 3069TIP3   OH230697   0.718   4.948   3.815 -0.1825 -0.3430 -0.0733
 3069TIP3    H130698   0.749   4.941   3.906 -2.0145  1.6639  0.7921
 3069TIP3    H230699   0.782   5.006   3.773 -0.3999  0.3419  0.5153
 3070TIP3   OH230700   3.920   6.586  13.326 -0.1751  0.1473 -0.1127
 3070TIP3    H130701   3.982   6.657  13.341  0.5147 -0.6842  1.1508
 3070TIP3    H230702   3.882   6.568  13.412  0.1060 -1.4058 -0.2784
 3071TIP3   OH230703   4.536   5.341  12.964 -0.9466  0.0316  0.3668
 3071TIP3    H130704   4.472   5.277  12.933  0.3370 -1.4820  0.7379
 3071TIP3    H230705   4.618   5.292  12.970  0.3817  2.0006 -0.5270
 3072TIP3   OH230706   1.865   3.622  12.292  0.3810 -0.4041  1.2378
 3072TIP3    H130707   1.872   3.534  12.256 -0.2771 -0.3185  0.8887
 3072TIP3    H230708   1.941   3.630  12.350  0.0282 -1.4856  1.8943
 3073TIP3   OH230709   1.706   6.536  15.233 -0.0960 -0.2305  0.7614
 3073TIP3    H130710   1.734   6.609  15.177  2.6509 -1.0574  0.8820
 3073TIP3    H230711   1.765   6.464  15.209 -1.5023 -1.8449  1.9327
 3074TIP3   OH230712   2.668   5.185  17.043  0.2237  0.0892 -0.2018
 3074TIP3    H130713   2.636   5.274  17.030 -0.2640 -0.3772 -2.6416
 3074TIP3    H230714   2.757   5.197  17.076  0.6361  1.5452 -1.6757
 3075TIP3   OH230715   2.141   3.670  14.244  0.7768  0.4492  0.9647
 3075TIP3    H130716   2.165   3.732  14.175 -2.7102  1.1665  0.2041
 3075TIP3    H230717   2.173   3.586  14.213 -0.7413  0.7435 -1.6521
 3076TIP3   OH230718   4.536   6.821   4.719 -0.3862  0.2149  0.5953
 3076TIP3    H130719   4.506   6.857   4.803 -0.5538  0.1732  0.5532
 3076TIP3    H230720   4.457   6.785   4.679 -0.6801  1.9200 -0.4469
 3077TIP3   OH230721   5.086   0.013   5.178 -0.4138 -0.5821 -0.3983
 3077TIP3    H130722   5.082  -0.055   5.111 -1.8059 -0.8974 -0.0221
 3077TIP3    H230723   5.004   0.062   5.167  0.6966  1.2643 -0.8845
 3078TIP3   OH230724   0.348   2.935   2.018  0.3298 -0.6224  0.0178
 3078TIP3    H130725   0.285   2.933   1.946  0.6728 -0.0489 -0.3022
 3078TIP3    H230726   0.319   3.007   2.074 -0.5371 -1.7060  1.0217
 3079TIP3   OH230727   3.553   1.537  11.317 -0.0093 -0.3569 -0.3773
 3079TIP3    H130728   3.490   1.532  11.389 -0.4339  0.3627 -0.6915
 3079TIP3    H230729   3.572   1.630  11.307 -0.2020 -0.4097 -1.3955
 3080TIP3   OH230730   4.734   3.456  14.592 -0.3093 -0.1398  0.5603
 3080TIP3    H130731   4.818   3.476  14.551  0.8940  0.7389  3.2144
 3080TIP3    H230732   4.707   3.539  14.632 -1.3960 -0.9229  1.5028
 3081TIP3   OH230733   2.729   5.647   2.572  0.1834 -0.1760  0.1560
 3081TIP3    H130734   2.811   5.624   2.617 -0.0722  0.7711  1.1797
 3081TIP3    H230735   2.682   5.565   2.564  0.6511 -0.5189  0.8016
 3082TIP3   OH230736   1.012   2.263  14.985  0.5018  0.5271 -0.0497
 3082TIP3    H130737   1.057   2.332  15.034 -1.8349  1.7965  0.4390
 3082TIP3    H230738   1.055   2.263  14.899  2.1552  0.8609  0.7402
 3083TIP3   OH230739   4.014   4.795  14.844 -0.2071  0.0063 -0.5991
 3083TIP3    H130740   3.992   4.708  14.810 -0.5595  0.4697 -1.5689
 3083TIP3    H230741   4.108   4.804  14.826  0.1824 -0.7549  0.8477
 3084TIP3   OH230742   0.426   4.791   1.167  0.0879  0.2886  0.2866
 3084TIP3    H130743   0.382   4.838   1.096  2.1594 -0.6109 -1.7754
 3084TIP3    H230744   0.518   4.819   1.160  0.8782 -1.9589  0.7160
 3085TIP3   OH230745   6.735   0.677  15.937 -0.8877 -0.3042  0.3229
 3085TIP3    H130746   6.731   0.656  15.844  1.4737 -1.6267  0.4293
 3085TIP3    H230747   6.688   0.760  15.945 -1.3355 -0.2590 -1.9955
 3086TIP3   OH230748   2.825   5.499   3.242  0.0153  0.0404 -0.3642
 3086TIP3    H130749   2.913   5.486   3.277  0.9362 -0.3725 -2.6581
 3086TIP3    H230750   2.803   5.589   3.265  0.6256 -0.1434  1.0375
 3087TIP3   OH230751   6.787   3.524  13.554  0.8778  1.0479  0.2568
 3087TIP3    H130752   6.822   3.475  13.628  1.6952  1.3119  0.0626
 3087TIP3    H230753   6.764   3.457  13.489  3.3001  0.9161 -0.5700
 3088TIP3   OH230754   6.371   2.722  14.523  0.2073  0.3491  0.8960
 3088TIP3    H130755   6.421   2.665  14.464  0.7290  1.6649  0.0140
 3088TIP3    H230756   6.432   2.793  14.545 -1.2565  2.0248 -0.2221
 3089TIP3   OH230757   4.891   4.479   3.731  0.6548  0.6243 -0.2828
 3089TIP3    H130758   4.970   4.531   3.741  0.6406  0.7831 -0.9599
 3089TIP3    H230759   4.821   4.533   3.769  0.2537  2.1122 -2.8845
 3090TIP3   OH230760   4.785   2.279  15.493 -0.6418  0.0836 -0.7410
 3090TIP3    H130761   4.808   2.341  15.562  0.4090  1.0658 -1.9184
 3090TIP3    H230762   4.865   2.270  15.441 -0.8965 -1.9387 -0.8741
 3091TIP3   OH230763   2.360   2.614  14.520  0.6044  0.5983 -0.4785
 3091TIP3    H130764   2.440   2.570  14.490 -0.2488 -0.7316 -0.8973
 3091TIP3    H230765   2.304   2.615  14.442 -0.8704 -1.0711  0.5031
 3092TIP3   OH230766   1.529   5.535  13.456  0.1678 -0.2048  0.3006
 3092TIP3    H130767   1.509   5.442  13.465 -0.1671 -0.1202  0.4687
 3092TIP3    H230768   1.622   5.541  13.474  0.4616 -0.6699 -0.9732
 3093TIP3   OH230769   6.110   0.621   1.915 -0.6150 -0.1365  0.1870
 3093TIP3    H130770   6.187   0.578   1.953  0.5124  0.6574 -1.0952
 3093TIP3    H230771   6.045   0.551   1.909  0.2888 -1.0422  0.5316
 3094TIP3   OH230772   6.204   1.508  13.143 -0.4628 -0.1797 -0.7236
 3094TIP3    H130773   6.127   1.460  13.110 -0.5761 -0.8631  0.4767
 3094TIP3    H230774   6.273   1.488  13.079 -1.0256 -0.3581 -1.2905
 3095TIP3   OH230775   0.975   1.715  11.244 -0.2587 -0.6291 -0.3587
 3095TIP3    H130776   1.034   1.645  11.219  0.6235 -0.4572  1.1058
 3095TIP3    H230777   0.949   1.693  11.334  0.8357  1.4006  0.5087
 3096TIP3   OH230778   0.180   1.665   3.575  0.0376 -0.8037  0.5893
 3096TIP3    H130779   0.250   1.604   3.552 -1.4166 -1.7243 -1.7212
 3096TIP3    H230780   0.122   1.615   3.632 -0.5432 -1.1977 -0.3441
 3097TIP3   OH230781   5.579   6.304   0.459  0.0194 -0.0192 -0.2569
 3097TIP3    H130782   5.489   6.286   0.433 -0.8242  2.5173  0.6880
 3097TIP3    H230783   5.615   6.356   0.388 -0.3330  1.6900  0.7655
 3098TIP3   OH230784   1.639   1.417  13.656  0.3391  0.1379 -0.4064
 3098TIP3    H130785   1.633   1.445  13.747 -0.6310 -0.8042 -0.1628
 3098TIP3    H230786   1.720   1.366  13.651 -0.3350 -1.0519  0.2995
 3099TIP3   OH230787   0.122   4.760   1.609  0.1667  0.2612 -0.4674
 3099TIP3    H130788   0.062   4.712   1.552 -0.7733  1.8332 -0.8806
 3099TIP3    H230789   0.207   4.754   1.565 -0.3035  0.4730 -1.4341
 3100TIP3   OH230790   6.576   0.234   1.023 -0.1594 -0.7282 -0.6865
 3100TIP3    H130791   6.563   0.301   0.956 -0.4218  2.5085  2.3018
 3100TIP3    H230792   6.648   0.267   1.076  0.1741 -3.2291  0.5620
 3101TIP3   OH230793   6.500   0.453  13.538  0.2384  0.5263  0.1525
 3101TIP3    H130794   6.571   0.447  13.602 -0.9149 -1.0144  1.3834
 3101TIP3    H230795   6.531   0.401  13.464  0.3165 -0.3749  0.7945
 3102TIP3   OH230796   0.698   5.213   4.420 -0.6233  0.4528  0.0377
 3102TIP3    H130797   0.655   5.205   4.336 -2.3256  1.8144  0.7204
 3102TIP3    H230798   0.763   5.143   4.421 -0.7270  0.2652 -2.2828
 3103TIP3   OH230799   4.080   3.179  15.437  0.0649  0.1683 -0.1591
 3103TIP3    H130800   4.071   3.218  15.350 -0.3424 -1.7248 -1.0235
 3103TIP3    H230801   4.105   3.088  15.419  2.7818  0.4389  1.7865
 3104TIP3   OH230802   0.025   5.100   0.750 -0.0009  0.3442  0.0582
 3104TIP3    H130803   0.032   5.011   0.784  1.7141  1.3172  2.5477
 3104TIP3    H230804  -0.063   5.128   0.776  1.1170  0.9236  3.6962
 3105TIP3   OH230805   3.672   1.164  13.944  0.1126  0.1238 -0.0873
 3105TIP3    H130806   3.699   1.217  13.869  0.1082  1.0668  0.5557
 3105TIP3    H230807   3.606   1.216  13.989 -1.2444 -1.2303 -0.4319
 3106TIP3   OH230808   1.380   0.193   4.507  0.1590  0.6596 -0.6746
 3106TIP3    H130809   1.292   0.210   4.473 -1.3765 -0.6679  2.2970
 3106TIP3    H230810   1.397   0.101   4.485  0.7387  0.8471 -1.0406
 3107TIP3   OH230811   3.350   3.732   0.504 -0.2460  0.0227 -0.1148
 3107TIP3    H130812   3.320   3.643   0.486 -0.3883 -0.6701  2.8968
 3107TIP3    H230813   3.406   3.754   0.430  1.5329 -3.4561 -0.0319
 3108TIP3   OH230814   3.894   4.451   0.525 -0.8288  0.2908  0.0426
 3108TIP3    H130815   3.925   4.540   0.542 -0.3715  0.1533 -0.0626
 3108TIP3    H230816   3.887   4.446   0.430  1.4802 -0.5419 -0.1454
 3109TIP3   OH230817   1.056   3.869  15.839 -0.4133 -0.1935  0.7973
 3109TIP3    H130818   1.004   3.852  15.918 -0.2070 -2.3830  0.5367
 3109TIP3    H230819   1.131   3.810  15.847  0.3231  0.5371 -0.4070
 3110TIP3   OH230820   2.540   3.395   5.652  0.7071  0.1109  0.5281
 3110TIP3    H130821   2.584   3.361   5.730 -0.1442  0.9518  1.3942
 3110TIP3    H230822   2.449   3.367   5.662  0.1312  1.9641  0.9133
 3111TIP3   OH230823   6.657   0.356  14.020  0.0387  0.0948 -0.4257
 3111TIP3    H130824   6.689   0.352  13.930  3.3642 -2.1300  0.6649
 3111TIP3    H230825   6.596   0.283  14.027  0.1005  0.0087 -0.7523
 3112TIP3   OH230826   4.416   3.556   3.419  0.3044  0.8427 -0.3092
 3112TIP3    H130827   4.428   3.579   3.327  1.4353  0.4052 -0.2936
 3112TIP3    H230828   4.394   3.463   3.417 -0.6917  1.0725 -0.1880
 3113TIP3   OH230829   3.236   3.481  14.071  0.0561  0.4296  0.4414
 3113TIP3    H130830   3.176   3.425  14.120 -0.0870  0.2694  0.0894
 3113TIP3    H230831   3.179   3.537  14.018  0.2076  0.6059  0.4632
 3114TIP3   OH230832   6.385   6.787  16.198  0.3698  0.0973 -0.1004
 3114TIP3    H130833   6.318   6.792  16.266  0.5631 -0.1612  0.1130
 3114TIP3    H230834   6.467   6.806  16.244  0.5004 -0.0729 -0.2609
 3115TIP3   OH230835   5.631   6.640  13.504  0.1294 -0.6039  0.0937
 3115TIP3    H130836   5.708   6.588  13.525  0.2017  0.1081  1.7606
 3115TIP3    H230837   5.605   6.611  13.417  1.6330 -1.6230 -0.0477
 3116TIP3   OH230838   6.164   5.961  13.594  0.1071  0.5038 -0.1302
 3116TIP3    H130839   6.165   5.994  13.504  1.3254  1.4988  0.2278
 3116TIP3    H230840   6.195   5.871  13.586  0.8822  0.8071 -0.6285
 3117TIP3   OH230841   0.243   0.700  11.389  0.6277 -0.6445 -0.6089
 3117TIP3    H130842   0.296   0.769  11.350 -0.7486  0.1895 -1.0829
 3117TIP3    H230843   0.240   0.631  11.323 -1.0060  0.4148 -1.7273
 3118TIP3   OH230844   6.715   4.282   5.066 -0.3283  0.0489  0.4592
 3118TIP3    H130845   6.683   4.224   4.997  0.0975  0.6349 -0.2435
 3118TIP3    H230846   6.636   4.309   5.114 -0.6496 -0.1846  0.0652
 3119TIP3   OH230847   1.027   3.340   5.316  0.1463 -0.1199 -0.8015
 3119TIP3    H130848   1.108   3.388   5.328  0.4994 -0.1696 -2.7349
 3119TIP3    H230849   1.052   3.262   5.266 -0.8887 -0.8360 -0.2582
 3120TIP3   OH230850   5.010   0.869  15.025  0.2736 -0.8973 -0.0021
 3120TIP3    H130851   4.984   0.934  15.090  0.0014  1.0882 -1.9815
 3120TIP3    H230852   5.089   0.905  14.985  0.2019 -1.8656 -1.0586
 3121TIP3   OH230853   4.511   6.130   2.629  0.1152  0.6916  0.1218
 3121TIP3    H130854   4.427   6.091   2.603  0.7880 -0.4216 -0.4355
 3121TIP3    H230855   4.554   6.152   2.547  1.4112 -1.0206  0.3059
 3122TIP3   OH230856   4.589   2.311   4.974  0.2169 -0.1253 -0.6859
 3122TIP3    H130857   4.668   2.313   4.919 -0.3050  0.2971 -1.4433
 3122TIP3    H230858   4.620   2.332   5.062  1.6896 -4.4136  0.0358
 3123TIP3   OH230859   4.024   5.601   1.230 -0.1264  0.0441  0.2601
 3123TIP3    H130860   4.059   5.627   1.145 -0.3816  1.9676  0.6905
 3123TIP3    H230861   4.088   5.538   1.264  0.0486 -0.6484 -1.2757
 3124TIP3   OH230862   6.522   2.379   2.090  0.0055  0.6090 -0.2709
 3124TIP3    H130863   6.494   2.410   2.177 -0.9869 -1.9448  0.3916
 3124TIP3    H230864   6.617   2.392   2.090 -0.2502  2.8992  0.1967
 3125TIP3   OH230865   5.292   5.495  12.666  0.0533 -0.5928  0.2083
 3125TIP3    H130866   5.202   5.466  12.648 -0.0530  0.0811 -0.3742
 3125TIP3    H230867   5.290   5.521  12.758  0.1118 -2.2348  0.7162
 3126TIP3   OH230868   1.676   3.490  13.816  0.3370  0.1159  0.2879
 3126TIP3    H130869   1.671   3.582  13.841 -2.3098  0.4927 -1.1912
 3126TIP3    H230870   1.684   3.443  13.899 -1.6912  1.5610  1.3907
 3127TIP3   OH230871   1.239   6.574   3.470  0.4821 -0.3391  0.0298
 3127TIP3    H130872   1.258   6.514   3.542  2.4148  0.0350 -0.1235
 3127TIP3    H230873   1.168   6.532   3.421  0.2850 -1.3953  1.1837
 3128TIP3   OH230874   5.426   6.707   5.171 -0.7205  0.9384 -0.2395
 3128TIP3    H130875   5.351   6.689   5.115 -1.4816 -0.4521  1.1514
 3128TIP3    H230876   5.462   6.620   5.191 -0.4419  1.3992  1.3783
 3129TIP3   OH230877   5.548   0.017   4.430  0.3760 -0.2085 -0.4261
 3129TIP3    H130878   5.515   0.080   4.367  0.7068  1.2167  0.7618
 3129TIP3    H230879   5.502   0.037   4.512  2.2573  0.1917  0.6184
 3130TIP3   OH230880   4.917   1.384   0.792  0.5663  0.2674  0.2608
 3130TIP3    H130881   4.917   1.472   0.828  0.3881  0.8866 -1.1745
 3130TIP3    H230882   4.825   1.356   0.796  0.6661  0.0116  0.9807
 3131TIP3   OH230883   2.232   3.509   0.033 -0.4128  0.2165  1.1411
 3131TIP3    H130884   2.277   3.432  -0.002 -0.0324  1.2304 -0.7195
 3131TIP3    H230885   2.279   3.583  -0.005 -0.0008  1.4592  3.7973
 3132TIP3   OH230886   1.820   3.411  16.448  0.4746  0.6233  0.0004
 3132TIP3    H130887   1.747   3.469  16.427  0.6215  0.0741 -2.3453
 3132TIP3    H230888   1.885   3.429  16.380  1.1313 -1.2570  0.0701
 3133TIP3   OH230889   5.273   2.840  13.271  0.2040  0.0368  0.0506
 3133TIP3    H130890   5.337   2.825  13.202  1.2639  0.7381  0.8470
 3133TIP3    H230891   5.239   2.928  13.254  1.1401  0.5892  0.9083
 3134TIP3   OH230892   4.324   2.317  14.630 -0.2024  0.3287  0.2430
 3134TIP3    H130893   4.344   2.399  14.675  0.1374 -1.2845  3.2705
 3134TIP3    H230894   4.302   2.256  14.700 -2.2635 -1.7266 -2.0129
 3135TIP3   OH230895   1.185   5.366  11.575 -0.4790 -0.2588 -0.4835
 3135TIP3    H130896   1.164   5.277  11.605  0.3242 -0.8339 -1.5710
 3135TIP3    H230897   1.259   5.354  11.516 -0.9826  1.0272 -1.4094
 3136TIP3   OH230898   1.030   5.081   4.780 -0.1642  0.3816 -0.1106
 3136TIP3    H130899   1.104   5.033   4.742 -0.3397  1.3266 -1.7598
 3136TIP3    H230900   1.032   5.059   4.873  1.3476 -0.6986 -0.3578
 3137TIP3   OH230901   6.534   1.159   5.458 -0.4366  0.1111 -0.0701
 3137TIP3    H130902   6.608   1.153   5.398  1.0748 -1.2306  1.7898
 3137TIP3    H230903   6.571   1.195   5.538 -2.3007  1.4772  0.2333
 3138TIP3   OH230904   6.291   3.807  11.403 -0.0669  0.1140 -0.6897
 3138TIP3    H130905   6.271   3.750  11.477  1.7826 -1.1874 -1.1072
 3138TIP3    H230906   6.292   3.895  11.439 -1.8903 -0.2014  0.2232
 3139TIP3   OH230907   1.578   4.795   1.337 -0.3506 -0.3193  0.1642
 3139TIP3    H130908   1.609   4.709   1.309 -0.6473 -0.2325 -0.4520
 3139TIP3    H230909   1.492   4.804   1.296 -0.0926  0.4935 -0.2287
 3140TIP3   OH230910   3.392   5.979  15.465  0.4573 -0.2142  0.1955
 3140TIP3    H130911   3.360   5.919  15.398  0.4477 -0.1011  0.0975
 3140TIP3    H230912   3.399   5.926  15.544 -0.4243 -0.1331  0.3424
 3141TIP3   OH230913   1.748   3.062   3.812 -0.2881 -0.2627 -0.3711
 3141TIP3    H130914   1.712   3.015   3.887  1.0055 -0.5194  0.1183
 3141TIP3    H230915   1.793   2.995   3.761  0.2977  0.1943 -0.4626
 3142TIP3   OH230916   5.763   0.114  16.072 -0.4575 -0.5181 -0.2590
 3142TIP3    H130917   5.741   0.185  16.132 -1.0401  0.2982 -1.3917
 3142TIP3    H230918   5.679   0.086  16.036 -0.1251 -1.0000 -0.6807
 3143TIP3   OH230919   3.146   2.705   2.303  0.3647 -0.4660 -0.5339
 3143TIP3    H130920   3.082   2.705   2.231  1.7238 -1.1760 -1.7989
 3143TIP3    H230921   3.168   2.797   2.316  0.4867 -0.3687 -1.3900
 3144TIP3   OH230922   2.229   0.860  10.928  0.2155 -0.2986  0.1664
 3144TIP3    H130923   2.218   0.770  10.900 -1.4170 -0.4829  1.2581
 3144TIP3    H230924   2.218   0.912  10.848 -0.1023 -1.0088 -0.2578
 3145TIP3   OH230925   6.408   5.028   0.636 -0.0661 -0.6083  0.1948
 3145TIP3    H130926   6.443   4.942   0.612 -1.0470 -0.3522 -2.5353
 3145TIP3    H230927   6.405   5.076   0.553 -0.9985  1.5201  1.3917
 3146TIP3   OH230928   1.240   4.140  15.285  0.1684 -0.2934 -0.6823
 3146TIP3    H130929   1.293   4.064  15.261 -0.6773 -1.0835 -0.0914
 3146TIP3    H230930   1.153   4.105  15.303 -0.5936  0.9816 -1.6519
 3147TIP3   OH230931   1.902   1.859  16.032  0.1044  0.6147  0.1500
 3147TIP3    H130932   1.807   1.854  16.041  0.2204 -0.9152  0.9056
 3147TIP3    H230933   1.931   1.912  16.107 -0.1649  1.3952 -0.2893
 3148TIP3   OH230934   1.709   5.459  14.551  0.4443 -0.4161  0.2271
 3148TIP3    H130935   1.705   5.488  14.460 -0.2770 -2.6485 -0.5029
 3148TIP3    H230936   1.665   5.374  14.552  0.3254 -0.4037  2.6947
 3149TIP3   OH230937   5.224   5.994   2.792  0.5169 -0.1209 -0.0162
 3149TIP3    H130938   5.278   6.049   2.735 -1.2614 -1.1723 -2.9472
 3149TIP3    H230939   5.247   5.905   2.768  0.0781 -0.6192  1.3391
 3150TIP3   OH230940   1.513   6.339   6.160  0.2473  0.5099 -0.3265
 3150TIP3    H130941   1.530   6.432   6.143  1.1060  0.3047 -0.6474
 3150TIP3    H230942   1.507   6.333   6.256  1.8045  0.6454 -0.2019
 3151TIP3   OH230943   0.718   0.266  16.940  0.4248 -0.1985 -0.5028
 3151TIP3    H130944   0.787   0.331  16.949  0.1357 -0.0481  0.7916
 3151TIP3    H230945   0.763   0.187  16.911  0.6914  0.7063 -2.7232
 3152TIP3   OH230946   4.500   2.333   1.966 -0.5602 -0.0290  0.1010
 3152TIP3    H130947   4.582   2.347   1.920 -0.8530 -0.7463 -0.6512
 3152TIP3    H230948   4.520   2.266   2.032 -0.1476  0.9808  1.0222
 3153TIP3   OH230949   5.015   1.073   2.882  0.6143  0.0116  0.9501
 3153TIP3    H130950   4.945   1.009   2.875 -0.5595  1.3103  0.2456
 3153TIP3    H230951   5.085   1.038   2.828 -0.8549  0.3454 -1.3073
 3154TIP3   OH230952   0.642   5.915   4.264 -0.1351  0.8934  0.3669
 3154TIP3    H130953   0.647   5.918   4.168 -2.5039 -2.6928 -0.0532
 3154TIP3    H230954   0.704   5.847   4.289 -2.2461 -0.9172  0.9134
 3155TIP3   OH230955   6.187   6.083   3.743 -0.6630 -0.5034 -0.8961
 3155TIP3    H130956   6.127   6.051   3.676 -0.4908 -0.8767 -0.8771
 3155TIP3    H230957   6.154   6.047   3.825  0.0706 -1.4436 -0.9917
 3156TIP3   OH230958   4.901   5.503  16.191  0.5264 -0.1376 -0.0242
 3156TIP3    H130959   4.978   5.476  16.141 -0.6719 -1.4241 -1.2773
 3156TIP3    H230960   4.898   5.442  16.265  1.7428  1.1405  1.1440
 3157TIP3   OH230961   5.623   2.633   1.519 -0.0516  0.2470  0.3902
 3157TIP3    H130962   5.600   2.581   1.596  0.6587 -2.7622 -1.2520
 3157TIP3    H230963   5.716   2.615   1.505 -0.2259  0.4925 -1.2785
 3158TIP3   OH230964   4.676   3.689  11.883  0.0647 -0.1900 -0.2807
 3158TIP3    H130965   4.745   3.657  11.941 -0.7566 -0.0830  0.7851
 3158TIP3    H230966   4.684   3.785  11.888 -1.2009 -0.1346  1.1709
 3159TIP3   OH230967   0.885   4.496  15.884  0.8555 -0.3110  0.6038
 3159TIP3    H130968   0.816   4.485  15.818  1.8921 -2.4346 -0.2269
 3159TIP3    H230969   0.841   4.481  15.968  0.0590 -0.3060  0.1970
 3160TIP3   OH230970   0.799   5.240  13.324 -1.2532 -0.5772  0.9305
 3160TIP3    H130971   0.775   5.222  13.415  1.0511 -0.7912  1.5725
 3160TIP3    H230972   0.801   5.336  13.318  0.1319 -0.5390  1.6076
 3161TIP3   OH230973   4.486   4.121   1.568 -0.0064  0.4614  0.6482
 3161TIP3    H130974   4.580   4.122   1.586  0.2973  0.4296 -0.8326
 3161TIP3    H230975   4.471   4.196   1.511 -0.7672  0.0881  0.3405
 3162TIP3   OH230976   6.674   1.341  11.198  0.1448 -0.1987 -0.4842
 3162TIP3    H130977   6.678   1.413  11.262  0.7697 -0.4340 -0.2503
 3162TIP3    H230978   6.636   1.381  11.120 -1.5964 -0.1531  0.3464
 3163TIP3   OH230979   1.094   3.513   1.394 -0.3594 -0.0819  0.1814
 3163TIP3    H130980   1.154   3.453   1.438 -0.4349  0.1829  0.6530
 3163TIP3    H230981   1.090   3.589   1.451 -0.8056  0.0851 -0.0656
 3164TIP3   OH230982   1.711   1.989  14.438  0.0512  0.4022 -1.0606
 3164TIP3    H130983   1.702   1.971  14.531 -1.6054  0.9719 -1.0870
 3164TIP3    H230984   1.709   1.902  14.397 -0.4523  0.2178 -0.6538
 3165TIP3   OH230985   2.665   6.822   5.645 -0.2987 -0.2453  0.4417
 3165TIP3    H130986   2.745   6.782   5.680 -0.6322  0.0241  1.5483
 3165TIP3    H230987   2.594   6.771   5.684 -0.6853  0.1462  0.2547
 3166TIP3   OH230988   5.548   2.318   4.037 -0.3390  0.3909 -0.3180
 3166TIP3    H130989   5.552   2.370   3.957 -2.6910  0.2640 -0.5849
 3166TIP3    H230990   5.635   2.326   4.076  0.1805  2.2381 -1.7605
 3167TIP3   OH230991   4.703   4.761  15.853 -0.0381  0.0775  0.6729
 3167TIP3    H130992   4.703   4.666  15.845  0.1762  0.0397  1.0817
 3167TIP3    H230993   4.763   4.779  15.925 -0.2877  0.5063  0.7796
 3168TIP3   OH230994   0.816   6.694  16.391 -0.5718  0.5802  0.0987
 3168TIP3    H130995   0.770   6.773  16.362 -0.6826  0.0935 -1.1217
 3168TIP3    H230996   0.819   6.702  16.487  0.1172  2.4225 -0.0361
 3169TIP3   OH230997   2.434   0.317  14.165  0.0098 -0.2839 -0.2964
 3169TIP3    H130998   2.394   0.363  14.239  1.2533  0.8130 -0.2618
 3169TIP3    H230999   2.434   0.225  14.192 -0.6969 -0.0608  0.5209
 3170TIP3   OH231000   5.722   4.130   5.507 -0.4855  0.0265 -0.3268
 3170TIP3    H131001   5.798   4.124   5.449  0.1466 -0.3711  0.5162
 3170TIP3    H231002   5.689   4.219   5.496  0.6957  0.5161  0.0202
 3171TIP3   OH231003   0.583   5.821   4.664 -0.5009 -0.1230 -0.3153
 3171TIP3    H131004   0.516   5.774   4.714 -0.1228 -0.8291 -0.4666
 3171TIP3    H231005   0.534   5.867   4.596 -0.9650  0.4337  0.3681
 3172TIP3   OH231006   4.094   1.526  14.731  0.0907 -0.4318  0.4372
 3172TIP3    H131007   4.122   1.513  14.640  0.0907 -2.1516  0.6635
 3172TIP3    H231008   4.134   1.610  14.756 -0.4168  0.3902 -1.3187
 3173TIP3   OH231009   6.222   4.280  14.876 -0.3244  0.0200 -0.2252
 3173TIP3    H131010   6.181   4.365  14.886 -1.0866 -0.2055 -1.2865
 3173TIP3    H231011   6.316   4.299  14.870 -0.3045  0.5957  1.4775
 3174TIP3   OH231012   2.479   1.496  12.600  0.3663 -0.4586 -0.3857
 3174TIP3    H131013   2.541   1.511  12.672  1.0695  1.3051 -1.2867
 3174TIP3    H231014   2.534   1.469  12.526 -0.0279  0.1581 -0.9172
 3175TIP3   OH231015   6.639   0.524   5.058 -0.2663  0.0558 -0.1981
 3175TIP3    H131016   6.548   0.510   5.084 -0.6101  0.0113 -1.3468
 3175TIP3    H231017   6.636   0.601   5.000  0.8382  1.7948  1.8923
 3176TIP3   OH231018   4.045   3.204  14.538  0.1169  0.0796  0.0615
 3176TIP3    H131019   3.993   3.189  14.459 -2.4226  0.6357  1.5221
 3176TIP3    H231020   4.033   3.124  14.590 -0.6701  0.8370  1.1053
 3177TIP3   OH231021   6.140   5.560   5.427 -0.2085 -0.5433 -0.3449
 3177TIP3    H131022   6.201   5.523   5.491  0.3354  0.2728 -0.3728
 3177TIP3    H231023   6.190   5.564   5.346  0.1900  1.3508 -0.0679
 3178TIP3   OH231024   0.714   2.666  12.830  0.1091 -0.2485 -0.1697
 3178TIP3    H131025   0.757   2.615  12.899 -2.0623  0.6284  2.0022
 3178TIP3    H231026   0.773   2.740  12.814  1.5535 -1.4738 -0.7025
 3179TIP3   OH231027   2.203   0.492   3.543 -0.0076  0.1591 -0.5239
 3179TIP3    H131028   2.217   0.587   3.543  2.2853  0.0053  2.6852
 3179TIP3    H231029   2.234   0.462   3.458  1.6607  2.0577 -0.6466
 3180TIP3   OH231030   2.359   4.155  14.781 -0.3844 -0.1525 -0.0795
 3180TIP3    H131031   2.275   4.163  14.826  0.2464  2.0472  0.8464
 3180TIP3    H231032   2.423   4.186  14.845  0.9551 -0.3804 -1.2683
 3181TIP3   OH231033   1.929   0.128  16.803  0.1462 -0.1730 -0.2712
 3181TIP3    H131034   1.960   0.205  16.755  0.4130  0.0750  0.2835
 3181TIP3    H231035   1.900   0.163  16.887  0.4496 -0.7050  0.0548
 3182TIP3   OH231036   1.914   6.170  15.610  0.2791  0.1036 -0.3607
 3182TIP3    H131037   1.895   6.166  15.703 -0.4199 -3.8122 -0.4685
 3182TIP3    H231038   1.844   6.223  15.573  0.5971  1.7582  1.2979
 3183TIP3   OH231039   1.128   6.753  16.043  0.2553  0.1689  0.1447
 3183TIP3    H131040   1.217   6.726  16.064  0.6757  0.0515 -1.6191
 3183TIP3    H231041   1.100   6.805  16.118  1.6477 -0.1358  0.9086
 3184TIP3   OH231042   2.114   3.521   3.957  0.3588  0.6089  0.4508
 3184TIP3    H131043   2.160   3.492   4.036 -0.7680  0.0014  0.9144
 3184TIP3    H231044   2.039   3.461   3.950  0.2886  0.8239 -0.9352
 3185TIP3   OH231045   3.095   6.289   5.027  0.2878 -0.8334 -0.5279
 3185TIP3    H131046   3.023   6.258   5.082  0.3685 -2.2315 -1.1659
 3185TIP3    H231047   3.066   6.272   4.937  1.7947 -2.4335 -0.7766
 3186TIP3   OH231048   3.901   0.492   4.647 -0.4937  0.3163 -0.4071
 3186TIP3    H131049   3.879   0.585   4.651 -0.5734  0.4104 -2.2559
 3186TIP3    H231050   3.835   0.455   4.589 -2.0379 -1.4295  2.2821
 3187TIP3   OH231051   3.297   2.012  12.711 -0.3558 -0.6405  0.0856
 3187TIP3    H131052   3.256   1.970  12.636 -1.8604  0.1082  0.4577
 3187TIP3    H231053   3.305   1.943  12.777 -2.4323 -0.4953  0.5474
 3188TIP3   OH231054   6.238   6.022  16.994 -0.3650  0.4034 -0.2236
 3188TIP3    H131055   6.226   5.927  17.003 -1.1731  0.5975  0.8928
 3188TIP3    H231056   6.296   6.031  16.918  0.4081 -1.0164  0.1608
 3189TIP3   OH231057   1.271   2.518   5.637  0.1868 -0.4202  0.3492
 3189TIP3    H131058   1.221   2.565   5.569 -0.4423 -0.4500  0.7851
 3189TIP3    H231059   1.246   2.561   5.719 -0.4625 -1.5563  0.7682
 3190TIP3   OH231060   1.296   2.503  13.510  0.3983  0.3521  0.0452
 3190TIP3    H131061   1.314   2.560  13.436 -1.0142  0.1193 -0.5280
 3190TIP3    H231062   1.261   2.423  13.470 -0.9582  0.4483  0.9557
 3191TIP3   OH231063   3.413   5.048   3.886 -0.4841  0.4964 -0.0029
 3191TIP3    H131064   3.359   4.982   3.930 -1.4354  0.9314 -0.4712
 3191TIP3    H231065   3.502   5.030   3.914 -0.9779  0.2922  1.4878
 3192TIP3   OH231066   0.976   6.282  12.272 -0.3608 -0.8476  0.4726
 3192TIP3    H131067   0.952   6.194  12.301  0.5572 -1.2693 -0.0217
 3192TIP3    H231068   0.975   6.277  12.176  1.1939 -0.7586  0.4297
 3193TIP3   OH231069   0.576   4.451  15.916 -0.2104  0.0158  0.0203
 3193TIP3    H131070   0.626   4.431  15.995  0.9874  0.1321 -0.6727
 3193TIP3    H231071   0.586   4.373  15.861  0.3771  0.5665 -0.6837
 3194TIP3   OH231072   4.883   0.709  16.582 -0.0806  0.2483 -0.9696
 3194TIP3    H131073   4.815   0.754  16.631  0.6586 -0.9559  1.3229
 3194TIP3    H231074   4.965   0.750  16.611  0.5250 -1.7529  0.4232
 3195TIP3   OH231075   3.196   1.194  15.721  0.3493  0.7319 -0.4771
 3195TIP3    H131076   3.120   1.147  15.754 -1.1234  2.0700 -1.7836
 3195TIP3    H231077   3.177   1.209  15.628  2.3895  0.7744 -0.9491
 3196TIP3   OH231078   0.866   4.071   4.781  0.5088  0.0605  0.5436
 3196TIP3    H131079   0.878   3.984   4.743 -0.7768  0.4893 -0.9492
 3196TIP3    H231080   0.864   4.055   4.875  1.0167 -1.4211  0.3374
 3197TIP3   OH231081   0.905   4.692   3.017 -0.4191  1.0078 -0.1351
 3197TIP3    H131082   0.926   4.785   3.006  1.3962  0.5036 -1.5524
 3197TIP3    H231083   0.963   4.663   3.087  0.4171  0.5718 -0.9838
 3198TIP3   OH231084   5.580   1.242   2.476 -0.3880 -0.2780 -0.6914
 3198TIP3    H131085   5.668   1.278   2.484 -0.4110 -0.3583 -0.0005
 3198TIP3    H231086   5.574   1.212   2.385 -0.2244  1.0735 -1.1582
 3199TIP3   OH231087   5.278   0.904  13.467  0.3816  0.1373  0.0986
 3199TIP3    H131088   5.291   0.939  13.555 -0.3445  0.3903  0.1087
 3199TIP3    H231089   5.204   0.954  13.432  0.7301  0.1089 -0.6947
 3200TIP3   OH231090   0.915   0.907   3.456 -0.6556 -0.2799 -0.0887
 3200TIP3    H131091   0.900   0.815   3.479 -1.6711  0.3574  2.0292
 3200TIP3    H231092   1.007   0.922   3.479 -0.9850 -0.3183  1.3628
 3201TIP3   OH231093   3.783   3.919  11.885 -0.3599  0.2120 -0.3096
 3201TIP3    H131094   3.699   3.941  11.846 -1.3139 -0.6086  1.1480
 3201TIP3    H231095   3.796   3.985  11.953  1.1859  1.5222 -1.7962
 3202TIP3   OH231096   6.103   2.202  11.867  0.1745  0.0020  0.7461
 3202TIP3    H131097   6.108   2.291  11.833  2.2650 -0.9173 -1.6918
 3202TIP3    H231098   6.194   2.174  11.873 -0.4508 -2.4610 -0.0514
 3203TIP3   OH231099   2.007   5.025   4.731 -0.5453  0.4936 -0.2934
 3203TIP3    H131100   2.046   4.976   4.803  2.1260 -1.0053 -2.5410
 3203TIP3    H231101   1.919   4.989   4.721  0.3029 -1.8379  0.0193
 3204TIP3   OH231102   5.598   4.093   3.811 -0.2187  0.7800 -0.2740
 3204TIP3    H131103   5.623   4.010   3.772 -0.0838  0.0936  1.2040
 3204TIP3    H231104   5.554   4.141   3.741  0.7776 -0.0278 -1.4870
 3205TIP3   OH231105   0.232   4.147   3.032  0.3320  0.3222 -0.0052
 3205TIP3    H131106   0.233   4.130   2.938 -0.4708 -0.5393  0.1380
 3205TIP3    H231107   0.323   4.132   3.060  0.9420  2.0780 -0.8788
 3206TIP3   OH231108   3.609   3.060   4.416 -0.3662 -0.2404 -0.0369
 3206TIP3    H131109   3.601   3.121   4.489  0.2562  0.4887 -0.5620
 3206TIP3    H231110   3.551   3.097   4.348  0.6595  0.2519 -0.6660
 3207TIP3   OH231111   5.575   3.163  12.651  0.0845 -0.0409 -0.1284
 3207TIP3    H131112   5.518   3.132  12.580  2.0998 -0.5882 -1.6267
 3207TIP3    H231113   5.634   3.225  12.608  0.9299  0.1240  1.2243
 3208TIP3   OH231114   1.078   1.454  16.284  0.1368  0.1593  0.3578
 3208TIP3    H131115   1.050   1.529  16.336  0.6684  0.0078  0.8739
 3208TIP3    H231116   1.018   1.384  16.309 -0.4598  0.4399 -0.2415
 3209TIP3   OH231117   4.690   1.946   4.079 -0.3551 -0.1644 -0.0196
 3209TIP3    H131118   4.630   2.021   4.073  0.2809  0.3315 -0.2765
 3209TIP3    H231119   4.718   1.945   4.171 -0.7767 -0.4175  0.1087
 3210TIP3   OH231120   0.608   6.688   2.773 -0.0151 -0.0027 -0.6577
 3210TIP3    H131121   0.699   6.662   2.765  0.1102 -0.9294  2.5308
 3210TIP3    H231122   0.562   6.633   2.710  1.4107 -0.7472 -1.0924
 3211TIP3   OH231123   0.191   4.225   4.376  0.6939  0.4904 -0.0544
 3211TIP3    H131124   0.185   4.233   4.471  1.1046  1.8694 -0.1345
 3211TIP3    H231125   0.200   4.314   4.344 -0.9088  0.1962 -1.5080
 3212TIP3   OH231126   4.745   4.439   3.226 -0.1770 -0.0691  0.7278
 3212TIP3    H131127   4.731   4.366   3.166 -1.0953  1.2000 -0.6666
 3212TIP3    H231128   4.834   4.426   3.258 -0.0399 -1.3660 -0.0989
 3213TIP3   OH231129   1.150   2.823   4.919 -0.2214  0.2073  0.1828
 3213TIP3    H131130   1.156   2.895   4.982  0.5195  0.1724  0.1637
 3213TIP3    H231131   1.216   2.844   4.853 -2.5389  1.4914 -1.9128
 3214TIP3   OH231132   0.352   2.677  15.305  0.0880 -0.3426  0.2086
 3214TIP3    H131133   0.354   2.718  15.218  1.3355 -2.1256 -0.6612
 3214TIP3    H231134   0.279   2.720  15.349 -0.6957  0.5124 -1.7620
 3215TIP3   OH231135   4.794   2.380   2.010 -0.4171  0.3052 -0.3277
 3215TIP3    H131136   4.813   2.375   2.104  0.1555 -0.1322 -0.4599
 3215TIP3    H231137   4.807   2.471   1.988 -1.9681  0.7252  0.2962
 3216TIP3   OH231138   6.500   3.326   4.788  0.3887 -0.2332  0.0567
 3216TIP3    H131139   6.528   3.372   4.867 -0.6036  0.4744  0.0061
 3216TIP3    H231140   6.579   3.324   4.733  0.6670  0.6871  0.3970
 3217TIP3   OH231141   4.569   2.805  16.694  0.0302 -0.2177  0.0697
 3217TIP3    H131142   4.494   2.864  16.708 -0.1996 -0.9508  2.4674
 3217TIP3    H231143   4.645   2.859  16.715 -0.2021 -0.7517  2.6766
 3218TIP3   OH231144   2.401   1.919   3.993  0.2118  0.1726  0.2810
 3218TIP3    H131145   2.483   1.969   3.990  0.1367  0.2978  0.3140
 3218TIP3    H231146   2.389   1.889   3.902 -1.0375  2.3137 -0.3050
 3219TIP3   OH231147   5.173   3.617  15.894 -0.0199 -0.0647 -0.1858
 3219TIP3    H131148   5.228   3.633  15.971  1.1049  2.4390 -1.4070
 3219TIP3    H231149   5.223   3.553  15.843  1.5406  1.6462 -0.9323
 3220TIP3   OH231150   2.844   1.109   0.494 -1.0966  0.4137 -0.4017
 3220TIP3    H131151   2.875   1.025   0.459 -1.8525 -0.0079 -0.0745
 3220TIP3    H231152   2.816   1.089   0.583 -2.3675  0.7554 -0.7054
 3221TIP3   OH231153   6.651   0.723   1.641  0.1553 -0.2152 -0.3482
 3221TIP3    H131154   6.580   0.701   1.702  1.0761 -0.8489  0.5102
 3221TIP3    H231155   6.615   0.794   1.588 -1.2765 -0.7946 -0.2081
 3222TIP3   OH231156   4.141   3.088  12.929  0.3038  0.6869  0.6619
 3222TIP3    H131157   4.049   3.086  12.902 -0.3579  2.4773  2.5122
 3222TIP3    H231158   4.184   3.140  12.861  0.0741 -0.4983 -0.4343
 3223TIP3   OH231159   1.684   1.767   3.408 -1.0959 -0.4348 -0.6772
 3223TIP3    H131160   1.640   1.849   3.384  0.4847  0.4115 -0.8235
 3223TIP3    H231161   1.721   1.735   3.325 -1.3388 -1.0958 -0.5407
 3224TIP3   OH231162   5.217   1.663   4.028  0.4218 -0.0557  0.2689
 3224TIP3    H131163   5.310   1.651   4.046  0.6385 -0.2214 -0.8879
 3224TIP3    H231164   5.176   1.670   4.115  1.2743 -1.7292  0.8433
 3225TIP3   OH231165   1.581   3.778   5.947 -0.3649 -0.6589 -0.5395
 3225TIP3    H131166   1.490   3.761   5.925 -0.5169 -1.8131  0.7927
 3225TIP3    H231167   1.631   3.745   5.872 -1.0228 -0.1894 -1.1945
 3226TIP3   OH231168   3.294   2.668  15.713  0.3990 -0.5591  0.3155
 3226TIP3    H131169   3.199   2.661  15.698  0.4880 -0.5691 -0.2825
 3226TIP3    H231170   3.312   2.761  15.709  0.5191 -0.6040 -0.2824
 3227TIP3   OH231171   5.101   1.945  16.798 -0.8796  0.0507  0.0500
 3227TIP3    H131172   5.172   2.006  16.775 -0.8499 -0.5138 -1.4659
 3227TIP3    H231173   5.022   1.999  16.794 -0.7012  0.3229  0.1501
 3228TIP3   OH231174   3.005   1.746   4.907  0.5076 -0.3561 -0.2235
 3228TIP3    H131175   3.053   1.760   4.989  0.7805  1.8407 -0.7166
 3228TIP3    H231176   2.913   1.740   4.934  0.6184  0.0994  0.2751
 3229TIP3   OH231177   6.386   1.884  13.061  0.1606  0.2823 -0.2242
 3229TIP3    H131178   6.401   1.842  12.976  0.6437 -0.0530  0.0168
 3229TIP3    H231179   6.301   1.850  13.089  0.3772 -0.2629 -0.2007
 3230TIP3   OH231180   6.127   5.436  11.419 -0.7735 -0.1313  0.7179
 3230TIP3    H131181   6.046   5.386  11.416 -0.4999 -0.5529  0.1987
 3230TIP3    H231182   6.195   5.375  11.390 -0.2949  0.2694  0.9707
 3231TIP3   OH231183   0.435   0.545   6.777  0.1832  0.8731  0.1691
 3231TIP3    H131184   0.369   0.568   6.842 -0.7174  0.6840 -0.6469
 3231TIP3    H231185   0.439   0.620   6.718 -0.6642  0.1671 -0.8369
 3232TIP3   OH231186   6.548   5.838  13.257 -0.2967 -0.3405  0.2537
 3232TIP3    H131187   6.534   5.749  13.227 -1.1610 -0.2371  0.3328
 3232TIP3    H231188   6.461   5.878  13.258  0.3653  1.6785 -3.3892
 3233TIP3   OH231189   1.547   1.107   3.295  0.8038 -0.1046 -0.1328
 3233TIP3    H131190   1.580   1.175   3.238  0.3492  1.1769  1.0633
 3233TIP3    H231191   1.616   1.040   3.297  0.1577 -1.0141 -3.4107
 3234TIP3   OH231192   0.794   6.305   4.919 -0.3114  0.8143 -0.2264
 3234TIP3    H131193   0.736   6.365   4.966  0.7039  0.9651  0.8984
 3234TIP3    H231194   0.793   6.336   4.828 -1.7668  0.9628 -0.1722
 3235TIP3   OH231195   0.029   1.668  14.024  0.2333 -0.4224  0.3707
 3235TIP3    H131196   0.024   1.634  14.114 -0.0922 -1.7773 -0.1312
 3235TIP3    H231197   0.044   1.590  13.971 -0.9296  0.1770 -0.8857
 3236TIP3   OH231198   0.305   5.666  14.560 -0.0894 -0.0709 -0.2441
 3236TIP3    H131199   0.216   5.629  14.562  0.3257 -1.3552 -2.2500
 3236TIP3    H231200   0.294   5.752  14.519 -0.5470  0.3491  0.7222
 3237TIP3   OH231201   0.545   3.037  11.547 -0.7726  0.0045 -0.5904
 3237TIP3    H131202   0.503   3.118  11.575  0.5223  0.4043  0.3413
 3237TIP3    H231203   0.636   3.046  11.577 -0.0661 -0.8890 -2.3296
 3238TIP3   OH231204   1.395   0.653  13.402 -0.0658  0.4961  0.5191
 3238TIP3    H131205   1.381   0.740  13.364 -1.4346 -0.1562 -0.5374
 3238TIP3    H231206   1.433   0.671  13.489  0.8173  2.0912 -0.1420
 3239TIP3   OH231207   2.223   4.543   4.519 -0.3890  0.3025  0.4072
 3239TIP3    H131208   2.284   4.583   4.580  0.5090  0.1093 -0.3361
 3239TIP3    H231209   2.140   4.587   4.536  0.1459  1.1713  0.8693
 3240TIP3   OH231210   1.668   1.297   1.720  0.1087  0.0792  0.2636
 3240TIP3    H131211   1.639   1.228   1.660 -1.0207 -1.2773  2.2536
 3240TIP3    H231212   1.760   1.277   1.737  0.7810  1.1478 -1.8034
 3241TIP3   OH231213   0.694   5.768   0.277 -0.2454 -0.5884 -0.1127
 3241TIP3    H131214   0.751   5.769   0.200  0.7242 -0.7416  0.5752
 3241TIP3    H231215   0.606   5.785   0.243  0.1412 -0.8120 -1.2609
 3242TIP3   OH231216   3.261   1.464  16.612 -0.4166 -0.2047  0.2484
 3242TIP3    H131217   3.207   1.541  16.595 -1.9517 -1.2062  0.4102
 3242TIP3    H231218   3.199   1.392  16.619  0.8380 -1.2084  1.7724
 3243TIP3   OH231219   2.613   6.722   1.912 -0.3490  0.6892  0.4638
 3243TIP3    H131220   2.534   6.720   1.858 -0.1320  0.0645  0.1558
 3243TIP3    H231221   2.632   6.629   1.929  0.4014  0.8339  0.4097
 3244TIP3   OH231222   5.154   3.121  13.725 -0.3580  0.3597 -0.1847
 3244TIP3    H131223   5.185   3.211  13.709  0.4463  0.2418  0.6068
 3244TIP3    H231224   5.091   3.130  13.796  2.0135 -0.0087  2.1049
 3245TIP3   OH231225   5.273   4.664  11.588 -0.6527  0.1235  0.3531
 3245TIP3    H131226   5.276   4.751  11.628  0.5511 -0.2727  1.1877
 3245TIP3    H231227   5.315   4.607  11.652 -0.3792 -0.8726 -0.6823
 3246TIP3   OH231228   4.419   0.581  14.990 -0.3110  0.1424 -0.2433
 3246TIP3    H131229   4.500   0.584  15.042 -0.1745  0.4002 -0.4684
 3246TIP3    H231230   4.381   0.668  14.999  1.0993  1.1107 -2.7401
 3247TIP3   OH231231   1.854   4.864   1.135 -0.1119  0.0192  0.7290
 3247TIP3    H131232   1.933   4.877   1.188 -0.4130 -1.5537  1.6151
 3247TIP3    H231233   1.782   4.884   1.195 -0.4163  0.8686  0.0966
 3248TIP3   OH231234   1.131   0.659   3.706  0.1336  0.8217 -0.2519
 3248TIP3    H131235   1.145   0.747   3.671 -2.2478  1.1828 -0.4539
 3248TIP3    H231236   1.045   0.634   3.675  0.2577 -1.1195  0.8053
 3249TIP3   OH231237   2.387   4.657  12.156  0.2403 -0.2472  0.1387
 3249TIP3    H131238   2.428   4.637  12.071  0.4241  0.8368 -0.0492
 3249TIP3    H231239   2.326   4.729  12.137  0.1981 -0.0721  0.9008
 3250TIP3   OH231240   1.772   0.731  12.206  0.4922  0.1017  0.2479
 3250TIP3    H131241   1.838   0.662  12.197  0.7455  0.5239 -1.4046
 3250TIP3    H231242   1.820   0.812  12.189 -0.1370  0.5571  0.5913
 3251TIP3   OH231243   4.444   1.609   1.156 -0.1709 -0.4373 -0.2357
 3251TIP3    H131244   4.477   1.548   1.091 -1.9672  0.4608 -2.1267
 3251TIP3    H231245   4.357   1.633   1.124 -0.0331  2.1626  1.0679
 3252TIP3   OH231246   4.104   3.016   0.799  0.5838  0.0090  0.5855
 3252TIP3    H131247   4.175   2.963   0.835  1.6027  1.3355  0.6248
 3252TIP3    H231248   4.144   3.102   0.785 -1.5164  1.4106  2.4893
 3253TIP3   OH231249   0.447   0.629   0.573  0.4848 -0.2740  0.1454
 3253TIP3    H131250   0.469   0.536   0.574  0.4353 -0.2845  0.9347
 3253TIP3    H231251   0.352   0.631   0.572  0.4861 -0.2252 -1.1227
 3254TIP3   OH231252   4.850   0.603   4.357  0.1567  0.0681 -0.0508
 3254TIP3    H131253   4.886   0.641   4.277  2.1331  0.2578  0.8720
 3254TIP3    H231254   4.792   0.670   4.393  2.6472  1.8269  0.9157
 3255TIP3   OH231255   4.112   1.512   0.416  0.1379 -0.0264 -0.0426
 3255TIP3    H131256   4.150   1.552   0.338 -0.4949 -1.5251 -1.1554
 3255TIP3    H231257   4.020   1.498   0.394 -0.5448  1.2519  1.6926
 3256TIP3   OH231258   0.528   1.009   3.536  0.1936  0.1948 -0.4464
 3256TIP3    H131259   0.560   0.946   3.600  0.3022  1.2183  0.5286
 3256TIP3    H231260   0.570   1.091   3.560  0.0498  0.6525 -1.6938
 3257TIP3   OH231261   5.740   4.455   5.121  0.5361  0.6725 -0.2425
 3257TIP3    H131262   5.670   4.470   5.058 -0.9390  1.0123  1.4081
 3257TIP3    H231263   5.742   4.360   5.134  0.9562  0.5860 -0.8963
 3258TIP3   OH231264   2.737   2.313  13.075 -0.0177 -0.7305 -0.4161
 3258TIP3    H131265   2.674   2.299  13.146 -1.4186  1.5810 -1.0873
 3258TIP3    H231266   2.708   2.394  13.033  2.2599 -0.6639 -2.0488
 3259TIP3   OH231267   5.899   6.143  11.359 -0.1238  0.2549 -0.0746
 3259TIP3    H131268   5.812   6.109  11.339 -0.3969 -1.2332  3.1024
 3259TIP3    H231269   5.928   6.183  11.277 -2.8558 -1.1506 -1.8863
 3260TIP3   OH231270   5.033   3.280   1.747 -0.1899 -0.2747 -0.0633
 3260TIP3    H131271   4.943   3.253   1.729 -0.5160 -0.0719  1.1366
 3260TIP3    H231272   5.085   3.200   1.739 -0.1725 -0.0780 -2.4950
 3261TIP3   OH231273   4.651   4.105  13.533  0.1129  0.4993  0.3532
 3261TIP3    H131274   4.623   4.027  13.485 -1.7385  1.6927 -0.6015
 3261TIP3    H231275   4.570   4.150  13.556  0.7135 -0.3956  5.5139
 3262TIP3   OH231276   2.380   0.357  15.570  0.0148  0.0439  0.1162
 3262TIP3    H131277   2.380   0.421  15.499  0.3279  0.8404  0.8197
 3262TIP3    H231278   2.463   0.371  15.615  1.0519 -2.2893 -0.9543
 3263TIP3   OH231279   0.661   0.728  13.872  0.1141 -0.5433 -0.3284
 3263TIP3    H131280   0.577   0.745  13.831 -0.2418  0.3694  0.7047
 3263TIP3    H231281   0.720   0.795  13.835  0.5751 -1.5678 -1.5157
 3264TIP3   OH231282   5.122   0.389  15.245  0.2890  0.0937  0.5205
 3264TIP3    H131283   5.125   0.331  15.321  1.2442 -3.1008 -1.7513
 3264TIP3    H231284   5.207   0.434  15.246 -0.2425  1.1412  2.0135
 3265TIP3   OH231285   6.259   1.116  11.711  0.2366 -0.2422  0.6963
 3265TIP3    H131286   6.339   1.067  11.696  0.2897  0.4983 -1.9756
 3265TIP3    H231287   6.281   1.207  11.688 -1.2798  0.0149  0.1020
 3266TIP3   OH231288   4.279   6.797   0.109 -0.0030 -0.3412  0.5246
 3266TIP3    H131289   4.360   6.759   0.074  1.5785  1.5783  1.8644
 3266TIP3    H231290   4.266   6.754   0.193 -2.5825 -3.3518 -1.1987
 3267TIP3   OH231291   1.790   5.879  11.092  0.4154 -0.2750  0.0691
 3267TIP3    H131292   1.803   5.870  11.187  1.9453 -2.2952 -0.2627
 3267TIP3    H231293   1.851   5.949  11.066  0.5152 -0.2119  0.4645
 3268TIP3   OH231294   1.866   4.452   0.131  0.3956 -0.2014 -0.3833
 3268TIP3    H131295   1.775   4.427   0.148  0.3277 -0.7580 -1.4938
 3268TIP3    H231296   1.909   4.370   0.107  0.5570  0.4500 -2.4813
 3269TIP3   OH231297   0.315   0.714  14.855  0.1331 -0.6061 -0.4122
 3269TIP3    H131298   0.225   0.741  14.872  0.6914  1.2462 -0.2050
 3269TIP3    H231299   0.352   0.785  14.801  1.1688 -1.8365 -1.4048
 3270TIP3   OH231300   6.376   2.087   5.230 -0.2683 -0.2121 -0.0404
 3270TIP3    H131301   6.336   2.087   5.317 -0.3456  0.3426 -0.0722
 3270TIP3    H231302   6.313   2.043   5.174 -0.1095 -0.7900  0.2333
 3271TIP3   OH231303   2.959   4.329  10.840  0.0155  0.8498  0.3558
 3271TIP3    H131304   3.040   4.368  10.806  0.1537  0.3659  0.1094
 3271TIP3    H231305   2.954   4.243  10.796 -0.3054  0.6155  0.8447
 3272TIP3   OH231306   6.247   5.792  11.626 -0.0757  0.1531  1.0016
 3272TIP3    H131307   6.175   5.749  11.672 -0.7225 -0.5927 -0.6492
 3272TIP3    H231308   6.213   5.811  11.539  1.4735  0.5104  0.4348
 3273TIP3   OH231309   4.037   0.237   1.132  0.7978  0.3114 -0.7034
 3273TIP3    H131310   4.041   0.327   1.100 -2.7646  1.0191  0.4219
 3273TIP3    H231311   4.074   0.241   1.221 -1.0179  1.1393  0.0561
 3274TIP3   OH231312   1.813   0.352  16.049  0.1228  0.0706 -0.4683
 3274TIP3    H131313   1.777   0.435  16.018  0.4521 -0.3767 -2.1717
 3274TIP3    H231314   1.883   0.377  16.109 -0.6572  0.9856  0.0897
 3275TIP3   OH231315   1.405   5.551  15.495  0.6036 -0.4284 -0.7267
 3275TIP3    H131316   1.413   5.516  15.407  1.1738 -0.8159 -0.5187
 3275TIP3    H231317   1.410   5.646  15.483 -3.0002 -0.1638 -1.5488
 3276TIP3   OH231318   5.357   3.412  10.590  0.2316  0.4094 -0.1250
 3276TIP3    H131319   5.365   3.505  10.567 -0.8058  0.8478  1.1498
 3276TIP3    H231320   5.441   3.389  10.628  1.3771  0.1236 -2.6356
 3277TIP3   OH231321   1.325   3.442   5.805  0.4875  0.7095  0.3594
 3277TIP3    H131322   1.304   3.413   5.894 -2.3777 -2.6534 -1.1243
 3277TIP3    H231323   1.416   3.416   5.791 -0.4683 -3.6361  0.8424
 3278TIP3   OH231324   2.690   1.359  12.497 -0.2580 -0.2687 -0.3157
 3278TIP3    H131325   2.752   1.332  12.429 -0.1219  0.6018 -0.5463
 3278TIP3    H231326   2.743   1.368  12.576  0.0359  1.0155 -0.6357
 3279TIP3   OH231327   3.978   0.786  11.909 -0.2153 -0.0408  0.2769
 3279TIP3    H131328   3.977   0.853  11.978  0.2026  0.9171 -0.6097
 3279TIP3    H231329   3.886   0.769  11.890 -0.3290 -0.3116  1.0692
 3280TIP3   OH231330   1.543   6.337  13.164  0.4900  0.0378 -0.2544
 3280TIP3    H131331   1.585   6.268  13.216 -0.0878 -0.4687 -0.4525
 3280TIP3    H231332   1.473   6.370  13.221  1.6773  1.4975  0.4343
 3281TIP3   OH231333   5.537   0.845   3.262  0.0854  0.0447  0.7277
 3281TIP3    H131334   5.468   0.846   3.195  0.1709  1.8263  0.6195
 3281TIP3    H231335   5.518   0.768   3.315 -2.7655  1.1180  1.4590
 3282TIP3   OH231336   3.996   0.253   1.514  0.6069  0.0471 -0.4899
 3282TIP3    H131337   3.997   0.188   1.444 -0.6434  0.3506 -0.8176
 3282TIP3    H231338   4.088   0.265   1.537  0.8519 -2.4898  0.2004
 3283TIP3   OH231339   4.494   1.864  15.623 -0.1001  0.5930 -0.5123
 3283TIP3    H131340   4.550   1.938  15.599 -0.6485  1.5217  0.9516
 3283TIP3    H231341   4.513   1.849  15.716 -1.2453  0.0042 -0.3634
 3284TIP3   OH231342   0.086   2.062  14.889  0.2420  0.1240  0.1175
 3284TIP3    H131343   0.134   2.127  14.940 -0.2210  0.6196 -0.0751
 3284TIP3    H231344   0.104   2.084  14.798  0.2444 -0.1379  0.0548
 3285TIP3   OH231345   4.640   6.204   3.074  0.0405  0.1192 -0.6445
 3285TIP3    H131346   4.548   6.221   3.095  0.3268  1.5871 -0.4823
 3285TIP3    H231347   4.637   6.158   2.990 -0.9657 -2.9906  0.9532
 3286TIP3   OH231348   3.352   5.917   0.863  0.2544  0.6685 -0.4503
 3286TIP3    H131349   3.265   5.892   0.833  0.1121  0.5606  0.0440
 3286TIP3    H231350   3.338   5.952   0.951  0.7313  0.4911 -0.3022
 3287TIP3   OH231351   4.327   4.318   4.320  0.1023  0.0855  0.3662
 3287TIP3    H131352   4.232   4.325   4.315  0.0922  0.3172  0.8862
 3287TIP3    H231353   4.360   4.377   4.252 -0.1425 -1.2397 -0.9768
 3288TIP3   OH231354   3.222   3.662  12.169  0.6158  0.1299  0.1490
 3288TIP3    H131355   3.169   3.590  12.202  0.3990  1.2188  2.3840
 3288TIP3    H231356   3.312   3.637  12.190  0.8066 -0.6610 -1.5132
 3289TIP3   OH231357   4.979   0.877  14.566  0.0374  0.7021 -0.3609
 3289TIP3    H131358   4.936   0.854  14.648 -0.0468 -0.0976 -0.6230
 3289TIP3    H231359   4.925   0.837  14.498  2.1936 -2.1103 -0.6134
 3290TIP3   OH231360   6.655   6.710  14.055  0.0003 -0.2753 -0.0392
 3290TIP3    H131361   6.579   6.652  14.052  1.0643 -1.6910 -0.6062
 3290TIP3    H231362   6.712   6.671  14.122 -1.5183  3.1203  3.6722
 3291TIP3   OH231363   0.743   1.003   4.317 -0.2918 -0.5903 -0.1849
 3291TIP3    H131364   0.774   1.035   4.232 -0.1819  0.2871  0.1781
 3291TIP3    H231365   0.750   1.078   4.375 -0.1133 -1.2543  0.6748
 3292TIP3   OH231366   5.645   1.579  13.948  0.0278 -0.4197  0.5296
 3292TIP3    H131367   5.633   1.664  13.904 -1.0545 -1.0205 -0.4014
 3292TIP3    H231368   5.699   1.599  14.024  0.5842  0.9438 -0.1895
 3293TIP3   OH231369   3.195   5.734   3.361  0.3187  0.2252 -0.1213
 3293TIP3    H131370   3.179   5.764   3.450  2.0861  0.7363  0.0637
 3293TIP3    H231371   3.137   5.789   3.307 -1.1350 -0.4413  0.7194
 3294TIP3   OH231372   2.562   5.360   3.910  0.8748 -0.0386  0.0210
 3294TIP3    H131373   2.602   5.273   3.917 -0.0053 -0.7814 -2.7460
 3294TIP3    H231374   2.468   5.343   3.899  0.6636  1.2550 -0.3846
 3295TIP3   OH231375   2.628   2.869   1.313 -0.2220 -0.3366 -0.2914
 3295TIP3    H131376   2.700   2.930   1.329  0.1605 -0.7722 -0.3422
 3295TIP3    H231377   2.615   2.872   1.218 -1.3127  0.9092 -0.1318
 3296TIP3   OH231378   5.604   4.763  13.987 -0.0693  0.1208  0.9211
 3296TIP3    H131379   5.598   4.739  14.079  1.5091 -1.2339  0.7411
 3296TIP3    H231380   5.644   4.849  13.986  0.3585 -0.0691  1.5034
 3297TIP3   OH231381   2.897   6.193   4.816 -0.0875 -0.7310  0.1328
 3297TIP3    H131382   2.919   6.124   4.753 -1.8910 -1.0535 -0.2031
 3297TIP3    H231383   2.818   6.160   4.860  0.1803  0.2413  1.3913
 3298TIP3   OH231384   6.702   3.286  12.353  0.0285 -0.0734  0.4357
 3298TIP3    H131385   6.721   3.379  12.366 -1.1120  0.1245  0.8044
 3298TIP3    H231386   6.738   3.244  12.431 -1.1477  0.3165  1.2153
 3299TIP3   OH231387   4.638   4.764  16.579 -0.3256 -0.4086  0.4524
 3299TIP3    H131388   4.603   4.717  16.655  0.3322 -1.2935  0.2134
 3299TIP3    H231389   4.732   4.767  16.594  0.0047 -2.0373 -1.1225
 3300TIP3   OH231390   6.316   6.270   0.344 -0.4000 -0.3659  0.0362
 3300TIP3    H131391   6.377   6.293   0.274  1.3846  0.2321  1.7315
 3300TIP3    H231392   6.304   6.175   0.335 -1.5805 -0.0894 -2.0843
 3301TIP3   OH231393   0.261   3.647  16.690 -0.3389  0.0912 -0.4601
 3301TIP3    H131394   0.206   3.725  16.684  0.4608  0.6357 -0.8672
 3301TIP3    H231395   0.350   3.680  16.679  0.4509 -0.2373  3.4858
 3302TIP3   OH231396   6.469   4.224   1.905 -0.1762  0.3248  0.3368
 3302TIP3    H131397   6.544   4.224   1.965  1.5460  2.5868 -1.5985
 3302TIP3    H231398   6.487   4.153   1.844 -0.7240 -0.4690  1.0779
 3303TIP3   OH231399   2.194   1.246   0.076 -0.4231 -0.1108  0.3674
 3303TIP3    H131400   2.171   1.312   0.010  2.2387  0.3898 -0.1739
 3303TIP3    H231401   2.235   1.296   0.147  0.5519 -1.0493  0.4925
 3304TIP3   OH231402   4.131   2.190  11.798 -0.1666  0.1563 -0.8106
 3304TIP3    H131403   4.145   2.206  11.704  0.8451  1.3835 -0.4888
 3304TIP3    H231404   4.216   2.207  11.838 -1.0872  1.7843  0.5855
 3305TIP3   OH231405   6.375   5.615  14.382  0.3136 -0.0652  0.3022
 3305TIP3    H131406   6.313   5.687  14.388  0.9175  0.5246 -0.4071
 3305TIP3    H231407   6.392   5.605  14.288  1.7307  0.1755  0.5103
 3306TIP3   OH231408   0.146   4.351  10.569  0.4551 -0.2017 -0.0298
 3306TIP3    H131409   0.230   4.313  10.547  0.0372 -1.0111 -0.2586
 3306TIP3    H231410   0.148   4.439  10.530  1.1596 -0.2477 -0.0939
 3307TIP3   OH231411   0.042   3.549  12.946  0.0049  0.0915 -0.7402
 3307TIP3    H131412   0.127   3.537  12.988 -0.5649  1.1772  0.7687
 3307TIP3    H231413   0.064   3.565  12.854  1.4567  0.8089 -0.2982
 3308TIP3   OH231414   6.700   4.421   1.643  0.1444  0.3323 -0.3707
 3308TIP3    H131415   6.770   4.435   1.579 -0.0452  0.7628 -0.4916
 3308TIP3    H231416   6.651   4.346   1.609  0.1741  0.4241 -0.6218
 3309TIP3   OH231417   0.067   2.597   3.797  0.0954 -0.1477  0.8058
 3309TIP3    H131418   0.096   2.536   3.729 -1.3474 -0.1904  0.1873
 3309TIP3    H231419   0.018   2.664   3.749 -0.5080  0.0956  1.7368
 3310TIP3   OH231420   3.486   0.433  13.179 -0.5614 -0.2133 -0.4177
 3310TIP3    H131421   3.480   0.341  13.204 -0.5677  0.3999  2.1803
 3310TIP3    H231422   3.395   0.464  13.179 -0.6897 -0.4526 -2.5775
 3311TIP3   OH231423   5.673   6.425   0.224  0.0417 -0.0386 -0.4010
 3311TIP3    H131424   5.643   6.360   0.160 -1.3826 -0.6700  0.8465
 3311TIP3    H231425   5.610   6.497   0.216  1.2851  1.0021 -1.3780
 3312TIP3   OH231426   5.549   3.706   2.814  0.5863  0.8922  0.3523
 3312TIP3    H131427   5.534   3.712   2.908 -0.5256 -0.5984  0.3051
 3312TIP3    H231428   5.469   3.668   2.779  0.3998  2.7641 -1.4114
 3313TIP3   OH231429   3.439   6.714   1.297  0.2589  0.4460  0.1645
 3313TIP3    H131430   3.451   6.648   1.366 -1.3475  0.0323  0.0889
 3313TIP3    H231431   3.426   6.663   1.217 -0.7245  0.8290  0.0596
 3314TIP3   OH231432   1.324   6.633   0.196  0.0959  0.0297 -0.5357
 3314TIP3    H131433   1.301   6.720   0.164 -0.5907 -0.8347 -2.5866
 3314TIP3    H231434   1.420   6.630   0.189  0.0206  0.0911 -2.0849
 3315TIP3   OH231435   6.260   3.463  12.286  0.6991  0.3229 -0.2001
 3315TIP3    H131436   6.235   3.375  12.311  2.7759  0.0483  1.1697
 3315TIP3    H231437   6.182   3.500  12.245 -1.3909 -0.9428  2.3205
 3316TIP3   OH231438   1.218   4.159   5.138 -0.2102 -0.0277  0.9560
 3316TIP3    H131439   1.143   4.161   5.198 -1.3717 -0.2862 -0.4252
 3316TIP3    H231440   1.273   4.088   5.170 -2.4385 -2.3859 -0.0948
 3317TIP3   OH231441   3.922   6.599   6.747  0.2690  0.0399 -0.3270
 3317TIP3    H131442   3.889   6.556   6.668  0.0817  1.7389 -1.2240
 3317TIP3    H231443   3.990   6.540   6.779  0.8960 -0.3480 -2.2175
 3318TIP3   OH231444   2.880   3.219  13.887  0.2706  0.5637 -0.0635
 3318TIP3    H131445   2.847   3.135  13.856 -0.1119  0.3682  0.8501
 3318TIP3    H231446   2.870   3.216  13.982  0.1356  1.6880 -0.0261
 3319TIP3   OH231447   3.561   6.478   4.258  0.6131 -0.2256 -0.2476
 3319TIP3    H131448   3.515   6.558   4.285 -0.4193 -0.9335  0.1577
 3319TIP3    H231449   3.492   6.423   4.221  0.9062 -1.7831  1.4088
 3320TIP3   OH231450   2.418   0.321  14.822  0.1155 -0.1619 -0.3493
 3320TIP3    H131451   2.495   0.324  14.765  0.7187 -0.8170  0.4167
 3320TIP3    H231452   2.381   0.233  14.809  0.7826 -0.6525  0.9263
 3321TIP3   OH231453   4.259   4.629  16.582  0.1746  0.1146 -0.1582
 3321TIP3    H131454   4.262   4.599  16.492 -1.6781  0.9761 -0.5627
 3321TIP3    H231455   4.293   4.719  16.580 -1.2714  0.6932 -0.3183
 3322TIP3   OH231456   6.008   0.423  12.995  0.5038  0.2220  0.1398
 3322TIP3    H131457   5.947   0.349  12.999  1.4332 -0.6210 -0.5867
 3322TIP3    H231458   5.966   0.492  13.046  0.2152 -1.2613  2.0311
 3323TIP3   OH231459   5.321   1.601  16.578  0.4726  0.1114  0.0822
 3323TIP3    H131460   5.255   1.533  16.594  0.9796 -0.6527 -0.9433
 3323TIP3    H231461   5.402   1.552  16.562  0.5559  0.8622 -2.1218
 3324TIP3   OH231462   6.294   3.671  11.685 -0.3824  0.1276 -0.0332
 3324TIP3    H131463   6.281   3.576  11.674  0.2767  0.0727 -0.3443
 3324TIP3    H231464   6.387   3.685  11.669 -0.7843  1.0836 -1.7810
 3325TIP3   OH231465   2.740   1.361   2.511  0.4220  0.2118 -0.3179
 3325TIP3    H131466   2.649   1.343   2.533  0.9259 -0.3368  1.4029
 3325TIP3    H231467   2.742   1.455   2.495 -0.1392  0.5375  1.3283
 3326TIP3   OH231468   5.207   4.528   0.591 -0.6793  0.1754 -0.1491
 3326TIP3    H131469   5.250   4.557   0.671  1.9609 -0.6274 -1.1926
 3326TIP3    H231470   5.172   4.441   0.612 -1.1385  0.5051  0.4830
 3327TIP3   OH231471   6.000   3.452  12.922  0.4480  0.8832 -0.0604
 3327TIP3    H131472   5.988   3.542  12.952  0.4396  1.9960 -3.0990
 3327TIP3    H231473   6.086   3.452  12.880  0.0877 -0.3052 -0.8400
 3328TIP3   OH231474   4.657   4.516  15.773  0.0933 -0.0648  0.7858
 3328TIP3    H131475   4.690   4.521  15.683  0.4066  0.7654  0.9373
 3328TIP3    H231476   4.561   4.511  15.763 -0.0943  2.6204  0.4146
 3329TIP3   OH231477   1.147   2.642  15.735  0.3511  0.2333  1.0726
 3329TIP3    H131478   1.114   2.687  15.813 -2.0508 -0.3549  0.4908
 3329TIP3    H231479   1.147   2.549  15.759 -0.6214  0.0269  0.3357
 3330TIP3   OH231480   1.870   2.484  12.085 -0.4761 -0.6032  0.7670
 3330TIP3    H131481   1.906   2.462  12.170 -0.1563 -1.0079  0.5261
 3330TIP3    H231482   1.943   2.477  12.024 -0.6761 -0.2154  0.4728
 3331TIP3   OH231483   5.122   0.284  16.891 -0.3845  0.1329  0.1795
 3331TIP3    H131484   5.041   0.289  16.942 -0.2526  0.5792  0.3412
 3331TIP3    H231485   5.171   0.362  16.915 -0.6698  0.7680 -1.2095
 3332TIP3   OH231486   0.848   0.616   5.255 -0.3370  0.0339 -0.2441
 3332TIP3    H131487   0.762   0.585   5.227 -1.2179  2.4459 -0.5020
 3332TIP3    H231488   0.888   0.541   5.299 -2.1888 -1.4223 -0.9016
 3333TIP3   OH231489   1.298   0.355   2.347  0.1655  0.3105 -0.2986
 3333TIP3    H131490   1.309   0.260   2.349 -3.4591 -0.2634  2.0106
 3333TIP3    H231491   1.351   0.387   2.420 -0.6125 -0.3018  0.5535
 3334TIP3   OH231492   4.483   2.533  16.727 -0.0233  0.4429  0.4705
 3334TIP3    H131493   4.523   2.617  16.748 -1.5595  1.1026  0.8644
 3334TIP3    H231494   4.530   2.503  16.648 -0.4419  2.3804 -0.5732
 3335TIP3   OH231495   4.509   3.414  16.427 -0.2641  0.0710  0.0871
 3335TIP3    H131496   4.453   3.342  16.399  1.3298 -0.7107 -1.2168
 3335TIP3    H231497   4.598   3.380  16.422  0.5724  2.1708 -0.7972
 3336TIP3   OH231498   6.031   1.059  11.837  0.4356 -0.4748  0.2265
 3336TIP3    H131499   6.012   0.973  11.801 -0.5628 -0.4354  0.6158
 3336TIP3    H231500   6.114   1.085  11.797 -0.1089 -0.8790 -1.2164
 3337TIP3   OH231501   4.784   4.848  12.353  0.4342 -0.1064 -0.9159
 3337TIP3    H131502   4.789   4.795  12.432  3.3616  1.8855  0.3752
 3337TIP3    H231503   4.874   4.855  12.322 -0.3939  0.7565 -3.3925
 3338TIP3   OH231504   5.314   2.548  12.927 -0.2535 -0.4902 -0.4788
 3338TIP3    H131505   5.248   2.614  12.947  1.3605  0.8871  0.6531
 3338TIP3    H231506   5.277   2.498  12.854 -1.7965  1.3046 -1.0078
 3339TIP3   OH231507   4.023   4.023   1.720  0.2389  0.4642 -0.1234
 3339TIP3    H131508   3.959   4.068   1.775  0.3396  0.3791  0.0618
 3339TIP3    H231509   4.107   4.040   1.762  0.0845 -1.6197  1.1286
 3340TIP3   OH231510   3.362   0.089  14.112 -0.7117 -0.5231 -0.1773
 3340TIP3    H131511   3.366   0.083  14.016  1.2247 -0.7067 -0.1345
 3340TIP3    H231512   3.362  -0.002  14.141  1.0970 -0.5050 -0.0002
 3341TIP3   OH231513   5.676   2.968  11.783  0.7038  0.2627 -0.5756
 3341TIP3    H131514   5.641   3.047  11.825  0.6774  0.0489 -0.1912
 3341TIP3    H231515   5.598   2.916  11.761  0.7305  0.2461 -0.6305
 3342TIP3   OH231516   5.341   5.214  16.165  0.1158 -0.4727  0.2266
 3342TIP3    H131517   5.374   5.150  16.102 -1.1207 -0.6684 -0.2548
 3342TIP3    H231518   5.329   5.164  16.246  1.8048 -0.1970  0.6864
 3343TIP3   OH231519   4.488   3.457   0.675 -0.1323 -0.1411  0.3176
 3343TIP3    H131520   4.456   3.522   0.738  0.4026  0.7490 -0.3087
 3343TIP3    H231521   4.583   3.455   0.689  0.0473  0.3530 -0.7029
 3344TIP3   OH231522   3.899   5.788  12.955  0.9677 -0.9257 -0.0314
 3344TIP3    H131523   3.866   5.707  12.916 -0.1413 -0.9967  1.0090
 3344TIP3    H231524   3.820   5.833  12.987  1.4591  0.9898 -1.3453
 3345TIP3   OH231525   0.860   0.819  16.846 -0.8895  0.1552  0.5636
 3345TIP3    H131526   0.801   0.889  16.818 -1.0612 -0.8012 -1.6333
 3345TIP3    H231527   0.867   0.761  16.770  3.1274  0.3661  0.5634
 3346TIP3   OH231528   6.658   0.764  13.656  0.7009 -0.2259 -0.0424
 3346TIP3    H131529   6.635   0.857  13.656  1.9075  0.1956  2.8855
 3346TIP3    H231530   6.754   0.763  13.650  0.8231 -1.1419  1.3633
 3347TIP3   OH231531   0.213   5.445  16.732  0.5724 -0.2225 -0.5501
 3347TIP3    H131532   0.281   5.438  16.666  1.3527  1.1188  0.0659
 3347TIP3    H231533   0.239   5.384  16.801  0.7678 -0.2388 -0.6370
 3348TIP3   OH231534   3.081   1.860   5.152 -0.1206  0.2981  0.2433
 3348TIP3    H131535   3.078   1.790   5.216  0.2074 -0.1269 -0.1919
 3348TIP3    H231536   3.162   1.907   5.171 -0.8611  1.2243  1.2042
 3349TIP3   OH231537   3.599   4.912  13.826  0.0074  0.3124  0.1471
 3349TIP3    H131538   3.686   4.885  13.857 -0.1449  0.1846  0.4639
 3349TIP3    H231539   3.541   4.895  13.900 -0.0338  1.9177  0.5166
 3350TIP3   OH231540   2.458   1.463   3.186  0.3066  0.3317 -0.0518
 3350TIP3    H131541   2.460   1.372   3.155 -0.3431  0.2461  0.1451
 3350TIP3    H231542   2.544   1.476   3.226  0.2808 -0.3066  0.2262
 3351TIP3   OH231543   2.024   4.676   6.210  0.5511 -0.4247  0.8389
 3351TIP3    H131544   2.055   4.750   6.263 -1.6107  1.0924  0.0865
 3351TIP3    H231545   2.104   4.628   6.189  2.0620  1.7086  1.3174
 3352TIP3   OH231546   2.108   0.837  15.083 -0.5221 -0.2273  0.0037
 3352TIP3    H131547   2.079   0.750  15.110 -0.7228  0.0378  0.6450
 3352TIP3    H231548   2.121   0.829  14.988 -0.0418 -1.0917  0.1320
 3353TIP3   OH231549   5.205   0.778  15.581 -0.3957 -0.2590 -0.2795
 3353TIP3    H131550   5.227   0.842  15.648  0.8367  0.1216 -1.0302
 3353TIP3    H231551   5.130   0.816  15.535  0.3118  0.6429 -0.7073
 3354TIP3   OH231552   2.011   1.690   4.298 -0.4959 -0.5575 -0.1361
 3354TIP3    H131553   2.102   1.685   4.268  0.1831  0.1032  1.6412
 3354TIP3    H231554   1.993   1.784   4.303 -0.8182 -0.6560  0.7422
 3355TIP3   OH231555   4.813   3.516  15.594  0.4520 -0.0453 -0.2548
 3355TIP3    H131556   4.720   3.541  15.592  0.2766 -0.7530 -1.2816
 3355TIP3    H231557   4.825   3.461  15.517  1.7728  0.1663 -0.2187
 3356TIP3   OH231558   2.850   2.653  13.682 -0.3940  0.5208  0.1563
 3356TIP3    H131559   2.824   2.700  13.761  0.3728  0.0844  0.6815
 3356TIP3    H231560   2.848   2.561  13.707 -0.3902  0.3622 -0.4120
 3357TIP3   OH231561   1.503   0.218  12.803  0.1234  0.7888  0.5510
 3357TIP3    H131562   1.491   0.313  12.802 -0.0679  0.7649  0.3688
 3357TIP3    H231563   1.489   0.191  12.712 -1.0121  0.4486  0.7983
 3358TIP3   OH231564   0.409   2.196   3.292  0.2742  0.5504 -0.0626
 3358TIP3    H131565   0.486   2.163   3.337  1.0332 -0.6936 -2.1127
 3358TIP3    H231566   0.341   2.132   3.309  0.4265  0.3306 -0.2678
 3359TIP3   OH231567   3.187   1.320   0.264 -0.1733  0.2210  0.0851
 3359TIP3    H131568   3.140   1.338   0.345  0.5494  0.1408  0.5394
 3359TIP3    H231569   3.278   1.307   0.292 -0.2312 -1.7859 -0.4879
 3360TIP3   OH231570   1.165   0.146   4.366  0.1673 -0.0467  0.3765
 3360TIP3    H131571   1.122   0.222   4.325  0.8706 -0.2662 -0.8070
 3360TIP3    H231572   1.096   0.080   4.371  0.0321  0.0268 -0.3561
 3361TIP3   OH231573   0.015   0.058   0.077 -0.3160 -0.0885  0.3116
 3361TIP3    H131574   0.050   0.147   0.078 -0.6680  0.0662 -0.3426
 3361TIP3    H231575   0.088   0.003   0.050 -0.7178  0.3129 -1.7232
 3362TIP3   OH231576   1.591   1.903   4.490  0.9005  0.2416  0.4190
 3362TIP3    H131577   1.522   1.842   4.514  0.6106  0.7876  1.0021
 3362TIP3    H231578   1.604   1.957   4.568 -0.2919  2.2932 -0.6968
 3363TIP3   OH231579   3.594   2.029  11.094  0.1535  0.3812 -0.0180
 3363TIP3    H131580   3.538   2.055  11.020  0.4071 -0.7369 -0.6415
 3363TIP3    H231581   3.682   2.057  11.069 -0.1313  2.5700  1.1762
 3364TIP3   OH231582   2.437   1.034   2.761 -0.0106 -0.1724 -0.4111
 3364TIP3    H131583   2.530   1.020   2.742  0.5071 -0.0877  1.7831
 3364TIP3    H231584   2.415   0.962   2.821 -1.1709  0.2321 -0.3414
 3365TIP3   OH231585   0.309   5.036  11.513  0.4400  0.2004  0.3512
 3365TIP3    H131586   0.231   5.085  11.541 -0.6965 -1.3828  0.1103
 3365TIP3    H231587   0.301   5.031  11.418  0.0273 -1.2005  0.4363
 3366TIP3   OH231588   6.406   4.563  15.794 -0.3307 -0.2865 -0.0559
 3366TIP3    H131589   6.446   4.482  15.825  1.5843 -0.4913 -2.6451
 3366TIP3    H231590   6.337   4.582  15.857 -0.0887 -3.2866  1.2842
 3367TIP3   OH231591   4.848   1.688  12.438  0.0889 -0.3317  0.0704
 3367TIP3    H131592   4.935   1.647  12.430 -0.9089 -2.2098 -2.6334
 3367TIP3    H231593   4.807   1.641  12.511  0.5909 -0.9489 -0.0296
 3368TIP3   OH231594   1.784   5.321  12.104 -0.3256 -0.1718 -0.3860
 3368TIP3    H131595   1.857   5.321  12.041  0.4106  0.0295  0.4569
 3368TIP3    H231596   1.777   5.412  12.132  1.4257 -0.7058  2.1564
 3369TIP3   OH231597   2.755   3.135   1.563 -0.0996  0.3363 -0.0800
 3369TIP3    H131598   2.722   3.091   1.641 -3.3583  0.8185 -1.0393
 3369TIP3    H231599   2.738   3.228   1.578 -0.2453  0.4977 -1.1355
 3370TIP3   OH231600   3.164   3.282   2.728 -0.0551 -0.0975 -0.8291
 3370TIP3    H131601   3.175   3.255   2.819 -0.8031 -0.2606 -0.7858
 3370TIP3    H231602   3.252   3.309   2.701 -0.3607  3.2897  0.9941
 3371TIP3   OH231603   5.973   6.416  17.146  0.4132 -0.1410 -0.2942
 3371TIP3    H131604   5.927   6.500  17.139  0.9499  0.0929 -1.1076
 3371TIP3    H231605   5.966   6.378  17.059 -0.6349 -1.3872  0.3024
 3372TIP3   OH231606   6.409   3.531  12.962 -0.1581  0.4693  0.1230
 3372TIP3    H131607   6.342   3.509  12.897  0.2603  0.9785 -0.4996
 3372TIP3    H231608   6.432   3.447  13.002  0.3827 -0.0418 -1.1813
 3373TIP3   OH231609   0.294   5.546  14.831  0.7918  0.0430  0.2736
 3373TIP3    H131610   0.279   5.561  14.737 -0.2410 -0.3204  0.3702
 3373TIP3    H231611   0.347   5.621  14.858  0.7626  0.3670 -0.5122
 3374TIP3   OH231612   1.150   3.411  14.611  0.0071 -0.3631  0.3660
 3374TIP3    H131613   1.061   3.429  14.641  0.1247 -0.2869  0.6753
 3374TIP3    H231614   1.139   3.355  14.535 -0.3509  0.5620 -0.2879
 3375TIP3   OH231615   5.134   4.429   2.505  0.1431 -0.0442 -0.0869
 3375TIP3    H131616   5.066   4.441   2.438  0.6772  0.8520 -0.4855
 3375TIP3    H231617   5.171   4.516   2.518 -1.8688  0.4674  3.5043
 3376TIP3   OH231618   3.944   4.285  15.127 -0.1280  0.1510 -0.1405
 3376TIP3    H131619   3.993   4.278  15.208  2.1617 -0.0264 -1.4494
 3376TIP3    H231620   3.963   4.204  15.080 -2.8372 -0.5611 -0.1839
 3377TIP3   OH231621   1.194   3.647  12.512 -0.0239 -0.2310 -0.0809
 3377TIP3    H131622   1.164   3.595  12.437 -2.2538 -0.4813  0.9026
 3377TIP3    H231623   1.157   3.602  12.588  1.1472  0.7190  1.0828
 3378TIP3   OH231624   6.613   4.837  15.888 -0.2795 -0.1322  0.2868
 3378TIP3    H131625   6.677   4.836  15.817 -0.9534 -0.9116 -0.3333
 3378TIP3    H231626   6.528   4.825  15.844 -0.7257 -0.3924  1.2006
 3379TIP3   OH231627   4.749   3.468   3.952 -0.5553 -0.0547 -0.6240
 3379TIP3    H131628   4.712   3.381   3.969 -0.4867  0.2720  1.4388
 3379TIP3    H231629   4.685   3.529   3.987 -0.2682  0.7001 -1.3929
 3380TIP3   OH231630   3.841   2.022  15.954  0.8665 -0.2384  0.0231
 3380TIP3    H131631   3.800   2.108  15.954  3.0789  0.8721  0.1691
 3380TIP3    H231632   3.790   1.972  16.018 -1.1524  0.5598 -0.8827
 3381TIP3   OH231633   6.113   1.485   0.203  0.3910  0.0668  0.0861
 3381TIP3    H131634   6.168   1.559   0.232  0.9539 -0.4498  0.3641
 3381TIP3    H231635   6.039   1.526   0.159  0.9706  0.7845 -0.2420
 3382TIP3   OH231636   5.581   4.836  15.211  0.0663  0.3518  0.5136
 3382TIP3    H131637   5.582   4.745  15.241  0.9448 -0.0130 -0.5319
 3382TIP3    H231638   5.637   4.883  15.273  0.8981 -0.1546  0.1707
 3383TIP3   OH231639   0.562   4.387  11.616  0.6160  0.0665 -0.3172
 3383TIP3    H131640   0.563   4.427  11.529 -1.0928 -1.0917 -0.9245
 3383TIP3    H231641   0.635   4.325  11.615  1.7859  1.3872 -0.2131
 3384TIP3   OH231642   2.479   4.555   0.303 -0.1086  0.1349 -0.1333
 3384TIP3    H131643   2.417   4.586   0.237 -0.0732 -0.9314 -0.6915
 3384TIP3    H231644   2.436   4.573   0.387  0.0282  1.9015 -0.3987
 3385TIP3   OH231645   0.535   4.998   2.396 -0.1208 -0.0159 -0.6239
 3385TIP3    H131646   0.456   5.035   2.435 -1.1511 -0.5970 -2.0654
 3385TIP3    H231647   0.531   5.024   2.304  0.8275 -0.9389 -0.9504
 3386TIP3   OH231648   5.288   2.788  16.106  0.6815 -1.0234 -0.9362
 3386TIP3    H131649   5.317   2.745  16.187  2.6245  1.4190 -0.2022
 3386TIP3    H231650   5.325   2.735  16.036  2.2478 -1.0961 -0.0970
 3387TIP3   OH231651   0.001   2.054   2.171 -0.0210 -0.3196 -0.2095
 3387TIP3    H131652  -0.035   2.014   2.092  0.8020 -0.2541 -0.6274
 3387TIP3    H231653   0.062   1.989   2.205 -1.4892 -1.0144  1.2626
 3388TIP3   OH231654   2.667   4.180  14.959  0.0336 -0.4337  0.0347
 3388TIP3    H131655   2.747   4.164  15.008 -0.2138  2.6083  1.6223
 3388TIP3    H231656   2.693   4.239  14.888 -0.3076 -1.8641 -1.3388
 3389TIP3   OH231657   1.754   5.407   3.605  0.0214  0.2053  0.1066
 3389TIP3    H131658   1.707   5.325   3.621  0.4046 -0.0697 -0.1538
 3389TIP3    H231659   1.688   5.475   3.615 -0.2573 -0.1224  0.5152
 3390TIP3   OH231660   0.678   1.828  15.906 -0.1420  0.5741  0.7333
 3390TIP3    H131661   0.679   1.856  15.997  1.6561  1.2152  0.5783
 3390TIP3    H231662   0.728   1.896  15.860  0.2627 -0.4865 -0.4698
 3391TIP3   OH231663   2.912   2.291   1.248 -0.0512 -0.2038  0.3583
 3391TIP3    H131664   2.869   2.210   1.275 -0.0225  0.1402  1.5047
 3391TIP3    H231665   2.962   2.317   1.325  0.9995  0.2047 -0.4534
 3392TIP3   OH231666   1.709   0.919   1.641 -0.3054  0.7915  0.3817
 3392TIP3    H131667   1.655   0.881   1.711 -1.5732  0.3955 -0.7732
 3392TIP3    H231668   1.648   0.972   1.590  0.6645  1.2934 -0.2828
 3393TIP3   OH231669   5.420   0.966   3.542  0.0655 -0.5675  0.4804
 3393TIP3    H131670   5.506   0.976   3.502 -0.0571  3.6132  0.7812
 3393TIP3    H231671   5.436   0.974   3.636 -0.6651  1.1134  0.4930
 3394TIP3   OH231672   3.098   3.937  12.605  0.0692  0.1283  0.2707
 3394TIP3    H131673   3.062   3.907  12.689  0.6126 -1.0845  0.0847
 3394TIP3    H231674   3.136   4.023  12.625  0.2587 -0.1778  1.3009
 3395TIP3   OH231675   3.517   2.121   0.502 -0.1315 -0.2389  0.3400
 3395TIP3    H131676   3.502   2.031   0.532 -2.3837 -0.4800 -1.2022
 3395TIP3    H231677   3.447   2.171   0.543 -0.9373  0.1223 -1.3565
 3396TIP3   OH231678   0.393   5.022   4.115 -0.1399  0.2933 -0.1009
 3396TIP3    H131679   0.472   4.970   4.120  0.2748  0.9512  0.3487
 3396TIP3    H231680   0.419   5.109   4.145 -1.6531 -0.1875  2.9917
 3397TIP3   OH231681   2.225   1.495  13.630  0.2620  0.0928  0.2318
 3397TIP3    H131682   2.229   1.400  13.641 -1.6178 -0.0627 -0.0757
 3397TIP3    H231683   2.280   1.530  13.700  1.7721 -1.2133 -0.2413
 3398TIP3   OH231684   4.510   0.734   2.583  0.2206  0.4542  0.5496
 3398TIP3    H131685   4.468   0.812   2.547  2.2033  0.8018 -1.2649
 3398TIP3    H231686   4.446   0.664   2.572  0.2280  0.8035 -2.7231
 3399TIP3   OH231687   0.665   5.596  17.158 -0.4432  0.8299  0.9456
 3399TIP3    H131688   0.699   5.672  17.204 -0.9012  0.6514  1.5800
 3399TIP3    H231689   0.731   5.528  17.173  0.0941  1.1577  0.1651
 3400TIP3   OH231690   1.975   2.787  12.836 -0.3467  0.6915  0.0863
 3400TIP3    H131691   2.043   2.854  12.836  0.9561 -0.5586  1.7305
 3400TIP3    H231692   1.895   2.834  12.816  0.7682  2.4607 -0.3997
 3401TIP3   OH231693   5.320   4.342  14.508  0.1911 -0.2568  0.3609
 3401TIP3    H131694   5.254   4.272  14.511  0.9352 -0.9367  1.7981
 3401TIP3    H231695   5.271   4.422  14.527 -0.2369 -0.7580  1.4558
 3402TIP3   OH231696   1.184   5.887  13.510  0.7994  0.5236  0.0817
 3402TIP3    H131697   1.237   5.807  13.518  0.7567  0.6466  1.7570
 3402TIP3    H231698   1.244   5.950  13.469  0.3887 -0.7158 -2.7180
 3403TIP3   OH231699   3.521   0.563  15.326 -0.0308 -0.1436  0.2076
 3403TIP3    H131700   3.536   0.555  15.420  1.6878  1.6928  0.1539
 3403TIP3    H231701   3.598   0.521  15.286  0.9182  1.9010 -0.2605
 3404TIP3   OH231702   3.328   3.828  12.445  0.6092  0.2992  0.7093
 3404TIP3    H131703   3.315   3.901  12.506 -1.3345  1.5684 -1.0631
 3404TIP3    H231704   3.386   3.863  12.377  0.1775 -0.0044  0.1728
 3405TIP3   OH231705   2.982   2.778  16.576  0.0885  0.6741  0.4475
 3405TIP3    H131706   2.942   2.834  16.643  0.5639  0.3364  1.0307
 3405TIP3    H231707   2.985   2.832  16.497 -1.3184  0.7799  0.4460
 3406TIP3   OH231708   6.652   3.849   2.690 -0.6823  0.4961  1.0771
 3406TIP3    H131709   6.579   3.912   2.688  0.2248  1.5832 -0.9859
 3406TIP3    H231710   6.719   3.891   2.744 -0.7114  0.5483  1.0727
 3407TIP3   OH231711   1.081   3.583   0.304 -0.4069 -0.0326  0.2462
 3407TIP3    H131712   1.055   3.554   0.391 -1.2203 -0.2902 -0.0776
 3407TIP3    H231713   1.039   3.522   0.244 -0.4294  0.5612 -0.3596
 3408TIP3   OH231714   3.519   6.376   0.183 -0.2008 -0.5642 -0.7708
 3408TIP3    H131715   3.568   6.453   0.155 -0.6517  1.4986  3.4612
 3408TIP3    H231716   3.576   6.333   0.246 -2.1366 -0.4148  1.1798
 3409TIP3   OH231717   2.348   4.619  10.785  0.1353  0.1026 -0.3278
 3409TIP3    H131718   2.266   4.658  10.757 -0.5236 -0.1662  1.1687
 3409TIP3    H231719   2.338   4.525  10.768  0.8501  0.2654 -1.8130
 3410TIP3   OH231720   4.163   1.353  16.344  0.1823 -0.4815  0.1233
 3410TIP3    H131721   4.113   1.280  16.307  0.7846 -1.2297  0.7664
 3410TIP3    H231722   4.245   1.353  16.296  0.4301 -0.6152  0.5430
 3411TIP3   OH231723   3.981   3.494  12.657  0.0387 -0.3200 -0.2887
 3411TIP3    H131724   3.988   3.489  12.752 -0.8835 -0.5202 -0.2187
 3411TIP3    H231725   3.889   3.472  12.639  0.5435 -1.7118 -1.3233
 3412TIP3   OH231726   2.108   0.926   0.632 -0.2143  0.1652  0.2262
 3412TIP3    H131727   2.096   0.954   0.542 -0.8217 -0.9792 -0.0595
 3412TIP3    H231728   2.061   0.992   0.684 -0.8850  0.1543 -0.3688
 3413TIP3   OH231729   4.262   4.897   4.493  0.0278 -0.1042  0.3321
 3413TIP3    H131730   4.344   4.944   4.511 -0.3104  0.0441  1.6166
 3413TIP3    H231731   4.219   4.892   4.578 -0.7316 -1.2771 -0.1016
 3414TIP3   OH231732   6.659   1.623  16.163 -0.8344 -0.4304 -0.0174
 3414TIP3    H131733   6.568   1.652  16.156 -0.1111  2.4913  1.2486
 3414TIP3    H231734   6.673   1.611  16.257  0.8428  2.1354  0.1408
 3415TIP3   OH231735   1.410   6.481  12.550  0.8139  0.2006 -0.1384
 3415TIP3    H131736   1.502   6.485  12.574  0.8622 -0.8808 -0.1075
 3415TIP3    H231737   1.390   6.387  12.542 -0.3300  0.4033  0.0583
 3416TIP3   OH231738   4.818   4.987  15.425  0.5981 -0.7702 -0.5272
 3416TIP3    H131739   4.743   5.037  15.457  0.8170 -0.2943 -0.7548
 3416TIP3    H231740   4.797   4.896  15.446 -0.5196 -0.7655 -1.5111
 3417TIP3   OH231741   1.855   3.872   1.462  0.1914 -0.2255 -0.2151
 3417TIP3    H131742   1.826   3.947   1.410  0.6344  1.0799  1.3567
 3417TIP3    H231743   1.915   3.824   1.405 -0.9489 -0.0251 -1.6296
 3418TIP3   OH231744   1.088   2.800  10.288  0.3381  0.1986 -0.1241
 3418TIP3    H131745   1.064   2.893  10.281  1.9827  0.9785  2.9606
 3418TIP3    H231746   1.168   2.793  10.236  0.8604  0.8279  0.5687
 3419TIP3   OH231747   0.960   2.937   3.924  0.2750  0.3737  0.0117
 3419TIP3    H131748   0.985   2.884   3.848  1.2471 -0.3433  0.7944
 3419TIP3    H231749   1.000   2.892   3.998 -1.8121  0.2781  1.1391
 3420TIP3   OH231750   1.862   3.299  11.175 -0.0173  0.6910 -0.2602
 3420TIP3    H131751   1.812   3.379  11.162 -0.0071  0.7596  0.1022
 3420TIP3    H231752   1.948   3.328  11.204  0.5183  0.6028 -1.6990
 3421TIP3   OH231753   0.918   6.587  12.589  0.4877 -0.2826 -0.1676
 3421TIP3    H131754   0.846   6.545  12.543 -1.6973  1.1128  1.7513
 3421TIP3    H231755   0.990   6.525  12.583 -0.4362 -1.2582 -3.1596
 3422TIP3   OH231756   5.254   2.765  15.336  0.1879  0.1235 -0.2186
 3422TIP3    H131757   5.213   2.757  15.422  3.1880 -0.0040  1.3289
 3422TIP3    H231758   5.218   2.692  15.286  1.2195 -2.2672  2.2523
 3423TIP3   OH231759   6.551   6.503  11.555  0.0067 -0.1326 -0.1258
 3423TIP3    H131760   6.587   6.414  11.545  0.8357  0.0182  1.2988
 3423TIP3    H231761   6.472   6.490  11.608  0.7375  0.0681  1.0577
 3424TIP3   OH231762   6.205   3.224  13.630 -0.1046 -0.0130 -0.2689
 3424TIP3    H131763   6.254   3.155  13.587 -1.4574 -1.2718  0.1407
 3424TIP3    H231764   6.271   3.289  13.654  1.1012 -0.8356 -1.2610
 3425TIP3   OH231765   0.984   3.935  16.644  0.0224 -0.4155 -0.1520
 3425TIP3    H131766   0.947   4.014  16.683 -0.8542 -1.0346  0.3046
 3425TIP3    H231767   0.949   3.933  16.555  2.0347  1.0052 -1.0688
 3426TIP3   OH231768   6.367   5.783   4.029 -0.1624 -0.3071  0.6281
 3426TIP3    H131769   6.300   5.754   4.092 -1.1718 -0.5267 -0.5040
 3426TIP3    H231770   6.444   5.802   4.083 -1.4626  1.0371  2.1202
 3427TIP3   OH231771   6.460   4.344   2.984  0.2903  0.2270 -0.0968
 3427TIP3    H131772   6.520   4.269   2.983  0.0836  0.0601 -0.1564
 3427TIP3    H231773   6.399   4.326   2.913  0.4746  0.6487 -0.3650
 3428TIP3   OH231774   6.299   2.234  12.703  0.3515 -0.6072  0.7845
 3428TIP3    H131775   6.304   2.306  12.641  0.9171 -1.5122 -0.2511
 3428TIP3    H231776   6.206   2.223  12.721  0.3574  1.9118  2.8378
 3429TIP3   OH231777   5.229   2.242   4.418  0.6252  0.0472  0.0954
 3429TIP3    H131778   5.208   2.177   4.485  1.1171 -0.2653 -0.0489
 3429TIP3    H231779   5.294   2.199   4.363  2.3303  1.2893  1.0470
 3430TIP3   OH231780   4.737   2.890  16.439  0.5796 -0.4234 -0.0604
 3430TIP3    H131781   4.671   2.823  16.420  0.1719  0.4707 -1.9973
 3430TIP3    H231782   4.693   2.950  16.500 -0.6516  0.4259 -1.6914
 3431TIP3   OH231783   6.165   3.035  14.770 -0.0059  0.1845  0.2767
 3431TIP3    H131784   6.181   3.127  14.750 -0.0737  0.3952  1.1482
 3431TIP3    H231785   6.245   3.006  14.816  0.7716 -0.6899 -1.5387
 3432TIP3   OH231786   6.578   1.164  12.918  0.0143  0.2885  0.3099
 3432TIP3    H131787   6.598   1.071  12.913 -0.7197  0.1540 -0.3767
 3432TIP3    H231788   6.663   1.207  12.911  0.3279 -0.3223  0.3047
 3433TIP3   OH231789   5.051   3.763  14.858  0.3262  0.3768  0.3261
 3433TIP3    H131790   4.988   3.823  14.900  1.2984  0.8511  1.1463
 3433TIP3    H231791   5.015   3.749  14.770 -1.1606  0.2760  0.9106
 3434TIP3   OH231792   3.962   0.560  16.218 -0.1282  0.1564  0.3169
 3434TIP3    H131793   3.943   0.638  16.271 -0.2800  0.3994 -0.0886
 3434TIP3    H231794   4.009   0.593  16.142  2.8824 -0.5453  1.7369
 3435TIP3   OH231795   5.542   0.354  13.289 -0.2991  0.0325 -0.7187
 3435TIP3    H131796   5.536   0.441  13.249 -1.6063 -0.4925 -1.7108
 3435TIP3    H231797   5.557   0.372  13.382  0.1411  1.3021 -1.0080
 3436TIP3   OH231798   4.192   5.547   0.454 -0.1454 -0.0932  0.9793
 3436TIP3    H131799   4.186   5.640   0.432  0.5726 -0.0534  0.9153
 3436TIP3    H231800   4.120   5.506   0.407 -0.4516  0.4280  0.9867
 3437TIP3   OH231801   4.090   3.172   4.378 -0.0201  0.6241  0.7060
 3437TIP3    H131802   4.055   3.127   4.455  0.4792  0.1870  0.6746
 3437TIP3    H231803   4.179   3.140   4.369  0.8045  2.5330  1.4267
 3438TIP3   OH231804   3.829   1.335   0.611  0.0302 -0.3993 -0.2126
 3438TIP3    H131805   3.802   1.302   0.697  1.4541 -0.5458  0.1898
 3438TIP3    H231806   3.762   1.300   0.551  1.5873 -4.4544  0.0926
 3439TIP3   OH231807   6.391   3.323   3.254  0.6015  0.8383  0.2509
 3439TIP3    H131808   6.310   3.276   3.233  0.7540  0.1258  1.2047
 3439TIP3    H231809   6.461   3.261   3.235  0.8757  1.1074  0.3693
 3440TIP3   OH231810   4.558   1.530   5.400  0.1559  0.6884 -0.3530
 3440TIP3    H131811   4.640   1.482   5.410 -0.3540  0.2928  2.7341
 3440TIP3    H231812   4.582   1.621   5.419 -0.0211  0.6318  0.1579
 3441TIP3   OH231813   6.484   4.070  14.193  0.0347 -0.0927  0.0888
 3441TIP3    H131814   6.446   4.157  14.206  0.2360  0.0753 -0.4156
 3441TIP3    H231815   6.556   4.066  14.256  0.6839  0.5152 -0.5990
 3442TIP3   OH231816   1.776   4.796  16.461  0.1362 -0.3944  0.6099
 3442TIP3    H131817   1.796   4.797  16.555  0.5099 -0.1251  0.5269
 3442TIP3    H231818   1.795   4.706  16.434 -1.6813 -0.9868  1.1516
 3443TIP3   OH231819   4.541   4.646  12.950 -0.2181 -0.3152 -0.0208
 3443TIP3    H131820   4.542   4.692  13.034 -0.9909 -1.2446  0.5222
 3443TIP3    H231821   4.484   4.699  12.894 -2.7194 -1.5293  1.2030
 3444TIP3   OH231822   3.248   0.689  16.031  0.0832 -0.2878 -0.3476
 3444TIP3    H131823   3.183   0.697  15.961 -0.9194 -2.7153  0.2123
 3444TIP3    H231824   3.327   0.730  15.995 -0.5404 -1.0115 -2.7269
 3445TIP3   OH231825   2.660   0.667  13.808  0.4689 -0.4020 -0.3083
 3445TIP3    H131826   2.678   0.703  13.895 -0.0786  0.4226 -0.5240
 3445TIP3    H231827   2.665   0.743  13.749 -1.3960 -0.5412 -0.6898
 3446TIP3   OH231828   4.793   0.347  10.731 -0.4412 -0.6144  0.1588
 3446TIP3    H131829   4.805   0.406  10.805 -0.0421 -1.0075  0.4134
 3446TIP3    H231830   4.720   0.291  10.757 -1.7365  0.6121 -0.6412
 3447TIP3   OH231831   1.088   2.292  16.411 -0.8292  0.2371 -0.2840
 3447TIP3    H131832   1.142   2.371  16.415 -2.1355  1.1228  1.4149
 3447TIP3    H231833   1.031   2.305  16.335 -1.7774  1.4882  0.6048
 3448TIP3   OH231834   2.003   1.654  13.852  0.6133 -0.0524 -0.0833
 3448TIP3    H131835   1.951   1.651  13.932 -0.2577 -0.5006 -0.6576
 3448TIP3    H231836   2.032   1.564  13.838  0.2540 -0.0980 -0.5874
 3449TIP3   OH231837   6.104   1.533   2.480  0.4820  0.4453  0.5492
 3449TIP3    H131838   6.016   1.540   2.443  0.8629  0.4491 -0.3781
 3449TIP3    H231839   6.139   1.622   2.476  0.7981  0.3101  0.2130
 3450TIP3   OH231840   1.247   4.819   2.363  0.0031  0.5562  0.0112
 3450TIP3    H131841   1.293   4.903   2.372  0.4287  0.2561  0.7547
 3450TIP3    H231842   1.316   4.756   2.341 -0.3460  0.4311 -0.7493
 3451TIP3   OH231843   0.362   5.967  15.515 -0.3850  0.1649  0.3000
 3451TIP3    H131844   0.411   6.046  15.492 -1.2080  0.8226  0.7763
 3451TIP3    H231845   0.429   5.905  15.545  0.1487  1.0741  1.0151
 3452TIP3   OH231846   6.179   2.134   3.351 -0.1852  0.2324  0.5892
 3452TIP3    H131847   6.118   2.206   3.336 -0.4004  0.7068  3.2143
 3452TIP3    H231848   6.131   2.055   3.329 -1.2425  0.7010  1.1574
 3453TIP3   OH231849   4.244   0.799   0.000 -0.1525  0.6794 -0.2204
 3453TIP3    H131850   4.297   0.736   0.048 -0.5488  1.1461  0.8766
 3453TIP3    H231851   4.154   0.772   0.016 -0.3297  1.5570  0.3469
 3454TIP3   OH231852   1.314   4.481   2.746  0.3967  0.5156  0.0221
 3454TIP3    H131853   1.307   4.434   2.829  1.8212  0.5385  0.1698
 3454TIP3    H231854   1.236   4.454   2.697 -0.2377  0.1613  1.1774
 3455TIP3   OH231855   4.995   2.171   0.567 -0.0774  0.1577  0.0858
 3455TIP3    H131856   5.010   2.078   0.552  0.7893  0.2464  0.3511
 3455TIP3    H231857   5.025   2.214   0.487 -0.2912  0.2300  0.0423
 3456TIP3   OH231858   0.767   1.940  16.211 -0.0661  1.0339 -0.1714
 3456TIP3    H131859   0.789   1.944  16.304  0.5699 -1.6252 -0.1235
 3456TIP3    H231860   0.672   1.928  16.210  0.1068 -0.6180  0.2666
 3457TIP3   OH231861   4.117   2.225   4.797  0.0324  0.8707 -0.1806
 3457TIP3    H131862   4.151   2.234   4.707 -1.9461 -0.6046 -1.1445
 3457TIP3    H231863   4.134   2.133   4.819  1.3877  1.4611  1.3829
 3458TIP3   OH231864   4.632   0.667   1.072 -0.0559 -0.0760  0.0562
 3458TIP3    H131865   4.551   0.630   1.039  0.2828 -0.0675 -0.8153
 3458TIP3    H231866   4.607   0.752   1.108 -0.8262 -1.0560  1.9827
 3459TIP3   OH231867   6.295   2.019   1.541  0.0600  0.7134  0.4594
 3459TIP3    H131868   6.207   2.001   1.574  1.3442 -0.7831  3.4236
 3459TIP3    H231869   6.282   2.036   1.448 -3.2450 -0.4340  0.5699
 3460TIP3   OH231870   2.301   0.508  15.776  0.0251 -0.0829  0.2263
 3460TIP3    H131871   2.291   0.476  15.686 -0.3404 -1.5413  0.7646
 3460TIP3    H231872   2.340   0.435  15.824 -0.8695  0.2494  1.5210
 3461TIP3   OH231873   4.477   3.981   1.278  0.1549 -0.5654  0.0287
 3461TIP3    H131874   4.535   4.046   1.320  0.2380 -0.5082 -0.1767
 3461TIP3    H231875   4.524   3.898   1.286  0.9778 -0.2771 -1.5006
 3462TIP3   OH231876   2.709   5.182   2.826  0.2924  1.2318 -0.4195
 3462TIP3    H131877   2.735   5.204   2.736  2.0446 -0.5145 -0.4106
 3462TIP3    H231878   2.771   5.115   2.853 -3.3948 -2.3115  0.2168
 3463TIP3   OH231879   3.682   1.951  12.186  0.0498  0.6474 -0.0663
 3463TIP3    H131880   3.685   1.991  12.273  1.7444 -1.3782  0.9144
 3463TIP3    H231881   3.590   1.928  12.172 -0.2933  1.3262  1.0431
 3464TIP3   OH231882   2.548   4.060  16.001  0.3224 -0.1278  0.3046
 3464TIP3    H131883   2.575   4.084  16.090  1.2973 -0.5433  0.1377
 3464TIP3    H231884   2.561   4.139  15.949  1.5366 -0.4120  0.1645
 3465TIP3   OH231885   2.773   4.203   3.499  0.1410  0.0543 -0.1199
 3465TIP3    H131886   2.709   4.269   3.472 -0.0510 -0.1619 -0.1974
 3465TIP3    H231887   2.779   4.214   3.594 -2.1759 -1.8087  0.3232
 3466TIP3   OH231888   1.596   3.545   1.366 -0.3783  0.1065  0.3910
 3466TIP3    H131889   1.547   3.586   1.294 -1.7386  0.5223  1.5084
 3466TIP3    H231890   1.680   3.592   1.367  0.4054 -1.0812 -1.9901
 3467TIP3   OH231891   5.650   5.600  13.273  0.1543 -0.6045  0.1217
 3467TIP3    H131892   5.678   5.616  13.183 -0.8404 -0.3023 -0.1405
 3467TIP3    H231893   5.597   5.676  13.295 -0.8369 -1.3754  0.4463
 3468TIP3   OH231894   0.773   3.721  16.854  0.6337  0.5520 -0.6410
 3468TIP3    H131895   0.759   3.804  16.807  0.6104  0.4608 -0.7972
 3468TIP3    H231896   0.858   3.731  16.896  0.4873  0.7796 -0.3933
 3469TIP3   OH231897   2.913   1.051   2.452 -0.4602 -0.1706 -0.3022
 3469TIP3    H131898   2.969   1.106   2.507 -0.8946  0.0472 -0.0727
 3469TIP3    H231899   2.927   1.084   2.363 -0.2588 -0.0867 -0.2396
 3470TIP3   OH231900   4.627   5.085   4.993 -0.2314  0.5750 -0.0782
 3470TIP3    H131901   4.612   5.140   5.070  1.8095 -1.5791  2.0380
 3470TIP3    H231902   4.713   5.111   4.961  1.1168 -1.6403  1.4077
 3471TIP3   OH231903   3.131   6.677  14.274 -0.7563 -0.7368 -0.1737
 3471TIP3    H131904   3.200   6.635  14.221  0.5073  2.0862 -0.9428
 3471TIP3    H231905   3.052   6.627  14.253 -0.2529 -0.1403 -4.4838
 3472TIP3   OH231906   3.745   3.708  12.388  0.1662 -0.3941 -0.3049
 3472TIP3    H131907   3.829   3.719  12.433 -0.1820  1.0114  0.0492
 3472TIP3    H231908   3.743   3.779  12.324 -0.7891 -0.3580 -0.2428
 3473TIP3   OH231909   0.432   4.673   4.092  0.5489  0.4905  0.5454
 3473TIP3    H131910   0.497   4.719   4.038  0.6129  0.2758  0.4362
 3473TIP3    H231911   0.457   4.581   4.085  0.0670  0.3781  0.2795
 3474TIP3   OH231912   3.774   5.989  14.414  0.3859 -0.1314 -0.5279
 3474TIP3    H131913   3.786   6.038  14.333 -1.2346  2.4090  0.6606
 3474TIP3    H231914   3.721   5.913  14.389  0.9399 -0.0567 -2.0210
 3475TIP3   OH231915   5.028   1.892  11.482  0.9002  0.0788 -0.1339
 3475TIP3    H131916   4.970   1.905  11.557 -1.9248  1.0185 -2.3452
 3475TIP3    H231917   5.026   1.797  11.466 -0.6080  0.1698 -0.5759
 3476TIP3   OH231918   3.939   4.663  13.724 -0.5787 -0.1088  0.6406
 3476TIP3    H131919   3.893   4.724  13.780  0.4538  0.2021  1.1803
 3476TIP3    H231920   3.893   4.668  13.640 -0.0629  1.9993  0.4319
 3477TIP3   OH231921   4.351   5.681  16.099  0.4648  0.3853  0.0885
 3477TIP3    H131922   4.423   5.713  16.152 -0.0831  3.0448 -0.6090
 3477TIP3    H231923   4.359   5.728  16.016 -0.1494 -1.7718 -1.2823
 3478TIP3   OH231924   2.176   4.148   1.170  0.6974 -0.1313  0.1743
 3478TIP3    H131925   2.124   4.184   1.242  0.3194  0.0686 -0.1953
 3478TIP3    H231926   2.263   4.186   1.181  0.6720 -0.1921  0.5917
 3479TIP3   OH231927   1.567   1.792   0.776 -0.4791  0.0783  0.0305
 3479TIP3    H131928   1.617   1.822   0.852 -2.7437  0.0459  1.6390
 3479TIP3    H231929   1.620   1.818   0.701  1.8077  0.2070  1.5953
 3480TIP3   OH231930   4.809   4.710  11.766  0.0108 -0.3383 -0.0532
 3480TIP3    H131931   4.769   4.628  11.795 -0.4790 -0.1257 -0.1154
 3480TIP3    H231932   4.879   4.682  11.706 -0.0994 -0.7093 -0.0148
 3481TIP3   OH231933   2.668   2.385  15.206  0.4882 -0.3038  0.3052
 3481TIP3    H131934   2.655   2.424  15.119  1.3586  1.7552  1.0337
 3481TIP3    H231935   2.579   2.370  15.239  0.1368  0.1394 -0.4136
 3482TIP3   OH231936   2.947   4.340  12.814  0.1789  0.3498  0.3305
 3482TIP3    H131937   2.926   4.432  12.800  1.0038  0.4040 -0.5929
 3482TIP3    H231938   2.976   4.337  12.905  0.6931  1.1074  0.2035
 3483TIP3   OH231939   5.023   1.814  17.037 -0.0956 -0.0894 -0.2067
 3483TIP3    H131940   5.056   1.903  17.027 -0.0460 -0.0980 -0.1246
 3483TIP3    H231941   5.102   1.759  17.032 -0.1712 -0.1562 -0.6593
 3484TIP3   OH231942   5.149   2.739   1.696  0.1548  0.1523 -0.3745
 3484TIP3    H131943   5.094   2.812   1.725 -1.1522  0.2663 -2.8999
 3484TIP3    H231944   5.096   2.661   1.714  0.1854  0.0706 -0.6446
 3485TIP3   OH231945   0.164   3.468   0.481  0.2025 -0.3181  0.5079
 3485TIP3    H131946   0.140   3.561   0.483  1.9835  0.1779  0.6823
 3485TIP3    H231947   0.090   3.423   0.522 -0.5729  1.0511  0.6624
 3486TIP3   OH231948   6.697   5.136  14.137 -0.3785 -0.3194 -0.2924
 3486TIP3    H131949   6.734   5.202  14.078  0.1961 -0.7548 -0.4251
 3486TIP3    H231950   6.743   5.149  14.220  0.2473 -0.9940 -0.5163
 3487TIP3   OH231951   4.391   6.447   5.409  0.0575  0.1350 -0.1056
 3487TIP3    H131952   4.379   6.379   5.342  0.3789 -1.5500  1.4512
 3487TIP3    H231953   4.480   6.479   5.394 -0.5323  1.1640 -1.6357
 3488TIP3   OH231954   1.019   5.950  16.154 -0.4269  0.2537 -0.7365
 3488TIP3    H131955   1.091   5.958  16.092 -2.5260  1.1396 -3.2757
 3488TIP3    H231956   0.970   6.031  16.144 -1.3438  0.0413  1.5089
 3489TIP3   OH231957   4.707   5.409   1.874  0.3477  0.1214  0.0517
 3489TIP3    H131958   4.614   5.414   1.856  0.2494 -0.9652  0.1576
 3489TIP3    H231959   4.749   5.424   1.789  0.1139  1.3628  0.1437
 3490TIP3   OH231960   2.158   4.285  13.785 -0.1105  0.3028  0.1550
 3490TIP3    H131961   2.079   4.295  13.839 -2.5789  1.2663 -3.2948
 3490TIP3    H231962   2.168   4.191  13.774 -0.5970  0.1600  0.8291
 3491TIP3   OH231963   2.287   2.191  13.832 -0.0723 -0.5197  0.5660
 3491TIP3    H131964   2.193   2.205  13.823 -0.4886 -3.4641 -0.6952
 3491TIP3    H231965   2.321   2.196  13.742  0.4136 -2.5132  0.5922
 3492TIP3   OH231966   1.310   2.143  11.881 -0.0962  0.4827 -0.5375
 3492TIP3    H131967   1.293   2.187  11.798 -0.5012  1.2027 -0.0874
 3492TIP3    H231968   1.265   2.197  11.946  1.7923  1.0121  0.4008
 3493TIP3   OH231969   0.342   0.940  14.312  0.3873 -0.2856  0.4594
 3493TIP3    H131970   0.296   0.956  14.394 -0.2996 -1.8626  0.4222
 3493TIP3    H231971   0.337   0.845  14.300  2.6676 -0.3729 -0.1473
 3494TIP3   OH231972   4.257   2.046   2.188  0.6191  0.0271  0.0899
 3494TIP3    H131973   4.328   2.098   2.225 -0.8521  1.6225  0.8383
 3494TIP3    H231974   4.240   2.085   2.103  1.0386 -0.7789 -0.3816
 3495TIP3   OH231975   2.924   0.335   2.382 -0.1355  0.4960 -0.2763
 3495TIP3    H131976   2.960   0.373   2.301  2.9572 -2.3396 -0.4765
 3495TIP3    H231977   2.844   0.291   2.354  1.4564 -1.4464 -2.2590
 3496TIP3   OH231978   4.731   2.013  15.094  0.3175 -0.2245 -0.2823
 3496TIP3    H131979   4.765   2.042  15.009  1.2274 -1.3548 -0.3385
 3496TIP3    H231980   4.792   2.050  15.158 -0.5696  0.9192 -0.0840
 3497TIP3   OH231981   0.648   6.177  11.334 -0.4673 -0.0095  1.0504
 3497TIP3    H131982   0.690   6.091  11.339 -1.0592 -0.2808  1.4182
 3497TIP3    H231983   0.634   6.202  11.425  1.1323  1.2012  1.0053
 3498TIP3   OH231984   5.687   4.922  11.709  0.0791  0.1842  0.3687
 3498TIP3    H131985   5.655   5.012  11.695  0.8326  0.5563  0.9983
 3498TIP3    H231986   5.761   4.913  11.649 -0.6126 -0.3652 -0.4181
 3499TIP3   OH231987   6.223   5.699  13.493 -0.1340 -0.7925 -0.2101
 3499TIP3    H131988   6.216   5.725  13.402  3.5935  1.4274 -0.0989
 3499TIP3    H231989   6.287   5.627  13.493 -0.6423 -1.2671  0.6150
 3500TIP3   OH231990   2.513   1.454   4.513 -0.2276 -0.2729 -0.1893
 3500TIP3    H131991   2.516   1.413   4.599  1.6704 -0.0301 -0.0789
 3500TIP3    H231992   2.420   1.465   4.494 -0.6881  0.0407  1.9892
 3501TIP3   OH231993   3.191   6.315  12.060  0.1923 -0.6513  0.3531
 3501TIP3    H131994   3.099   6.339  12.059  0.0712 -1.0858  0.6331
 3501TIP3    H231995   3.211   6.289  11.970 -0.1558 -1.2713  0.4493
 3502TIP3   OH231996   4.686   3.863   4.989  0.1518 -0.6185  0.4159
 3502TIP3    H131997   4.621   3.808   5.034 -2.4093  1.4174 -0.5298
 3502TIP3    H231998   4.658   3.863   4.898  0.5471  1.5537  0.2518
 3503TIP3   OH231999   6.017   4.651  10.861 -0.1898 -0.4704 -0.0013
 3503TIP3    H132000   5.931   4.691  10.873 -0.1866 -0.9830  2.4179
 3503TIP3    H232001   6.065   4.712  10.806 -1.8784  0.1581 -0.8370
 3504TIP3   OH232002   6.697   3.023   2.319  0.8270 -0.0196  0.3505
 3504TIP3    H132003   6.721   2.976   2.239  1.2160 -0.0146  0.4626
 3504TIP3    H232004   6.778   3.026   2.370  1.0449  1.5841 -0.0476
 3505TIP3   OH232005   1.669   4.845  15.920  0.3449 -0.3323 -0.2769
 3505TIP3    H132006   1.575   4.828  15.912 -0.7953  3.2826  2.4490
 3505TIP3    H232007   1.679   4.938  15.902  3.6530 -0.7424 -1.3606
 3506TIP3   OH232008   1.493   3.773  13.048  0.6369 -0.0292 -0.0094
 3506TIP3    H132009   1.507   3.772  12.953  0.6853 -0.2100 -0.0018
 3506TIP3    H232010   1.577   3.748  13.085  1.0268  1.4437  0.1469
 3507TIP3   OH232011   2.068   3.589  16.348  0.0265 -0.3473 -0.1248
 3507TIP3    H132012   2.078   3.499  16.316 -1.0523 -0.9527  1.1687
 3507TIP3    H232013   2.109   3.643  16.280  0.2378 -1.7723 -1.1740
 3508TIP3   OH232014   3.563   0.188  15.877  0.0303 -0.3518  0.2019
 3508TIP3    H132015   3.631   0.128  15.844  0.3109 -0.6957  1.3526
 3508TIP3    H232016   3.610   0.271  15.890  0.0088 -0.3264  0.1197
 3509TIP3   OH232017   2.213   0.895   4.153  0.6465 -0.7265  0.6067
 3509TIP3    H132018   2.131   0.863   4.190 -0.4121  1.0812 -0.0634
 3509TIP3    H232019   2.281   0.863   4.213 -0.6169 -1.4267  1.7037
 3510TIP3   OH232020   0.117   3.941  14.377 -0.5105 -0.3686 -0.7796
 3510TIP3    H132021   0.213   3.933  14.378 -0.5288 -0.8291 -1.5753
 3510TIP3    H232022   0.096   3.955  14.285 -1.1069  1.2555 -0.4323
 3511TIP3   OH232023   4.209   2.695   0.094 -0.4319 -0.3468  0.4320
 3511TIP3    H132024   4.262   2.620   0.067  0.4435  0.9777 -1.8091
 3511TIP3    H232025   4.175   2.731   0.012 -3.1060  0.1342  1.6317
 3512TIP3   OH232026   1.219   2.785  11.477  0.2521  0.3827 -0.2935
 3512TIP3    H132027   1.243   2.704  11.523  1.6654  0.3272 -1.0638
 3512TIP3    H232028   1.167   2.756  11.403 -0.9494  0.3667  0.5352
 3513TIP3   OH232029   1.222   1.759   5.179 -0.3037 -0.3337  0.2530
 3513TIP3    H132030   1.173   1.752   5.097 -0.1275 -0.5022  0.1634
 3513TIP3    H232031   1.167   1.815   5.234 -1.4241 -1.8529  0.7462
 3514TIP3   OH232032   0.023   4.973  15.622 -0.2116  0.0052 -0.0610
 3514TIP3    H132033   0.036   5.043  15.686 -0.3997  0.2059 -0.2384
 3514TIP3    H232034   0.056   5.010  15.540  0.7511 -0.5316  0.0712
 3515TIP3   OH232035   4.261   1.452  14.970  0.3519  0.1912  0.2997
 3515TIP3    H132036   4.250   1.547  14.959 -0.0502  0.1588  0.4192
 3515TIP3    H232037   4.226   1.415  14.889 -3.1558 -0.0854  1.7886
 3516TIP3   OH232038   6.193   4.282   0.256  0.3222 -0.5044  0.3495
 3516TIP3    H132039   6.270   4.298   0.310  0.3780 -1.9450  0.7274
 3516TIP3    H232040   6.193   4.188   0.241  0.8670 -0.0992 -2.9965
 3517TIP3   OH232041   6.468   1.192   2.793  0.3642  0.4359  0.0992
 3517TIP3    H132042   6.423   1.253   2.735 -1.2182 -0.8042 -0.0573
 3517TIP3    H232043   6.412   1.186   2.870 -0.3925 -1.9832 -0.5609
 3518TIP3   OH232044   2.700   0.770  14.079  0.0453  0.6563  0.0383
 3518TIP3    H132045   2.786   0.783  14.120 -0.0132 -1.3526  0.9474
 3518TIP3    H232046   2.645   0.737  14.150 -0.6530 -0.9000 -1.1591
 3519TIP3   OH232047   1.681   5.800   4.480 -0.4529 -0.3293 -0.2224
 3519TIP3    H132048   1.620   5.865   4.446  0.9396  0.2753 -1.7468
 3519TIP3    H232049   1.761   5.850   4.498 -0.0327 -1.2750  0.6262
 3520TIP3   OH232050   0.137   1.119   2.050 -0.0872  0.1534  0.1437
 3520TIP3    H132051   0.051   1.088   2.079  0.1379 -0.3506  0.2904
 3520TIP3    H232052   0.185   1.039   2.027  0.4930  0.3975  0.4794
 3521TIP3   OH232053   4.808   0.796   5.192 -0.0029  0.6050 -0.4867
 3521TIP3    H132054   4.896   0.796   5.230 -0.2340  0.7674  0.0556
 3521TIP3    H232055   4.823   0.810   5.098  0.4872  1.7775 -0.2517
 3522TIP3   OH232056   6.367   5.196  12.088  0.0046 -0.4314  0.3051
 3522TIP3    H132057   6.369   5.272  12.030  0.7544 -0.7378 -0.0840
 3522TIP3    H232058   6.346   5.123  12.030  1.7149 -0.8974  0.2085
 3523TIP3   OH232059   6.623   1.746  12.492  0.2271 -0.4200 -0.4471
 3523TIP3    H132060   6.628   1.688  12.416  1.5219  1.6548 -2.0413
 3523TIP3    H232061   6.530   1.749  12.513 -0.2169 -0.7991 -2.1705
 3524TIP3   OH232062   0.883   0.154   0.185 -0.0777  0.2169  0.1758
 3524TIP3    H132063   0.887   0.200   0.101 -0.7109 -0.4751 -0.2569
 3524TIP3    H232064   0.857   0.064   0.161  0.0223 -0.0612  1.0859
 3525TIP3   OH232065   1.093   2.874  13.344  0.0096  0.0095 -0.0753
 3525TIP3    H132066   1.177   2.900  13.307 -1.0502  1.0663 -1.9020
 3525TIP3    H232067   1.063   2.801  13.289 -0.6709  0.2429 -0.0319
 3526TIP3   OH232068   1.483   5.029   3.042  0.5532 -0.5824 -0.0367
 3526TIP3    H132069   1.500   4.936   3.024  0.7215 -0.2909 -1.5163
 3526TIP3    H232070   1.568   5.071   3.033  1.0623 -0.5861  3.3176
 3527TIP3   OH232071   2.503   5.994  13.062  0.0794  0.2479  0.5470
 3527TIP3    H132072   2.544   5.937  12.996  1.3571  2.9993 -1.1817
 3527TIP3    H232073   2.533   5.958  13.146  2.2747 -0.5973 -0.5229
 3528TIP3   OH232074   3.602   0.921  13.733 -0.1908  0.6409  0.0795
 3528TIP3    H132075   3.619   0.852  13.796  0.9312  2.6148  2.0710
 3528TIP3    H232076   3.689   0.951  13.705 -0.6291  1.6155 -0.3089
 3529TIP3   OH232077   4.768   0.767   0.435 -0.6019  0.2541 -0.4052
 3529TIP3    H132078   4.712   0.826   0.484 -1.5279  0.3202 -1.4983
 3529TIP3    H232079   4.728   0.681   0.445 -1.7489  0.5063 -2.2967
 3530TIP3   OH232080   1.743   3.552   4.206  0.3897  0.1689 -0.3514
 3530TIP3    H132081   1.801   3.486   4.243  0.6687 -0.2683 -1.5133
 3530TIP3    H232082   1.803   3.613   4.161  0.2184  1.6903  1.3541
 3531TIP3   OH232083   0.558   5.327   1.495 -0.4242 -0.1028 -0.1519
 3531TIP3    H132084   0.551   5.256   1.432 -1.0869  0.1446 -0.3683
 3531TIP3    H232085   0.554   5.284   1.580 -0.9327 -0.3188 -0.2815
 3532TIP3   OH232086   6.056   4.583   1.243  0.6991  0.1254  0.3008
 3532TIP3    H132087   6.106   4.559   1.321 -1.2206 -1.6781  1.0713
 3532TIP3    H232088   6.081   4.516   1.178 -0.0350 -0.2679  0.4153
 3533TIP3   OH232089   6.048   4.112   4.613 -0.3640 -0.2046  0.1561
 3533TIP3    H132090   5.960   4.074   4.607  0.1211 -1.2449 -0.4569
 3533TIP3    H232091   6.106   4.045   4.578  0.7155  0.3731  0.8041
 3534TIP3   OH232092   0.696   4.678   5.863  0.2594 -0.3182  0.1450
 3534TIP3    H132093   0.715   4.768   5.837  0.5688 -0.1833  0.8162
 3534TIP3    H232094   0.746   4.624   5.802 -0.2756 -0.0469 -0.5370
 3535TIP3   OH232095   0.946   5.329   5.906  0.3396 -0.0860  0.2613
 3535TIP3    H132096   1.032   5.302   5.874  0.9303 -0.6745  2.1870
 3535TIP3    H232097   0.885   5.302   5.838  1.2557 -3.4041  0.5676
 3536TIP3   OH232098   6.219   1.307  16.079  0.0826 -0.1061 -0.1054
 3536TIP3    H132099   6.161   1.318  16.003  0.3447 -2.9611 -0.8393
 3536TIP3    H232100   6.161   1.313  16.155 -0.6331  0.1820 -0.6573
 3537TIP3   OH232101   0.309   5.145   1.768  0.2172  0.0352 -0.5952
 3537TIP3    H132102   0.325   5.065   1.818  0.3217  0.8044  0.6435
 3537TIP3    H232103   0.392   5.163   1.725  0.2854 -0.3656 -0.6325
 3538TIP3   OH232104   1.297   5.064  13.590  0.5075 -0.1080  0.4669
 3538TIP3    H132105   1.229   5.048  13.524 -0.6188  0.7458  1.3582
 3538TIP3    H232106   1.343   4.981  13.598 -0.3405 -0.6758 -0.2792
 3539TIP3   OH232107   4.548   0.461  11.065 -0.4031  0.1548 -0.3631
 3539TIP3    H132108   4.518   0.543  11.026 -0.1479  1.0416  1.2069
 3539TIP3    H232109   4.569   0.484  11.156 -0.1244 -1.6108  0.0598
 3540TIP3   OH232110   2.730   5.785   3.253  0.0222  0.6134  0.5076
 3540TIP3    H132111   2.732   5.880   3.245 -0.1871  0.5441 -0.5261
 3540TIP3    H232112   2.672   5.768   3.328 -0.9006  1.2836 -0.0331
 3541TIP3   OH232113   4.938   3.702   4.565  0.4197 -0.0993  0.5579
 3541TIP3    H132114   4.982   3.625   4.601  2.3974  0.9203  0.4401
 3541TIP3    H232115   4.981   3.776   4.607 -1.2040  0.9857  0.4010
 3542TIP3   OH232116   3.924   4.321  14.232  0.1513  0.2322 -0.0081
 3542TIP3    H132117   3.952   4.399  14.184 -1.6039  0.6953 -0.3753
 3542TIP3    H232118   3.949   4.248  14.177  2.0064  0.4915  0.4351
 3543TIP3   OH232119   4.512   0.075   0.341 -0.3826  0.4374 -0.2053
 3543TIP3    H132120   4.508   0.117   0.427  0.5804 -0.3712  0.2547
 3543TIP3    H232121   4.602   0.042   0.334 -1.2901 -2.2874 -0.1732
 3544TIP3   OH232122   4.915   0.335  17.199  0.1773  0.0291  0.3606
 3544TIP3    H132123   4.841   0.370  17.250 -0.4619 -1.4223  0.4713
 3544TIP3    H232124   4.908   0.380  17.115 -0.4752  0.3591  0.5784
 3545TIP3   OH232125   2.686   2.756  11.300  0.2522  0.1484 -0.3753
 3545TIP3    H132126   2.622   2.824  11.280 -1.1246 -1.3122 -1.1722
 3545TIP3    H232127   2.734   2.743  11.218  0.4574  0.0961 -0.2485
 3546TIP3   OH232128   0.413   4.612   1.617  0.3871  0.4482 -0.1248
 3546TIP3    H132129   0.455   4.533   1.650 -0.1295  1.0223  2.0364
 3546TIP3    H232130   0.389   4.590   1.527  1.4110 -1.3819 -0.0006
 3547TIP3   OH232131   1.352   4.987   4.421  0.6890 -0.1803 -0.3497
 3547TIP3    H132132   1.306   4.992   4.505 -0.7135 -0.6808 -1.0727
 3547TIP3    H232133   1.423   5.051   4.430 -1.1326  1.9113  0.1933
 3548TIP3   OH232134   0.385   2.570  16.744  0.4372  0.0391  0.0874
 3548TIP3    H132135   0.439   2.634  16.790  0.7904  1.1319 -1.7690
 3548TIP3    H232136   0.295   2.597  16.764  0.5638 -0.1697  0.9969
 3549TIP3   OH232137   3.717   6.807  16.090  0.3756 -0.1115 -0.3413
 3549TIP3    H132138   3.770   6.828  16.013  0.1550 -0.3743 -0.5666
 3549TIP3    H232139   3.724   6.885  16.145  1.6620 -0.4489  0.0092
 3550TIP3   OH232140   1.333   5.811  15.708  0.1973  0.0980  0.4920
 3550TIP3    H132141   1.368   5.735  15.755  1.7111  0.5969  0.2212
 3550TIP3    H232142   1.372   5.805  15.621 -0.9698  0.3134 -0.0677
 3551TIP3   OH232143   4.949   5.141   4.249 -0.3021  0.5287  0.3702
 3551TIP3    H132144   4.874   5.084   4.265 -0.0616  0.6858  2.1786
 3551TIP3    H232145   5.013   5.085   4.205 -0.1272 -0.5756  1.9666
 3552TIP3   OH232146   1.886   5.738   2.078 -0.1214  0.2612 -0.1456
 3552TIP3    H132147   1.829   5.664   2.056 -1.0612  0.5594  1.2124
 3552TIP3    H232148   1.863   5.805   2.014 -0.6810  0.0774 -0.1440
 3553TIP3   OH232149   6.496   1.446  15.905 -0.0343  0.1650  0.5641
 3553TIP3    H132150   6.509   1.538  15.879  0.5255 -0.2880 -0.8422
 3553TIP3    H232151   6.410   1.424  15.869  0.0303  0.0080  0.5083
 3554TIP3   OH232152   0.508   2.089   2.507 -0.3986  0.0293 -0.4859
 3554TIP3    H132153   0.449   2.164   2.510 -0.2396  0.1480 -0.3100
 3554TIP3    H232154   0.588   2.122   2.467  0.3559  0.4368  1.2643
 3555TIP3   OH232155   4.253   0.680   5.414  0.0515  0.0019 -0.0094
 3555TIP3    H132156   4.337   0.707   5.451  0.2722 -0.2030 -0.3621
 3555TIP3    H232157   4.210   0.631   5.484  0.9004 -1.2793 -0.3505
 3556TIP3   OH232158   6.220   3.634  16.786 -0.7326 -0.0308 -1.0126
 3556TIP3    H132159   6.180   3.547  16.775 -0.7032 -0.0125 -1.2729
 3556TIP3    H232160   6.294   3.634  16.725 -0.2166 -0.1321 -0.3888
 3557TIP3   OH232161   0.725   4.165  16.275 -0.0003 -0.3377 -0.0082
 3557TIP3    H132162   0.790   4.128  16.215  1.0869  1.4723 -0.0169
 3557TIP3    H232163   0.642   4.156  16.229  0.5093 -0.9354 -0.8400
 3558TIP3   OH232164   3.588   0.215   4.954 -0.4636 -0.4471  0.0527
 3558TIP3    H132165   3.595   0.306   4.923 -2.4917  0.1949  1.2678
 3558TIP3    H232166   3.592   0.162   4.874  1.0596  0.6583 -0.6537
 3559TIP3   OH232167   2.183   1.500   5.991  0.4484 -0.1290 -0.0062
 3559TIP3    H132168   2.249   1.445   6.033  0.6897  0.8440  0.9272
 3559TIP3    H232169   2.161   1.566   6.057 -1.4093 -0.3700 -0.3081
 3560TIP3   OH232170   3.293   4.931   5.569 -0.3688  0.2813 -0.4518
 3560TIP3    H132171   3.210   4.950   5.612 -0.1695 -0.9743  0.5974
 3560TIP3    H232172   3.359   4.953   5.635  0.0880  0.5802 -1.0041
 3561TIP3   OH232173   0.462   2.008  11.215 -0.6094  0.4818  0.3489
 3561TIP3    H132174   0.526   2.060  11.166 -2.0344  0.7278 -1.3447
 3561TIP3    H232175   0.514   1.965  11.283  1.2459  1.1440 -0.5692
 3562TIP3   OH232176   5.466   6.273  13.697  0.7829 -0.1833 -0.5509
 3562TIP3    H132177   5.513   6.189  13.696  0.4841 -0.3586 -0.1167
 3562TIP3    H232178   5.462   6.298  13.789 -0.8961 -0.7133 -0.4376
 3563TIP3   OH232179   1.921   4.060  10.357  0.7920  0.5066  0.3078
 3563TIP3    H132180   1.864   4.046  10.433 -0.5770  1.0332 -0.5711
 3563TIP3    H232181   1.998   4.006  10.374  1.4758  2.1589  3.0308
 3564TIP3   OH232182   4.964   5.795  12.089 -0.2851 -0.0019 -0.3870
 3564TIP3    H132183   5.040   5.764  12.138  0.4613  0.4144 -1.2633
 3564TIP3    H232184   4.917   5.715  12.065  0.5584 -0.3470 -0.9189
 3565TIP3   OH232185   3.202   0.066   3.014 -0.0447 -0.1746 -0.1357
 3565TIP3    H132186   3.263   0.112   2.956  0.1357  0.2347  0.3620
 3565TIP3    H232187   3.127   0.045   2.959  0.5231 -0.6552 -0.7528
 3566TIP3   OH232188   2.100   0.176   4.103 -0.2806  0.3795 -0.5563
 3566TIP3    H132189   2.075   0.108   4.166 -1.3611  1.2484 -0.0241
 3566TIP3    H232190   2.029   0.176   4.039 -0.9222  1.8324  0.1243
 3567TIP3   OH232191   0.645   0.737   1.195 -0.8070 -0.0996  0.1541
 3567TIP3    H132192   0.685   0.669   1.140 -0.0810  0.4173  0.0285
 3567TIP3    H232193   0.623   0.692   1.276 -1.6216 -0.8059 -0.4347
 3568TIP3   OH232194   1.580   4.580   5.795 -0.2073 -0.1826 -0.6848
 3568TIP3    H132195   1.491   4.550   5.775 -0.8121  1.5120 -0.7115
 3568TIP3    H232196   1.600   4.538   5.879 -0.8012 -1.0388 -0.9560
 3569TIP3   OH232197   3.776   3.862   5.763 -0.1074  0.9110  0.4850
 3569TIP3    H132198   3.739   3.779   5.730  0.5007  0.5482  0.7031
 3569TIP3    H232199   3.754   3.926   5.695 -1.3563  0.7716  0.7204
 3570TIP3   OH232200   6.034   2.792   1.979  0.4526 -0.4119  0.2317
 3570TIP3    H132201   6.027   2.875   2.027  0.2611 -0.0284 -0.4481
 3570TIP3    H232202   6.085   2.814   1.901 -2.0200 -0.2373 -1.4554
 3571TIP3   OH232203   1.223   2.306   1.507 -0.1991  0.1154 -0.0959
 3571TIP3    H132204   1.311   2.334   1.480  0.2019 -1.0301 -0.0517
 3571TIP3    H232205   1.207   2.353   1.589  0.5424  0.0570  0.0946
 3572TIP3   OH232206   6.215   3.349   1.586 -0.3604  0.4983 -0.0327
 3572TIP3    H132207   6.220   3.254   1.575  1.3273  0.6645 -1.0195
 3572TIP3    H232208   6.252   3.364   1.673 -1.0306  0.2344  0.3073
 3573TIP3   OH232209   3.977   1.390  11.198  0.2568 -0.0553  0.1087
 3573TIP3    H132210   3.912   1.436  11.251 -1.4685 -2.4695  0.2526
 3573TIP3    H232211   4.055   1.385  11.253 -0.3096  0.6154  0.9779
 3574TIP3   OH232212   2.358   3.183   2.008  0.7486  0.0690  0.5814
 3574TIP3    H132213   2.388   3.270   1.981  2.0406 -1.2063 -2.6013
 3574TIP3    H232214   2.434   3.143   2.050  0.8170 -0.2432  0.1603
 3575TIP3   OH232215   1.178   5.842   4.727  0.4714  0.0618 -0.3276
 3575TIP3    H132216   1.217   5.914   4.678 -0.1723 -0.2931 -1.3957
 3575TIP3    H232217   1.253   5.795   4.763  0.9054  1.0995  0.1506
 3576TIP3   OH232218   6.044   6.717  11.457 -0.3892  0.4899  0.5045
 3576TIP3    H132219   6.053   6.772  11.380  0.7003  1.3053  1.1929
 3576TIP3    H232220   6.060   6.775  11.531  1.4902 -0.8599  1.2355
 3577TIP3   OH232221   4.361   4.359   3.994 -0.3042  0.7315 -0.7002
 3577TIP3    H132222   4.299   4.287   3.983 -0.2771  0.9788 -2.6906
 3577TIP3    H232223   4.313   4.437   3.967  0.1147  1.2861  0.1020
 3578TIP3   OH232224   4.551   0.196  16.089  0.0793 -0.4867  0.2074
 3578TIP3    H132225   4.526   0.181  16.180  0.6491 -2.0783  0.1281
 3578TIP3    H232226   4.468   0.210  16.043 -0.1525  1.5978  1.1404
 3579TIP3   OH232227   5.128   1.731   0.617  0.1838 -0.2226 -0.3917
 3579TIP3    H132228   5.135   1.640   0.587  0.6741  0.2380 -1.7472
 3579TIP3    H232229   5.210   1.747   0.665  0.3921 -0.2957 -0.7210
 3580TIP3   OH232230   4.809   5.444   3.173 -0.1151  0.2790 -0.4247
 3580TIP3    H132231   4.826   5.392   3.252  2.4666  0.0807 -1.0260
 3580TIP3    H232232   4.854   5.397   3.103 -1.3471  1.0902 -1.8182
 3581TIP3   OH232233   4.077   2.325  10.389 -0.7420  1.0975 -0.1143
 3581TIP3    H132234   4.120   2.296  10.469 -0.3826  1.8063 -0.0493
 3581TIP3    H232235   4.113   2.412  10.371 -1.6640  1.4306 -0.4174
 3582TIP3   OH232236   6.022   1.222  11.496 -0.0368  0.5254  0.0601
 3582TIP3    H132237   6.036   1.151  11.434 -0.3720  0.7944 -0.3275
 3582TIP3    H232238   6.079   1.201  11.570 -0.6950 -0.5453  0.2849
 3583TIP3   OH232239   2.310   4.449  17.163  0.0524 -0.4070  0.1542
 3583TIP3    H132240   2.391   4.398  17.173 -0.3571 -1.6003 -1.9303
 3583TIP3    H232241   2.250   4.412  17.227  0.5551 -0.8102  0.4025
 3584TIP3   OH232242   2.984   0.147   0.556  0.0347 -0.3849 -0.3981
 3584TIP3    H132243   2.907   0.094   0.535 -2.6377  2.3381  1.6444
 3584TIP3    H232244   3.018   0.110   0.637 -1.2415  0.3511  0.5071
 3585TIP3   OH232245   3.899   4.110   6.216 -0.2301  0.1231 -0.0376
 3585TIP3    H132246   3.901   4.111   6.120 -0.4134  1.2368 -0.0435
 3585TIP3    H232247   3.808   4.094   6.238 -0.3276  0.6091 -0.0651
 3586TIP3   OH232248   2.995   3.022  10.399  0.0187  0.2763  0.4607
 3586TIP3    H132249   3.025   2.939  10.361 -0.2710  0.2438  0.2924
 3586TIP3    H232250   3.057   3.087  10.367 -0.0215  0.1933  0.2109
 3587TIP3   OH232251   3.462   2.681   0.592 -0.3866 -0.5815 -0.3396
 3587TIP3    H132252   3.427   2.769   0.605  1.0326  0.1189 -1.0767
 3587TIP3    H232253   3.525   2.669   0.662 -0.2124 -0.8231 -0.5363
 3588TIP3   OH232254   1.840   4.888  14.105  0.2409 -0.0016 -0.1441
 3588TIP3    H132255   1.764   4.862  14.053  0.7670  0.9381 -1.4266
 3588TIP3    H232256   1.885   4.953  14.052  2.3770 -1.0625  0.2261
 3589TIP3   OH232257   5.217   3.091   3.842 -0.0956 -0.2904 -0.6388
 3589TIP3    H132258   5.238   3.178   3.875  0.8650 -0.7698  0.0682
 3589TIP3    H232259   5.212   3.036   3.921 -3.9107 -0.3021 -0.7083
 3590TIP3   OH232260   1.014   1.388  12.573 -0.3680  0.1306 -0.2105
 3590TIP3    H132261   0.954   1.462  12.571 -1.9979 -1.1479 -1.3424
 3590TIP3    H232262   1.039   1.375  12.482 -0.8293 -1.2287 -0.1752
 3591TIP3   OH232263   1.752   2.469  11.453 -0.2397 -0.8121  0.0765
 3591TIP3    H132264   1.817   2.407  11.486 -0.2921 -1.0119 -0.1898
 3591TIP3    H232265   1.671   2.418  11.449 -0.1771 -0.8672 -0.6062
 3592TIP3   OH232266   6.775   2.895   6.380 -0.8629 -0.9438  0.6920
 3592TIP3    H132267   6.691   2.878   6.422 -2.0146  0.2859 -0.9690
 3592TIP3    H232268   6.793   2.816   6.329 -2.1832 -0.3830 -0.7183
 3593TIP3   OH232269   3.956   1.577  16.350 -0.3919 -0.2362 -0.1726
 3593TIP3    H132270   4.018   1.507  16.373 -0.6004  0.1020  1.6171
 3593TIP3    H232271   4.010   1.654  16.335 -0.3078 -0.1275  0.6330
 3594TIP3   OH232272   4.735   3.868   3.481  1.0141 -0.3104  0.3412
 3594TIP3    H132273   4.711   3.804   3.548  0.2840 -0.3473  0.0533
 3594TIP3    H232274   4.827   3.849   3.462  1.3563 -0.0330  1.6169
 3595TIP3   OH232275   0.300   2.518   5.690 -0.9219 -0.3199  0.1205
 3595TIP3    H132276   0.271   2.526   5.781  0.8836  2.8704  0.5381
 3595TIP3    H232277   0.228   2.556   5.639 -1.7233 -1.6704  0.1855
 3596TIP3   OH232278   2.725   2.770   2.583 -0.1878  0.1904  0.0455
 3596TIP3    H132279   2.669   2.844   2.607  0.0439  0.3330  0.1507
 3596TIP3    H232280   2.672   2.717   2.523 -0.7958 -0.2110  0.9267
 3597TIP3   OH232281   4.742   0.948  12.794 -0.2269 -0.1174  0.3139
 3597TIP3    H132282   4.731   0.866  12.841 -1.1035 -0.3680 -0.2984
 3597TIP3    H232283   4.665   1.000  12.820 -0.2887  0.0528 -0.2051
 3598TIP3   OH232284   6.796   5.165   5.549  0.2807  0.1577  0.1367
 3598TIP3    H132285   6.869   5.166   5.486 -0.6759 -1.3954 -1.0588
 3598TIP3    H232286   6.724   5.124   5.501 -1.1909  1.0369  1.5201
 3599TIP3   OH232287   3.958   3.582   1.395  0.3128  0.2634 -0.0854
 3599TIP3    H132288   3.952   3.649   1.463 -1.4912 -0.4124  0.4840
 3599TIP3    H232289   3.939   3.629   1.313 -1.0386  0.4447  0.3172
 3600TIP3   OH232290   3.956   5.457   0.311 -0.3877 -0.0772 -0.1884
 3600TIP3    H132291   3.897   5.524   0.276  0.4831  1.0774  0.4855
 3600TIP3    H232292   3.919   5.434   0.396  1.0347  1.9921  1.0835
 3601TIP3   OH232293   0.225   5.561   5.569  0.3049  0.2929 -0.3322
 3601TIP3    H132294   0.277   5.480   5.572 -0.5031 -0.2112  0.7756
 3601TIP3    H232295   0.141   5.534   5.533 -0.1584  0.5092  0.5581
 3602TIP3   OH232296   5.154   4.689  16.049  0.0029 -0.2005 -0.7040
 3602TIP3    H132297   5.156   4.649  16.136 -0.6832 -0.7548 -0.9276
 3602TIP3    H232298   5.065   4.672  16.017 -0.5909  2.1370 -0.5184
 3603TIP3   OH232299   1.064   0.042   2.240  0.1976 -1.0833 -0.1170
 3603TIP3    H132300   1.145   0.031   2.289  0.3517  0.2446 -0.0221
 3603TIP3    H232301   0.998  -0.004   2.293  0.8182 -1.9071 -0.0393
 3604TIP3   OH232302   4.881   0.070   0.773 -0.3644  0.0521  0.4021
 3604TIP3    H132303   4.973   0.052   0.788 -0.6431  0.0381  2.3395
 3604TIP3    H232304   4.846  -0.013   0.740  0.5043  0.4069 -1.5659
 3605TIP3   OH232305   0.141   0.500  16.580 -0.0641 -0.3760 -0.2068
 3605TIP3    H132306   0.153   0.484  16.673 -0.8145  1.2392  0.2004
 3605TIP3    H232307   0.229   0.491  16.543  0.3942 -0.1696  0.7962
 3606TIP3   OH232308   2.702   5.583  12.715 -0.7225  0.1599 -0.7723
 3606TIP3    H132309   2.790   5.591  12.750 -0.0781 -3.1585 -1.2868
 3606TIP3    H232310   2.709   5.613  12.625  0.0754 -0.6330 -0.9924
 3607TIP3   OH232311   3.826   1.132   1.399 -0.5238  0.1712  0.0465
 3607TIP3    H132312   3.869   1.179   1.471  0.1300 -1.5750  0.8435
 3607TIP3    H232313   3.861   1.173   1.320 -0.2847  1.2871  0.7058
 3608TIP3   OH232314   1.201   2.391  15.561  0.0988  0.2242 -0.1791
 3608TIP3    H132315   1.241   2.316  15.517 -1.5090 -0.4818 -0.5073
 3608TIP3    H232316   1.199   2.459  15.493 -0.2362 -0.1031 -0.5083
 3609TIP3   OH232317   3.296   0.771  17.028 -0.2699 -0.4486 -0.4736
 3609TIP3    H132318   3.390   0.784  17.020 -0.6291  1.8071 -1.6406
 3609TIP3    H232319   3.284   0.741  17.118  1.4707  0.3703  0.0710
 3610TIP3   OH232320   1.905   3.761   5.439 -0.5435  0.3474  0.2633
 3610TIP3    H132321   1.830   3.814   5.468 -0.9958 -1.4198  2.6165
 3610TIP3    H232322   1.870   3.672   5.432  1.3254 -0.5610  1.5889
 3611TIP3   OH232323   6.428   1.990   2.233 -0.2093  0.2198 -0.3984
 3611TIP3    H132324   6.385   2.058   2.180 -0.3249  0.8036  0.4252
 3611TIP3    H232325   6.357   1.946   2.279 -0.1899 -0.8838 -1.3888
 3612TIP3   OH232326   6.396   4.568  11.895  0.6548  0.5383  0.2840
 3612TIP3    H132327   6.469   4.617  11.856 -1.0373  0.4240 -3.4751
 3612TIP3    H232328   6.433   4.482  11.915  2.0289  1.1521  0.5020
 3613TIP3   OH232329   6.708   2.552   4.644  0.2383  0.3283  0.1719
 3613TIP3    H132330   6.632   2.609   4.635  0.6220  0.8813  0.3856
 3613TIP3    H232331   6.696   2.511   4.730 -0.0012  0.1318  0.0482
 3614TIP3   OH232332   3.306   6.373   4.223 -0.2378  0.1551 -0.1578
 3614TIP3    H132333   3.266   6.364   4.136  1.1365  1.2878 -0.9509
 3614TIP3    H232334   3.236   6.409   4.278 -0.6619  1.0207 -1.2165
 3615TIP3   OH232335   4.173   3.780  16.040  0.0087  0.0491  0.2274
 3615TIP3    H132336   4.185   3.863  15.993  0.3000  0.9462  1.8126
 3615TIP3    H232337   4.134   3.805  16.124 -0.1439 -1.4553  0.6346
 3616TIP3   OH232338   2.071   0.824   4.379  0.0564  0.7266 -0.3073
 3616TIP3    H132339   2.027   0.746   4.345  1.8812  0.5644 -2.5311
 3616TIP3    H232340   2.105   0.798   4.464 -0.3580 -0.5232 -0.5043
 3617TIP3   OH232341   6.778   6.182   6.998 -0.1158  0.5422 -0.1680
 3617TIP3    H132342   6.850   6.193   6.935  0.6998  0.0447  0.6621
 3617TIP3    H232343   6.758   6.271   7.026  1.6656  0.5632  1.2122
 3618TIP3   OH232344   0.113   2.715   6.269 -0.3343 -0.2933  0.3398
 3618TIP3    H132345   0.138   2.716   6.362 -0.2926 -1.2714  0.3404
 3618TIP3    H232346   0.139   2.629   6.237 -1.9400 -0.6403 -0.1393
 3619TIP3   OH232347   6.701   0.192  13.804  0.2539 -0.4261  0.1838
 3619TIP3    H132348   6.717   0.098  13.806  0.6844 -0.3632  2.3773
 3619TIP3    H232349   6.787   0.231  13.787  0.4177 -0.4065  0.9994
 3620TIP3   OH232350   2.190   5.213  15.300 -0.3732  1.0174  0.3036
 3620TIP3    H132351   2.272   5.213  15.350 -0.1752  1.4458 -0.0185
 3620TIP3    H232352   2.163   5.305  15.300  0.1095  1.1749 -1.1622
 3621TIP3   OH232353   0.060   4.459  14.301 -0.2572  0.5098 -0.0059
 3621TIP3    H132354   0.039   4.545  14.264  1.9845  0.4228 -1.6793
 3621TIP3    H232355   0.064   4.401  14.226  1.5152 -0.3226  0.6773
 3622TIP3   OH232356   6.616   2.184   2.935  0.2245  0.0570 -0.3997
 3622TIP3    H132357   6.698   2.204   2.890  0.3551 -1.5442 -0.9656
 3622TIP3    H232358   6.551   2.176   2.865 -0.6333  2.0712  0.1011
 3623TIP3   OH232359   4.969   1.190   5.264 -0.3062  0.6401  0.4777
 3623TIP3    H132360   4.976   1.153   5.352  0.9331  1.7401  0.8879
 3623TIP3    H232361   4.879   1.174   5.238 -0.5275 -0.2537  1.7005
 3624TIP3   OH232362   4.466   5.227  16.892 -0.0186  0.0173  0.5287
 3624TIP3    H132363   4.560   5.238  16.908 -0.0732 -0.8161  1.5164
 3624TIP3    H232364   4.424   5.282  16.958 -0.2408  0.5735 -0.0599
 3625TIP3   OH232365   1.715   1.390   3.628  0.1710  0.3277  0.0855
 3625TIP3    H132366   1.741   1.471   3.672 -1.9398  0.2097  1.7448
 3625TIP3    H232367   1.785   1.373   3.566  0.7468  3.3845 -0.2916
 3626TIP3   OH232368   3.484   3.508   4.924 -0.7939 -0.1286  0.0723
 3626TIP3    H132369   3.421   3.571   4.959 -0.3134 -0.8372  2.4023
 3626TIP3    H232370   3.444   3.423   4.941 -0.5002 -0.5195 -1.1369
 3627TIP3   OH232371   4.803   0.553  10.937  0.1064  0.0028  0.3742
 3627TIP3    H132372   4.755   0.627  10.900 -0.0990  0.6504  1.8685
 3627TIP3    H232373   4.736   0.500  10.980  0.1273 -1.5411 -1.3527
 3628TIP3   OH232374   3.740   0.649  11.872 -0.3704  0.4365 -0.1702
 3628TIP3    H132375   3.771   0.587  11.807  1.4279  0.2830  0.7613
 3628TIP3    H232376   3.734   0.598  11.953  1.3733  1.4611  0.6624
 3629TIP3   OH232377   0.538   5.357   2.484 -0.3185 -0.1525 -0.0652
 3629TIP3    H132378   0.579   5.335   2.567 -1.1581  0.2484  0.4585
 3629TIP3    H232379   0.490   5.438   2.500  2.8401  2.3670 -2.0013
 3630TIP3   OH232380   4.735   5.627  14.562  0.3328 -0.4308  0.2767
 3630TIP3    H132381   4.759   5.591  14.477 -0.8430 -1.0520  0.2003
 3630TIP3    H232382   4.815   5.618  14.615  0.5219 -1.7274 -0.2059
 3631TIP3   OH232383   3.015   6.693  12.478  0.3301  0.3098  0.6643
 3631TIP3    H132384   2.927   6.727  12.492  0.1919 -0.0568  0.7066
 3631TIP3    H232385   3.045   6.736  12.398  0.5317  1.2537  1.2346
 3632TIP3   OH232386   4.028   3.018  17.214 -0.4903  0.3609 -0.4227
 3632TIP3    H132387   3.998   2.927  17.214 -0.7550  0.3384  2.3752
 3632TIP3    H232388   4.123   3.013  17.204 -0.0788 -0.5839  2.7003
 3633TIP3   OH232389   2.628   3.270   4.623 -0.0988 -0.3029 -0.0973
 3633TIP3    H132390   2.656   3.220   4.700  0.9725  1.9189  1.0479
 3633TIP3    H232391   2.655   3.360   4.642 -0.6856  0.4893 -2.6696
 3634TIP3   OH232392   5.724   3.604  13.822 -0.1154 -0.0521 -0.1105
 3634TIP3    H132393   5.799   3.597  13.881 -1.3406 -0.4448  1.4639
 3634TIP3    H232394   5.752   3.667  13.755  1.6221 -0.2268  0.3961
 3635TIP3   OH232395   5.963   5.416   2.427  0.4298  0.2242 -0.3396
 3635TIP3    H132396   6.024   5.342   2.418 -1.3323 -1.2868 -0.4872
 3635TIP3    H232397   6.011   5.480   2.479  1.8843 -1.1959  0.1710
 3636TIP3   OH232398   0.169   2.095  16.450 -0.3830  0.2174 -0.5210
 3636TIP3    H132399   0.129   2.179  16.474 -0.5773 -0.5317  1.9714
 3636TIP3    H232400   0.262   2.108  16.464 -0.5298 -0.3285  1.1039
 3637TIP3   OH232401   5.470   4.057  14.912  0.4618 -0.3028  0.1164
 3637TIP3    H132402   5.398   4.023  14.858 -0.3991  2.7179 -0.8307
 3637TIP3    H232403   5.548   4.041  14.860 -0.3269  2.3339 -2.1233
 3638TIP3   OH232404   5.251   1.289  11.454  0.5446 -0.9203  0.2201
 3638TIP3    H132405   5.303   1.245  11.521  0.9798  0.9831  1.2030
 3638TIP3    H232406   5.217   1.368  11.497 -1.4166 -1.0052 -1.0284
 3639TIP3   OH232407   0.726   4.864   1.381 -0.1103  0.0653 -0.2584
 3639TIP3    H132408   0.692   4.873   1.292 -1.1714  0.6467  0.1953
 3639TIP3    H232409   0.818   4.889   1.374 -0.2305  0.2708 -1.1628
 3640TIP3   OH232410   3.008   0.554   1.830  0.4537  0.2040 -0.7869
 3640TIP3    H132411   2.936   0.508   1.874  0.4318 -0.2328 -1.2737
 3640TIP3    H232412   2.972   0.580   1.745  0.6308  0.6732 -0.7267
 3641TIP3   OH232413   6.297   4.496  16.964 -0.5560 -0.0125 -0.2902
 3641TIP3    H132414   6.221   4.554  16.961 -0.9766 -0.4033  1.4540
 3641TIP3    H232415   6.342   4.520  17.045  1.5883  0.6492 -1.5883
 3642TIP3   OH232416   1.450   4.638   2.249 -0.2591  0.6992  0.4971
 3642TIP3    H132417   1.480   4.550   2.270  0.0583  0.8777  0.8066
 3642TIP3    H232418   1.486   4.656   2.162 -3.0119 -0.7141 -1.0897
 3643TIP3   OH232419   1.995   3.385  11.836 -0.2986 -0.9588  0.1274
 3643TIP3    H132420   2.032   3.354  11.754 -1.1387 -0.4356 -0.4696
 3643TIP3    H232421   1.933   3.316  11.862 -1.8959 -0.0440 -1.0113
 3644TIP3   OH232422   4.019   0.039   6.658  0.0704 -0.5457 -0.8194
 3644TIP3    H132423   3.994  -0.050   6.681  0.2572 -0.4988 -0.4100
 3644TIP3    H232424   3.977   0.093   6.726  1.5069 -0.4911  0.0674
 3645TIP3   OH232425   2.019   6.058   1.748 -0.3928 -0.1318  0.1511
 3645TIP3    H132426   1.943   6.000   1.742  0.0435 -0.6699 -0.2822
 3645TIP3    H232427   2.080   6.024   1.683  1.9603 -2.2636  3.1846
 3646TIP3   OH232428   1.254   4.365   4.945  0.0819 -0.1069  0.2790
 3646TIP3    H132429   1.346   4.341   4.933  0.1106  0.5700 -1.1123
 3646TIP3    H232430   1.218   4.296   5.000  1.5966  0.0238  1.5094
 3647TIP3   OH232431   2.607   0.116  12.451 -0.3880 -0.5405  0.5417
 3647TIP3    H132432   2.563   0.069  12.380 -0.2041 -0.3123  0.2752
 3647TIP3    H232433   2.538   0.131  12.516 -1.1207  1.1970 -0.5503
 3648TIP3   OH232434   2.548   2.599   2.150  0.2406  0.2454 -0.1760
 3648TIP3    H132435   2.485   2.532   2.123  0.7990 -0.4498  0.2425
 3648TIP3    H232436   2.600   2.615   2.071 -0.5631  0.9599 -0.5803
 3649TIP3   OH232437   2.776   6.205   5.496 -0.1461 -0.4513  0.2539
 3649TIP3    H132438   2.710   6.146   5.459  1.3667 -1.4659 -0.9379
 3649TIP3    H232439   2.789   6.173   5.585  0.6165 -1.9510 -0.3580
 3650TIP3   OH232440   0.531   6.509   6.381 -0.4579  0.1217 -0.0875
 3650TIP3    H132441   0.437   6.527   6.377 -0.5769 -0.6309 -1.4131
 3650TIP3    H232442   0.538   6.431   6.435 -0.6170  0.0300 -0.1987
 3651TIP3   OH232443   3.124   5.100   1.348  0.3457  0.3018 -0.4213
 3651TIP3    H132444   3.142   5.130   1.437 -0.2691 -0.1228 -0.1434
 3651TIP3    H232445   3.184   5.150   1.293  1.1651  0.1291  0.2934
 3652TIP3   OH232446   0.973   2.275   4.996  0.1233  0.2314 -0.4590
 3652TIP3    H132447   0.885   2.310   5.008  0.5342  1.9493 -1.9765
 3652TIP3    H232448   1.029   2.352   4.989  1.5580 -0.8005 -0.8241
 3653TIP3   OH232449   3.983   5.876  11.736  0.0508 -0.7529  0.0744
 3653TIP3    H132450   4.041   5.829  11.676 -1.6223 -0.1783 -2.1371
 3653TIP3    H232451   3.935   5.808  11.782  0.7281 -1.2024  0.1303
 3654TIP3   OH232452   5.978   0.952  14.757 -0.8295  0.1745  0.2185
 3654TIP3    H132453   5.936   0.907  14.684 -0.6449  0.3399  0.0077
 3654TIP3    H232454   5.989   1.042  14.726  2.1569 -0.4588 -0.7900
 3655TIP3   OH232455   6.555   1.911  14.314 -0.0091  0.2473  0.3172
 3655TIP3    H132456   6.505   1.839  14.275  0.0834 -0.2936  1.1770
 3655TIP3    H232457   6.647   1.887  14.300  0.0321 -0.1014  1.0975
 3656TIP3   OH232458   1.870   4.655   3.737  0.1372  0.8070  0.0557
 3656TIP3    H132459   1.939   4.720   3.731  1.2377 -0.4171 -1.3331
 3656TIP3    H232460   1.899   4.595   3.806 -0.4174  1.2515  0.6867
 3657TIP3   OH232461   1.656   3.662  14.494 -1.1453 -0.1339 -0.2142
 3657TIP3    H132462   1.686   3.643  14.406 -0.9520 -0.5515 -0.0608
 3657TIP3    H232463   1.615   3.748  14.488  0.5437  0.7000 -0.3243
 3658TIP3   OH232464   6.025   5.609  11.162  0.6076  0.3215  0.5283
 3658TIP3    H132465   6.039   5.518  11.186  1.3679  0.2305 -0.2195
 3658TIP3    H232466   6.043   5.659  11.242  0.9576 -0.1264  0.7276
 3659TIP3   OH232467   0.558   5.617  14.659 -0.0619  0.8188 -0.1578
 3659TIP3    H132468   0.505   5.604  14.581  1.4054 -0.4412 -1.0136
 3659TIP3    H232469   0.567   5.529  14.696 -0.0666  1.2842  0.9722
 3660TIP3   OH232470   3.831   5.305   2.259  0.4638  0.2983 -0.0280
 3660TIP3    H132471   3.851   5.340   2.172 -1.8058 -0.5421 -0.9560
 3660TIP3    H232472   3.814   5.212   2.244  1.2777 -0.1283  1.5408
 3661TIP3   OH232473   6.176   2.044  17.105  0.2132 -0.2440 -0.1821
 3661TIP3    H132474   6.212   2.003  17.184  0.8209 -1.4233 -1.0407
 3661TIP3    H232475   6.239   2.023  17.036 -0.4606  0.5139 -1.0545
 3662TIP3   OH232476   4.188   2.791   6.360 -0.6545 -0.0421 -0.0489
 3662TIP3    H132477   4.126   2.840   6.306  1.3244  1.7595 -0.8125
 3662TIP3    H232478   4.258   2.853   6.379  1.3684 -2.2203  0.0242
 3663TIP3   OH232479   3.136   5.330  14.244  0.2015 -0.4890 -0.1917
 3663TIP3    H132480   3.065   5.336  14.308  0.2381  0.0323 -0.2002
 3663TIP3    H232481   3.092   5.311  14.161  0.0376  0.1915 -0.2650
 3664TIP3   OH232482   0.822   2.003  12.625 -0.2916  0.0425  0.0268
 3664TIP3    H132483   0.880   2.017  12.700 -0.3942  0.6437 -0.0066
 3664TIP3    H232484   0.870   1.940  12.570 -0.1822 -0.3448  0.5516
 3665TIP3   OH232485   4.485   1.867   1.742  0.4725  1.2610  0.1625
 3665TIP3    H132486   4.544   1.810   1.692  1.2346  1.4416  0.8439
 3665TIP3    H232487   4.506   1.849   1.833  1.2088  3.1330  0.3896
 3666TIP3   OH232488   5.439   6.096   6.058  0.6309  0.1203 -0.1293
 3666TIP3    H132489   5.377   6.025   6.047  0.9464 -0.1499 -0.1705
 3666TIP3    H232490   5.525   6.053   6.064  0.9703  0.5617 -1.4235
 3667TIP3   OH232491   2.509   3.218  16.805  0.2795  0.1976 -0.2655
 3667TIP3    H132492   2.529   3.154  16.737 -0.7109  1.4287 -1.7840
 3667TIP3    H232493   2.413   3.223  16.805  0.3311  1.4162  0.0584
 3668TIP3   OH232494   4.223   1.659   1.025 -0.7976  0.7468  0.2324
 3668TIP3    H132495   4.244   1.703   0.943  0.4570  1.3910  0.8721
 3668TIP3    H232496   4.184   1.727   1.080  1.9687  1.4091  1.5460
 3669TIP3   OH232497   3.842   1.615   0.612  0.3992 -0.0354 -0.1116
 3669TIP3    H132498   3.813   1.525   0.619 -2.5851  0.8526  0.2670
 3669TIP3    H232499   3.857   1.628   0.518  3.3008 -1.4793  0.0199
 3670TIP3   OH232500   4.709   4.201  16.004 -0.2814  0.0246 -0.5237
 3670TIP3    H132501   4.733   4.176  15.915 -0.2713 -3.0402  0.2306
 3670TIP3    H232502   4.619   4.172  16.015  0.0922 -0.7609  0.7906
 3671TIP3   OH232503   3.319   1.955   2.573 -0.1814 -0.8993  0.2792
 3671TIP3    H132504   3.297   1.967   2.665  1.2894  2.8185  0.3000
 3671TIP3    H232505   3.246   1.994   2.525  0.6619  0.4290  0.0256
 3672TIP3   OH232506   4.943   0.210  12.172  0.1448  0.1679  0.1044
 3672TIP3    H132507   4.848   0.225  12.179  0.0688 -0.1086 -0.2821
 3672TIP3    H232508   4.967   0.169  12.255 -0.3437 -1.1192 -0.3577
 3673TIP3   OH232509   6.571   0.442   2.000 -0.3247 -0.0158  0.4763
 3673TIP3    H132510   6.563   0.347   1.990 -2.4781  0.1172  0.3838
 3673TIP3    H232511   6.481   0.474   1.995  0.4912  2.4773 -3.9253
 3674TIP3   OH232512   5.519   4.159  16.557 -0.0084  0.5672 -0.3943
 3674TIP3    H132513   5.544   4.153  16.465  3.1261  1.7093  0.2450
 3674TIP3    H232514   5.534   4.251  16.579 -2.0676  0.6283  0.9489
 3675TIP3   OH232515   6.760   5.584   2.340 -0.6351 -0.2052 -0.5542
 3675TIP3    H132516   6.839   5.535   2.365 -0.9010 -1.0503 -1.3218
 3675TIP3    H232517   6.697   5.516   2.316 -1.1647  0.5100 -1.2192
 3676TIP3   OH232518   0.835   4.195  12.540 -0.6569  0.0609  0.0301
 3676TIP3    H132519   0.832   4.157  12.452  0.2782 -0.0319  0.0279
 3676TIP3    H232520   0.928   4.205  12.559 -0.8573  0.5319  0.8213
 3677TIP3   OH232521   5.589   1.936  16.590  0.9611 -0.2855 -0.0377
 3677TIP3    H132522   5.551   1.876  16.526  0.3368 -2.0586  1.8770
 3677TIP3    H232523   5.528   2.010  16.592  1.6686  0.4648 -2.3265
 3678TIP3   OH232524   4.579   5.569   3.728 -0.1466  0.3721  0.6297
 3678TIP3    H132525   4.532   5.639   3.772  0.3718  0.7800  0.5548
 3678TIP3    H232526   4.598   5.605   3.641 -2.9989 -1.1857 -0.7496
 3679TIP3   OH232527   3.662   6.336  14.593 -0.1056  0.6866  0.0516
 3679TIP3    H132528   3.735   6.301  14.645 -0.6162 -0.4928 -0.0172
 3679TIP3    H232529   3.656   6.279  14.517 -0.3746  1.4761 -0.5390
 3680TIP3   OH232530   0.701   4.639   1.022 -0.1189 -0.2991  0.3079
 3680TIP3    H132531   0.671   4.647   0.931  0.9559 -0.7316 -0.0965
 3680TIP3    H232532   0.692   4.727   1.058  1.3917  0.3769 -0.8552
 3681TIP3   OH232533   0.331   4.678   5.219  0.0019  0.0789  0.3064
 3681TIP3    H132534   0.260   4.624   5.184  1.4473 -2.3695  0.9277
 3681TIP3    H232535   0.357   4.635   5.300  0.6863  2.2517  1.3295
 3682TIP3   OH232536   1.647   5.300   0.894 -0.0901 -0.1602  0.6577
 3682TIP3    H132537   1.591   5.227   0.920 -0.8041 -0.0447 -0.5051
 3682TIP3    H232538   1.589   5.376   0.892 -0.6772 -0.5136 -3.2728
 3683TIP3   OH232539   5.060   5.001   3.466 -0.2781  0.5559 -0.4704
 3683TIP3    H132540   5.038   5.017   3.374  0.8691  1.0423 -0.6671
 3683TIP3    H232541   5.144   5.043   3.479  0.4678 -1.0890  0.3189
 3684TIP3   OH232542   0.888   6.664  11.795  0.4542  0.2819 -0.4733
 3684TIP3    H132543   0.953   6.666  11.865 -0.1796 -0.2095  0.1533
 3684TIP3    H232544   0.927   6.610  11.726 -0.0781 -1.7833  0.7492
 3685TIP3   OH232545   3.777   0.794  15.342  0.2794 -0.2707  0.2033
 3685TIP3    H132546   3.694   0.765  15.380  0.4903  1.0355  1.7481
 3685TIP3    H232547   3.790   0.883  15.376  1.7876 -0.0408 -0.8659
 3686TIP3   OH232548   2.787   2.436  13.884 -0.4134 -0.2586  0.7060
 3686TIP3    H132549   2.813   2.344  13.891  0.5294  0.0912  2.4580
 3686TIP3    H232550   2.870   2.482  13.868 -0.8496  0.3165  0.0643
 3687TIP3   OH232551   2.689   2.347   1.967 -0.5198 -0.0402 -0.1727
 3687TIP3    H132552   2.625   2.363   1.898  0.0347  0.2376 -0.6328
 3687TIP3    H232553   2.637   2.326   2.044 -1.2604  2.0924 -0.0229
 3688TIP3   OH232554   3.884   4.423   1.471  0.0345  0.1575 -0.4084
 3688TIP3    H132555   3.962   4.369   1.470 -0.3962 -0.5010  0.5555
 3688TIP3    H232556   3.825   4.382   1.407  0.5176  0.7577 -1.2687
 3689TIP3   OH232557   6.321   1.510   3.862  0.4599  0.2828  0.6146
 3689TIP3    H132558   6.268   1.582   3.828 -1.3779 -0.0961  2.4308
 3689TIP3    H232559   6.384   1.491   3.792 -0.4515  2.1552 -0.8100
 3690TIP3   OH232560   1.988   0.091   1.571  0.1005  0.5702  0.0607
 3690TIP3    H132561   1.898   0.060   1.582 -0.5868  2.6303  0.7660
 3690TIP3    H232562   2.035   0.057   1.647 -0.3335  0.2985  0.2081
 3691TIP3   OH232563   4.071   2.621  11.874  0.2615 -0.0148  0.4169
 3691TIP3    H132564   4.109   2.617  11.787  0.6214 -0.5721  0.5890
 3691TIP3    H232565   4.116   2.695  11.916 -1.1527  1.3749 -0.4184
 3692TIP3   OH232566   6.107   0.202   4.117 -0.0291  0.1639 -0.1229
 3692TIP3    H132567   6.051   0.224   4.192  0.2960  0.7368 -0.0375
 3692TIP3    H232568   6.196   0.214   4.150  0.1136  0.4524 -0.6111
 3693TIP3   OH232569   0.319   0.170  15.507 -0.1192 -0.3963 -0.2060
 3693TIP3    H132570   0.396   0.224  15.493 -1.4595  1.3477 -1.3630
 3693TIP3    H232571   0.316   0.112  15.431 -0.5622  0.3626 -0.7835
 3694TIP3   OH232572   1.040   6.413  13.863 -0.2352  0.8051  0.0890
 3694TIP3    H132573   1.106   6.364  13.912 -0.4076  0.2182 -0.2544
 3694TIP3    H232574   0.956   6.381  13.896 -0.3610  1.8075  0.7780
 3695TIP3   OH232575   6.621   4.742  11.174 -0.0781  0.0675 -0.1841
 3695TIP3    H132576   6.577   4.799  11.237  0.8391  2.5253 -1.6325
 3695TIP3    H232577   6.712   4.769  11.177  0.0583  0.0166 -2.2579
 3696TIP3   OH232578   4.492   0.738  13.483  0.2034 -0.3374  0.3433
 3696TIP3    H132579   4.534   0.781  13.557 -0.2634 -0.1963  0.5238
 3696TIP3    H232580   4.516   0.646  13.492  2.5345  0.0606 -0.9075
 3697TIP3   OH232581   1.472   5.237  10.449 -0.4403  0.0390 -0.4430
 3697TIP3    H132582   1.566   5.237  10.432  0.0530 -1.6728  1.9085
 3697TIP3    H232583   1.440   5.157  10.407 -0.7459  0.2487 -0.6180
 3698TIP3   OH232584   5.556   1.267   1.996 -0.6296  0.4397  0.3476
 3698TIP3    H132585   5.632   1.255   2.053 -1.5861 -0.3076  1.5224
 3698TIP3    H232586   5.562   1.358   1.967  1.7537 -0.1017 -1.1871
 3699TIP3   OH232587   0.226   6.059  14.634 -0.1977 -0.2777 -0.0127
 3699TIP3    H132588   0.304   6.033  14.586  0.7552 -0.5412  1.5941
 3699TIP3    H232589   0.258   6.125  14.696 -1.6287  1.0346 -0.6214
 3700TIP3   OH232590   1.028   1.867  12.473  0.4836  0.8451  0.0600
 3700TIP3    H132591   1.046   1.780  12.438  1.2945  1.3853 -0.9668
 3700TIP3    H232592   1.001   1.918  12.396 -3.4766  0.6812  1.1607
 3701TIP3   OH232593   3.863   6.699   3.417 -0.1366 -0.6073  0.5360
 3701TIP3    H132594   3.808   6.770   3.449  0.4775  0.1322 -0.0235
 3701TIP3    H232595   3.865   6.636   3.489  0.7459  0.7391  1.7547
 3702TIP3   OH232596   4.249   0.514  11.674 -0.2740 -0.8858 -0.2233
 3702TIP3    H132597   4.181   0.521  11.606 -1.0231 -2.8700  0.2863
 3702TIP3    H232598   4.210   0.459  11.742  0.8043  0.3221  1.4490
 3703TIP3   OH232599   3.865   2.692   5.352  0.5963 -0.3184  0.1335
 3703TIP3    H132600   3.853   2.731   5.439 -2.0464  0.7628 -0.6279
 3703TIP3    H232601   3.951   2.723   5.324  0.7393  0.7594  1.6364
 3704TIP3   OH232602   5.520   0.604  12.092 -0.7233 -0.0056 -0.2512
 3704TIP3    H132603   5.538   0.512  12.109  0.2929 -0.0278 -1.3035
 3704TIP3    H232604   5.486   0.638  12.175  1.7002 -0.6446  1.0791
 3705TIP3   OH232605   2.458   3.702   0.813  0.3090 -0.5586 -0.1448
 3705TIP3    H132606   2.443   3.615   0.776 -2.6916  0.2468 -1.0998
 3705TIP3    H232607   2.436   3.762   0.742 -1.4017  1.0026  1.5794
 3706TIP3   OH232608   3.117   6.468   4.377 -0.0833  0.2095 -0.1041
 3706TIP3    H132609   3.083   6.401   4.436  0.7425 -0.5283 -0.4503
 3706TIP3    H232610   3.066   6.547   4.398 -1.9334 -0.8287 -0.5469
 3707TIP3   OH232611   0.268   4.656  15.021 -0.2763 -0.5440  0.1720
 3707TIP3    H132612   0.267   4.705  14.939  0.3905  0.8082  0.9326
 3707TIP3    H232613   0.324   4.707  15.079 -0.4138 -1.6737  1.3573
 3708TIP3   OH232614   3.188   6.023  16.284  0.4993 -0.0310 -0.0518
 3708TIP3    H132615   3.201   6.117  16.275  0.9047 -0.0234  0.5811
 3708TIP3    H232616   3.134   5.999  16.208 -0.5964  0.8987  0.4020
 3709TIP3   OH232617   0.398   0.957  14.740  0.1325  0.3167 -0.2060
 3709TIP3    H132618   0.459   1.023  14.707 -2.8981  1.6188 -3.8233
 3709TIP3    H232619   0.334   1.007  14.791 -1.0672 -0.0650 -1.2939
 3710TIP3   OH232620   6.424   2.404  15.878  0.4527 -0.4469  0.0877
 3710TIP3    H132621   6.440   2.454  15.798 -1.6273  2.2887  1.2181
 3710TIP3    H232622   6.510   2.391  15.916  1.3057 -0.1430 -1.6214
 3711TIP3   OH232623   2.751   5.915   3.790  0.6506  0.5094  0.1163
 3711TIP3    H132624   2.824   5.961   3.831  0.1836  0.4337  1.0666
 3711TIP3    H232625   2.789   5.876   3.711  1.2599  1.7625 -0.2326
 3712TIP3   OH232626   5.011   0.781   2.317  0.3250  0.3391 -0.5098
 3712TIP3    H132627   5.053   0.863   2.342 -0.5952  1.2971 -1.9322
 3712TIP3    H232628   5.008   0.783   2.221  0.7375 -1.6049 -0.6121
 3713TIP3   OH232629   6.288   2.492   1.736  0.3831  0.1573  0.4889
 3713TIP3    H132630   6.288   2.572   1.789 -1.7483  0.1451  0.6089
 3713TIP3    H232631   6.366   2.444   1.765  1.6056  2.0725  0.5367
 3714TIP3   OH232632   3.420   4.445  15.657 -0.1942  0.4583  0.4147
 3714TIP3    H132633   3.472   4.442  15.737 -0.6158  1.4268  0.7453
 3714TIP3    H232634   3.395   4.354  15.642 -1.5674  0.4386  2.3762
 3715TIP3   OH232635   1.051   6.612   6.318 -0.2891 -0.2121 -0.3238
 3715TIP3    H132636   1.049   6.651   6.230 -2.3549 -0.8380 -0.6299
 3715TIP3    H232637   0.966   6.569   6.326  1.0012 -2.7539  0.8493
 3716TIP3   OH232638   3.352   2.202  14.781  0.3408  0.9452  0.0132
 3716TIP3    H132639   3.317   2.116  14.757  1.8216  0.2767  0.1485
 3716TIP3    H232640   3.412   2.224  14.711 -0.7585  2.3678 -0.5337
 3717TIP3   OH232641   2.753   6.077   0.676 -0.7560 -0.0231 -0.1543
 3717TIP3    H132642   2.749   6.021   0.754 -0.4778 -0.5097 -0.4817
 3717TIP3    H232643   2.846   6.079   0.653 -0.5321  1.7959  0.7128
 3718TIP3   OH232644   4.980   2.535   1.660 -0.1814  0.4227 -0.0896
 3718TIP3    H132645   4.993   2.445   1.630 -0.8194  0.0774  0.6318
 3718TIP3    H232646   4.887   2.539   1.682 -0.0841  1.1660  0.2003
 3719TIP3   OH232647   6.778   1.636   3.049 -0.6677 -0.2974  0.2363
 3719TIP3    H132648   6.782   1.725   3.013  0.5472  0.0513  1.1899
 3719TIP3    H232649   6.731   1.586   2.982 -0.1948  0.7581 -0.9350
 3720TIP3   OH232650   0.664   0.981  16.758 -0.1060  0.6362  0.1283
 3720TIP3    H132651   0.594   0.997  16.693  1.6203  0.0373 -2.0085
 3720TIP3    H232652   0.704   1.066  16.772 -0.4548  0.7606  0.3786
 3721TIP3   OH232653   3.177   2.840   6.456 -0.3557  0.0493  0.1707
 3721TIP3    H132654   3.198   2.902   6.386 -2.8264  0.1572 -0.5720
 3721TIP3    H232655   3.193   2.754   6.417 -0.8836  0.1313 -0.2368
 3722TIP3   OH232656   1.804   6.211  12.167  0.3635  0.4696 -0.4267
 3722TIP3    H132657   1.788   6.145  12.100 -0.8532  1.0759 -0.7679
 3722TIP3    H232658   1.802   6.294  12.119 -0.8640  0.9447  0.3731
 3723TIP3   OH232659   6.810   2.398  12.455 -0.2999 -0.8008  0.3104
 3723TIP3    H132660   6.737   2.371  12.511 -0.5133  1.6119  1.3220
 3723TIP3    H232661   6.769   2.443  12.382  0.0057  3.3209  2.3643
 3724TIP3   OH232662   1.637   0.476   2.820 -0.3330  0.2127 -0.7025
 3724TIP3    H132663   1.573   0.407   2.836 -1.2788  1.3388  0.6936
 3724TIP3    H232664   1.698   0.469   2.894 -0.0922  0.5160 -0.8690
 3725TIP3   OH232665   1.051   5.950  13.886  0.1693 -0.2603 -0.6992
 3725TIP3    H132666   0.962   5.923  13.865  0.1349  0.2014 -1.1596
 3725TIP3    H232667   1.042   6.005  13.963 -0.0064  0.1937 -1.0370
 3726TIP3   OH232668   4.943   0.729  12.396  0.3212 -0.4375  0.2886
 3726TIP3    H132669   4.937   0.686  12.311  0.3442 -1.0268  0.5796
 3726TIP3    H232670   5.024   0.781  12.391  0.2026 -0.2892 -0.1268
 3727TIP3   OH232671   5.290   3.704   6.251  0.5080 -0.2503  0.7086
 3727TIP3    H132672   5.368   3.760   6.252 -0.4347  1.1187  0.9594
 3727TIP3    H232673   5.217   3.765   6.261 -0.6522 -1.4198 -0.2535
 3728TIP3   OH232674   0.663   1.058   0.251 -0.3644 -0.1888  0.6422
 3728TIP3    H132675   0.586   1.011   0.218 -0.9688  0.5567  0.9538
 3728TIP3    H232676   0.645   1.150   0.232 -0.2027  0.1420  1.9964
 3729TIP3   OH232677   2.244   3.496  16.110 -0.1461  0.3162  0.1644
 3729TIP3    H132678   2.310   3.538  16.055  0.0843  0.1594  0.3168
 3729TIP3    H232679   2.287   3.417  16.144 -0.8987 -0.5632 -0.8744
 3730TIP3   OH232680   3.175   2.944   6.858  0.0783  0.3340 -0.0940
 3730TIP3    H132681   3.191   3.032   6.824  1.2529  0.5004  0.8154
 3730TIP3    H232682   3.085   2.924   6.832 -1.2371  2.8775  1.9226
 3731TIP3   OH232683   0.871   1.981  12.282 -0.0730 -0.3816  0.7386
 3731TIP3    H132684   0.825   2.059  12.250  2.2241  0.2048 -1.4294
 3731TIP3    H232685   0.844   1.911  12.223  1.8736  0.0317 -0.7434
 3732TIP3   OH232686   0.799   1.235  11.928 -1.1003  0.8023 -0.2309
 3732TIP3    H132687   0.800   1.258  11.835 -0.7289 -2.5081 -1.1805
 3732TIP3    H232688   0.869   1.287  11.967  0.3676  0.5329 -2.3529
 3733TIP3   OH232689   5.602   1.460   0.148  0.6031 -0.2835 -0.3427
 3733TIP3    H132690   5.588   1.530   0.083  0.3279 -0.0676 -0.0506
 3733TIP3    H232691   5.607   1.506   0.232  0.4260 -0.6132 -0.1504
 3734TIP3   OH232692   0.315   1.918   0.373 -0.5208 -0.3119  0.0352
 3734TIP3    H132693   0.369   1.839   0.378  1.7922  1.1610 -0.0949
 3734TIP3    H232694   0.262   1.916   0.453  1.7390 -0.4943  1.6200
 3735TIP3   OH232695   0.143   0.083   1.281 -0.0316 -0.6584 -0.0239
 3735TIP3    H132696   0.078   0.137   1.325 -0.2296 -1.8096  1.1730
 3735TIP3    H232697   0.107  -0.006   1.285  1.6574 -1.3646  0.8442
 3736TIP3   OH232698   4.215   1.827  15.461  0.0630 -0.1885 -0.4334
 3736TIP3    H132699   4.300   1.785  15.444 -0.7415 -1.6104 -1.1210
 3736TIP3    H232700   4.216   1.906  15.407  0.4218 -0.9137 -1.5257
 3737TIP3   OH232701   0.587   5.509  15.470  0.2179  0.2351  0.8180
 3737TIP3    H132702   0.645   5.434  15.483  1.0390  0.5775 -0.6261
 3737TIP3    H232703   0.647   5.582  15.455 -0.5432  1.3548  2.7800
 3738TIP3   OH232704   6.816   5.847   2.747 -0.0100 -0.0637  0.1976
 3738TIP3    H132705   6.842   5.930   2.787 -0.6205 -0.1907  0.8746
 3738TIP3    H232706   6.766   5.872   2.670 -1.0219  0.2146  0.9363
 3739TIP3   OH232707   0.920   2.284   0.080  0.1269 -0.3261 -0.3550
 3739TIP3    H132708   0.876   2.206   0.114  1.3232 -1.5683 -1.5741
 3739TIP3    H232709   1.012   2.259   0.074  0.7815  1.6517  0.5177
 3740TIP3   OH232710   5.955   6.425   3.686  1.0014 -0.5495  0.0895
 3740TIP3    H132711   6.041   6.427   3.642  1.6036  0.4503  1.2440
 3740TIP3    H232712   5.943   6.515   3.718 -1.1080 -0.3246 -1.1709
 3741TIP3   OH232713   5.486   0.565  13.161 -0.3840 -0.3767 -0.0656
 3741TIP3    H132714   5.514   0.635  13.219  0.7207 -2.3783  1.9753
 3741TIP3    H232715   5.421   0.605  13.104 -2.4115  1.4744  3.2842
 3742TIP3   OH232716   4.261   2.601   4.676  0.0263  0.2431 -0.2897
 3742TIP3    H132717   4.303   2.527   4.722 -0.9931  1.1698  2.3206
 3742TIP3    H232718   4.323   2.673   4.687 -1.3513  1.1553  2.0479
 3743TIP3   OH232719   1.182   4.489  10.509 -0.9151 -0.1620 -0.5020
 3743TIP3    H132720   1.122   4.563  10.517  1.6824  1.8637  2.8788
 3743TIP3    H232721   1.200   4.462  10.599  0.1976 -3.3565 -1.5191
 3744TIP3   OH232722   0.488   3.490  14.132 -0.2334  0.1529 -0.3757
 3744TIP3    H132723   0.525   3.562  14.081  1.6514 -0.4731  0.0065
 3744TIP3    H232724   0.535   3.493  14.215 -0.8609 -0.8887  0.0342
 3745TIP3   OH232725   0.731   6.506  11.976  0.0533 -0.1562 -0.5402
 3745TIP3    H132726   0.820   6.528  11.953  0.3306  4.1038  3.2575
 3745TIP3    H232727   0.677   6.570  11.931 -0.4549  0.7793  1.3092
 3746TIP3   OH232728   2.054   4.064  13.545 -0.4228  0.2744 -0.0192
 3746TIP3    H132729   1.980   4.119  13.568 -0.1923  0.5604  0.0429
 3746TIP3    H232730   2.028   4.021  13.463 -0.1778  1.3016 -0.6503
 3747TIP3   OH232731   2.263   5.790  16.441 -0.5800 -0.2344 -0.0786
 3747TIP3    H132732   2.353   5.816  16.463 -0.0001 -1.5110 -0.8489
 3747TIP3    H232733   2.240   5.726  16.508 -1.3876  0.9624  0.8275
 3748TIP3   OH232734   6.325   0.515   1.199  0.2853  0.3325  0.0236
 3748TIP3    H132735   6.407   0.482   1.236 -0.1783  0.6253  1.3791
 3748TIP3    H232736   6.302   0.590   1.254 -1.1132 -0.0145 -0.0410
 3749TIP3   OH232737   5.647   2.005   1.407  0.4254 -0.0661 -0.8065
 3749TIP3    H132738   5.605   1.960   1.480  0.7074 -1.2453 -1.3545
 3749TIP3    H232739   5.604   2.091   1.405 -1.0696 -0.7736 -0.5651
 3750TIP3   OH232740   1.141   6.162   4.385  0.4949  0.2294 -0.2404
 3750TIP3    H132741   1.067   6.189   4.438  1.4403  0.8179  0.8427
 3750TIP3    H232742   1.107   6.156   4.296 -1.2972 -1.3938  0.4889
 3751TIP3   OH232743   1.765   2.209  14.189  0.8224 -0.1383 -0.5748
 3751TIP3    H132744   1.711   2.204  14.268  1.8568  0.4743  0.2015
 3751TIP3    H232745   1.816   2.290  14.200  1.6542 -0.5233 -1.4309
 3752TIP3   OH232746   5.879   1.616  13.013  0.0354  0.1016 -0.5453
 3752TIP3    H132747   5.868   1.710  13.003  0.3773  0.1423 -0.5710
 3752TIP3    H232748   5.917   1.587  12.930 -3.0030 -0.5746 -1.8300
 3753TIP3   OH232749   2.997   4.915  11.540 -0.3831  0.2530  0.4418
 3753TIP3    H132750   3.006   4.966  11.620  1.4032  1.0333 -0.2088
 3753TIP3    H232751   3.009   4.824  11.567 -3.4651  0.0618  1.5900
 3754TIP3   OH232752   4.417   6.789   5.988  0.0294  0.7374 -0.5034
 3754TIP3    H132753   4.510   6.791   6.011  0.2023 -0.9137 -0.9611
 3754TIP3    H232754   4.403   6.703   5.948 -2.0038  0.3687  0.8503
 3755TIP3   OH232755   6.165   3.107  16.468 -0.3818 -0.1443  0.0239
 3755TIP3    H132756   6.122   3.046  16.407 -0.3244 -0.8271  0.6435
 3755TIP3    H232757   6.225   3.157  16.413 -0.3239 -0.7522 -0.4856
 3756TIP3   OH232758   6.282   4.768   3.423  0.5007 -0.7943 -0.5254
 3756TIP3    H132759   6.363   4.752   3.472  0.9133 -0.0061 -0.9420
 3756TIP3    H232760   6.307   4.760   3.331  0.4679  0.9171 -0.7257
 3757TIP3   OH232761   3.683   2.430   1.830  0.1857 -0.2951  0.3099
 3757TIP3    H132762   3.639   2.487   1.893  1.8048 -0.6557  1.8571
 3757TIP3    H232763   3.774   2.428   1.858  0.5890 -2.0307 -0.9027
 3758TIP3   OH232764   3.619   2.220   2.217  0.1287  0.0567 -0.3788
 3758TIP3    H132765   3.708   2.252   2.201  1.5359 -2.7040  1.2238
 3758TIP3    H232766   3.586   2.278   2.286  1.3957  0.0429  0.2821
 3759TIP3   OH232767   5.684   5.740  11.300 -0.0644 -0.4504 -0.7982
 3759TIP3    H132768   5.723   5.658  11.331 -0.9530 -1.3245 -1.9038
 3759TIP3    H232769   5.591   5.719  11.286 -0.5546  1.0652 -0.0179
 3760TIP3   OH232770   5.079   0.736   5.249 -0.0096  0.4617  0.2701
 3760TIP3    H132771   5.173   0.729   5.267 -0.1779  0.9751  1.4259
 3760TIP3    H232772   5.063   0.669   5.183  0.8355 -0.9785  1.4536
 3761TIP3   OH232773   6.627   4.430   4.021 -0.1416  0.0108 -0.1915
 3761TIP3    H132774   6.695   4.475   4.072 -0.8255 -0.4060  1.1488
 3761TIP3    H232775   6.601   4.494   3.955  1.2020  0.3515 -0.4295
 3762TIP3   OH232776   1.075   2.559   0.092 -0.3880 -0.0405 -0.2244
 3762TIP3    H132777   1.080   2.549  -0.003  0.4636  0.2191 -0.2124
 3762TIP3    H232778   1.082   2.653   0.107  0.1563 -0.1317  0.1311
 3763TIP3   OH232779   5.460   0.713  12.634 -0.1298  0.3095 -0.8526
 3763TIP3    H132780   5.418   0.652  12.695  1.5627  1.1180  1.2478
 3763TIP3    H232781   5.435   0.681  12.547  0.2882 -3.1140  0.1288
 3764TIP3   OH232782   1.725   1.010   0.934 -0.2522  0.6943 -0.0180
 3764TIP3    H132783   1.649   0.956   0.915 -0.1864  0.5299  0.1776
 3764TIP3    H232784   1.765   0.969   1.011  0.6183  0.1775 -0.7392
 3765TIP3   OH232785   0.946   2.288  12.496 -0.0452  0.6818 -0.8091
 3765TIP3    H132786   1.010   2.218  12.509 -1.4182 -0.7845 -1.7038
 3765TIP3    H232787   0.881   2.275  12.565 -0.7271  0.5756 -1.4659
 3766TIP3   OH232788   3.134   4.388   0.500  0.5426 -0.5223 -0.1492
 3766TIP3    H132789   3.175   4.302   0.511 -1.4529 -1.5630 -0.1591
 3766TIP3    H232790   3.081   4.399   0.579  0.7085  0.6682 -0.1941
 3767TIP3   OH232791   5.930   0.133  12.305  0.0860  0.2745 -0.4567
 3767TIP3    H132792   5.970   0.114  12.220 -0.8517  0.7915 -1.0403
 3767TIP3    H232793   5.957   0.060  12.361 -1.3993 -1.5465 -1.9340
 3768TIP3   OH232794   5.204   6.159   3.744  0.2984  0.2086  0.3273
 3768TIP3    H132795   5.116   6.149   3.780 -0.1185  2.8165  0.2672
 3768TIP3    H232796   5.246   6.225   3.800  1.1659  1.1473 -1.3366
 3769TIP3   OH232797   6.755   4.613  14.086 -0.0978 -0.5371  0.3776
 3769TIP3    H132798   6.831   4.616  14.027 -0.6440  0.6036 -0.3106
 3769TIP3    H232799   6.711   4.697  14.072 -0.8868 -0.7220  1.5813
 3770TIP3   OH232800   2.752   1.224  16.537 -0.2335  0.4572  0.3318
 3770TIP3    H132801   2.799   1.149  16.500  0.5369  0.4261  1.3403
 3770TIP3    H232802   2.678   1.237  16.478  0.6390  0.0535 -0.8765
 3771TIP3   OH232803   4.713   6.817   6.155  0.3674  0.1149  0.7084
 3771TIP3    H132804   4.783   6.810   6.090  1.0445  0.5682  1.3813
 3771TIP3    H232805   4.695   6.726   6.179  0.2971 -0.0410  0.0864
 3772TIP3   OH232806   1.814   1.380   4.860  0.1231 -0.2665 -0.2514
 3772TIP3    H132807   1.759   1.457   4.872 -0.7259 -0.8496 -0.2639
 3772TIP3    H232808   1.856   1.367   4.944 -1.9392 -1.4191  0.6912
 3773TIP3   OH232809   3.298   0.987   4.662  0.3947  0.1814  0.4472
 3773TIP3    H132810   3.273   0.956   4.749 -0.8534 -0.1448 -0.0032
 3773TIP3    H232811   3.311   0.907   4.611 -0.1477  0.3696  0.0027
 3774TIP3   OH232812   2.086   5.554   4.289 -0.6104  0.4243 -0.1442
 3774TIP3    H132813   2.149   5.508   4.343 -0.4335 -0.0960 -0.7801
 3774TIP3    H232814   2.009   5.566   4.345 -0.6061 -0.5205  0.0749
 3775TIP3   OH232815   6.247   1.992  16.595 -0.5938  0.3545 -0.1465
 3775TIP3    H132816   6.216   1.999  16.505 -3.5190  0.8308  0.7761
 3775TIP3    H232817   6.249   1.898  16.612 -2.7493  0.2740  0.0197
 3776TIP3   OH232818   2.240   4.374  16.812  0.3436 -0.7011 -0.5179
 3776TIP3    H132819   2.162   4.401  16.861  0.7115 -2.0552  0.8957
 3776TIP3    H232820   2.267   4.292  16.854  1.0098 -1.6519 -2.6715
 3777TIP3   OH232821   0.791   5.648   5.911 -0.0850 -0.2999 -0.3767
 3777TIP3    H132822   0.735   5.698   5.971  1.9640  1.4427  0.2159
 3777TIP3    H232823   0.813   5.569   5.959 -1.1770 -0.5101 -0.2048
 3778TIP3   OH232824   1.077   0.310   1.788 -0.8043 -0.3655  0.2467
 3778TIP3    H132825   1.155   0.362   1.807 -0.0088 -0.8889 -1.3119
 3778TIP3    H232826   1.085   0.234   1.845 -0.1443 -0.4103  0.1121
 3779TIP3   OH232827   3.576   6.209   2.903  0.3706  0.3751  0.1206
 3779TIP3    H132828   3.537   6.153   2.836  1.1564  0.0764 -0.1115
 3779TIP3    H232829   3.663   6.171   2.916  0.1130  0.2411  1.5460
 3780TIP3   OH232830   2.279   6.003  12.449 -0.3178  0.2059  0.6724
 3780TIP3    H132831   2.365   6.044  12.437 -0.6534  0.2204 -2.4624
 3780TIP3    H232832   2.217   6.068  12.416 -1.1075 -1.4428 -1.3440
 3781TIP3   OH232833   2.789   2.436   3.244 -0.3968  0.1531 -0.1551
 3781TIP3    H132834   2.775   2.454   3.337  1.2095  0.1885  0.1150
 3781TIP3    H232835   2.758   2.515   3.199 -0.0347  0.6569  0.4581
 3782TIP3   OH232836   2.418   5.810  13.852 -0.4365  0.0770  0.1547
 3782TIP3    H132837   2.369   5.794  13.771  0.0334 -0.0762 -0.0977
 3782TIP3    H232838   2.374   5.886  13.891 -0.1357  0.6986 -0.6701
 3783TIP3   OH232839   4.416   1.992   0.637  0.2091  0.3342 -0.0388
 3783TIP3    H132840   4.353   1.948   0.580  0.4021  0.3188 -0.2398
 3783TIP3    H232841   4.384   1.974   0.725 -0.3705  0.7689 -0.1520
 3784TIP3   OH232842   0.145   1.438  15.708 -0.9378 -0.1036 -0.3298
 3784TIP3    H132843   0.169   1.346  15.719  0.1271  0.0740 -1.0570
 3784TIP3    H232844   0.149   1.453  15.613 -3.0669  0.1868 -0.4179
 3785TIP3   OH232845   0.922   6.044   3.816 -0.0404 -0.2807  0.0311
 3785TIP3    H132846   0.989   5.983   3.847 -0.9854 -1.2812  0.1645
 3785TIP3    H232847   0.906   6.018   3.725  1.3299  1.4049 -0.7600
 3786TIP3   OH232848   1.574   6.192   5.543  0.7047  0.1895 -0.3152
 3786TIP3    H132849   1.566   6.099   5.562 -0.3582  0.2409 -0.4537
 3786TIP3    H232850   1.517   6.234   5.608 -2.8290  0.4008 -3.2438
 3787TIP3   OH232851   0.877   5.449  14.672 -0.1258  0.2159 -0.3401
 3787TIP3    H132852   0.787   5.436  14.701 -0.7159 -0.3358 -2.2476
 3787TIP3    H232853   0.906   5.361  14.645 -0.0878  0.8193 -2.4674
 3788TIP3   OH232854   0.836   5.908  15.213 -0.2123 -0.2717  0.0717
 3788TIP3    H132855   0.868   5.956  15.137 -1.9862  2.4913  0.9312
 3788TIP3    H232856   0.760   5.860  15.180 -1.4963  1.5929  0.1982
 3789TIP3   OH232857   4.410   3.895  12.876  0.3607  0.0555 -0.3921
 3789TIP3    H132858   4.400   3.942  12.959 -1.5937 -0.4786 -0.2769
 3789TIP3    H232859   4.379   3.957  12.810 -2.1113 -0.9278 -0.2517
 3790TIP3   OH232860   1.495   1.632   4.275  0.4912  0.3743 -0.4893
 3790TIP3    H132861   1.455   1.640   4.362 -1.2494 -1.3437 -1.0633
 3790TIP3    H232862   1.574   1.580   4.291 -0.5508 -1.1667 -0.0582
 3791TIP3   OH232863   5.779   0.444   4.093 -0.0466 -0.5068 -0.4048
 3791TIP3    H132864   5.833   0.516   4.127 -1.1120  1.9345 -3.3543
 3791TIP3    H232865   5.839   0.394   4.037  0.0578 -0.0974 -0.6655
 3792TIP3   OH232866   5.925   2.744   5.551 -0.6119 -0.1788  0.7637
 3792TIP3    H132867   5.973   2.759   5.470 -1.1977  0.4562  0.5167
 3792TIP3    H232868   5.931   2.650   5.566 -0.7400 -0.3475 -0.1750
 3793TIP3   OH232869   4.567   3.117  14.965  0.2125 -0.0808 -0.9604
 3793TIP3    H132870   4.560   3.177  14.891  1.7999  1.9679  0.4365
 3793TIP3    H232871   4.659   3.093  14.968  0.3425  0.4826  0.7485
 3794TIP3   OH232872   1.614   5.180   3.641 -0.1539 -0.2092 -0.8707
 3794TIP3    H132873   1.641   5.133   3.719 -2.3910  2.2702  1.6338
 3794TIP3    H232874   1.543   5.128   3.604 -0.5188 -0.3571  0.0278
 3795TIP3   OH232875   2.459   4.979  15.426 -0.4683  0.0872  0.1624
 3795TIP3    H132876   2.392   4.936  15.374 -0.0190  0.0380 -0.3851
 3795TIP3    H232877   2.426   5.068  15.439 -0.2029  0.3656 -0.9429
 3796TIP3   OH232878   1.335   0.693   0.249  0.3993  0.3140 -0.4288
 3796TIP3    H132879   1.245   0.699   0.280  0.3073  0.9939 -0.7962
 3796TIP3    H232880   1.388   0.680   0.328 -0.1035 -1.1269 -0.3058
 3797TIP3   OH232881   0.378   0.184  13.345  0.0975  0.0611 -0.1002
 3797TIP3    H132882   0.417   0.265  13.376 -0.1940 -0.2907  1.2289
 3797TIP3    H232883   0.302   0.213  13.293  0.1285  0.6427  0.1700
 3798TIP3   OH232884   3.494   1.696  16.363 -0.5610  0.5570 -0.0732
 3798TIP3    H132885   3.520   1.658  16.447 -0.5920  0.6454 -0.0238
 3798TIP3    H232886   3.435   1.769  16.387 -0.4226  0.6980 -0.1652
 3799TIP3   OH232887   0.795   3.917   4.438  0.0435 -0.0457  0.2817
 3799TIP3    H132888   0.710   3.874   4.433  0.4784 -1.0543  1.2634
 3799TIP3    H232889   0.856   3.854   4.399  0.1181  1.4540 -2.2545
 3800TIP3   OH232890   2.675   0.860   3.493 -0.2465 -0.1571 -0.5409
 3800TIP3    H132891   2.628   0.785   3.530 -2.9154  1.0729 -1.1632
 3800TIP3    H232892   2.672   0.926   3.563  0.2746  0.0578 -0.7225
 3801TIP3   OH232893   5.486   6.644  11.215 -0.0504 -0.0820 -0.1554
 3801TIP3    H132894   5.571   6.622  11.252 -0.0754 -1.9896 -1.0834
 3801TIP3    H232895   5.437   6.683  11.288  1.7513  1.5365  0.2450
 3802TIP3   OH232896   1.047   6.549  12.321 -0.7708  0.5759 -0.1345
 3802TIP3    H132897   0.973   6.569  12.379 -1.6697  1.3179 -1.4923
 3802TIP3    H232898   1.032   6.459  12.294  0.3196 -0.2114  1.6866
 3803TIP3   OH232899   1.995   5.154   3.646 -0.4869 -0.5521  0.0939
 3803TIP3    H132900   2.059   5.192   3.587  0.1457 -0.2228  0.9674
 3803TIP3    H232901   2.028   5.066   3.665 -1.1650 -1.0050 -0.7384
 3804TIP3   OH232902   2.968   0.920   0.326  0.2035 -0.4280  0.1649
 3804TIP3    H132903   2.961   0.976   0.249 -1.8729 -0.2267  0.4623
 3804TIP3    H232904   3.047   0.867   0.310  1.0791  1.1670 -1.0217
 3805TIP3   OH232905   3.813   1.160  11.303  0.5118 -0.1519  0.3550
 3805TIP3    H132906   3.880   1.217  11.266  1.8207 -0.4148  2.1394
 3805TIP3    H232907   3.802   1.090  11.238 -0.4943  1.5929 -1.4613
 3806TIP3   OH232908   4.235   0.701   2.022 -0.4739 -0.2480 -0.1098
 3806TIP3    H132909   4.241   0.734   2.112 -1.7790  2.3926 -0.8938
 3806TIP3    H232910   4.145   0.669   2.014 -0.4947 -0.0828 -0.5798
 3807TIP3   OH232911   3.209   5.476   0.565  0.3820  0.5577  0.2541
 3807TIP3    H132912   3.115   5.462   0.564  0.2468  1.4091  0.4734
 3807TIP3    H232913   3.232   5.499   0.475  0.0920  2.1296  0.5674
 3808TIP3   OH232914   6.649   0.662   5.856  0.0688  0.7326  0.7983
 3808TIP3    H132915   6.736   0.696   5.836  0.5767 -0.3622  1.0647
 3808TIP3    H232916   6.648   0.656   5.952 -0.3210  0.7659  0.7970
 3809TIP3   OH232917   6.353   1.344   5.311  0.2486  0.4225 -0.2150
 3809TIP3    H132918   6.285   1.315   5.372  0.1410  2.3220  0.6318
 3809TIP3    H232919   6.433   1.304   5.344  0.2758  1.7741  1.5019
 3810TIP3   OH232920   5.722   6.031   1.101  0.4833 -0.2010  0.2609
 3810TIP3    H132921   5.745   6.097   1.167  1.2230  0.2737 -0.4532
 3810TIP3    H232922   5.776   6.054   1.025 -0.8598 -0.3118 -0.7529
 3811TIP3   OH232923   1.844   0.196  15.794  0.2348 -0.2219 -0.3789
 3811TIP3    H132924   1.845   0.261  15.864 -2.9692 -0.3658 -0.0332
 3811TIP3    H232925   1.818   0.115  15.839 -0.1753 -0.7025 -1.4609
 3812TIP3   OH232926   0.654   4.105  15.485 -0.4023  0.3616 -0.0134
 3812TIP3    H132927   0.684   4.017  15.505 -1.4394 -0.0426 -0.1743
 3812TIP3    H232928   0.708   4.133  15.412  1.8253  0.9518  1.7367
 3813TIP3   OH232929   4.616   2.198   2.522  0.4099 -0.0873  0.0560
 3813TIP3    H132930   4.554   2.128   2.545  1.6679 -1.0237  0.7523
 3813TIP3    H232931   4.662   2.165   2.446 -0.8998  1.2477 -1.3963
 3814TIP3   OH232932   5.226   1.142   3.375  0.0512 -0.1093 -0.3112
 3814TIP3    H132933   5.286   1.073   3.403 -0.1444 -0.9100 -1.7681
 3814TIP3    H232934   5.256   1.165   3.287 -0.9649  0.4142 -0.5324
 3815TIP3   OH232935   4.308   4.817  13.157 -0.1672  0.0827  0.2580
 3815TIP3    H132936   4.335   4.843  13.069 -0.9457 -0.0343 -0.0250
 3815TIP3    H232937   4.378   4.849  13.214  0.4745 -0.0702 -0.4272
 3816TIP3   OH232938   6.100   5.824   4.970  0.2359  0.5523  0.3208
 3816TIP3    H132939   6.058   5.798   4.888 -0.7952 -2.3686  1.6199
 3816TIP3    H232940   6.176   5.767   4.978  0.5963  1.1243  1.1856
 3817TIP3   OH232941   1.527   6.052  17.132  0.4900 -0.2052 -0.1172
 3817TIP3    H132942   1.444   6.064  17.085  0.8726 -0.3418 -0.8370
 3817TIP3    H232943   1.562   5.969  17.098  1.1763  0.1160 -0.2056
 3818TIP3   OH232944   4.162   2.110  13.500 -0.0652  0.3560 -0.3846
 3818TIP3    H132945   4.217   2.069  13.567  0.1048  0.6324 -0.3542
 3818TIP3    H232946   4.073   2.103  13.534 -0.0274  0.0787 -0.3446
 3819TIP3   OH232947   5.650   0.363  14.582 -0.6677  0.0039  0.1189
 3819TIP3    H132948   5.601   0.443  14.561 -1.2563 -0.0569  1.1822
 3819TIP3    H232949   5.697   0.342  14.502 -1.5418  0.6824 -0.5959
 3820TIP3   OH232950   1.866   5.205   5.662  0.1963 -0.5387 -0.6374
 3820TIP3    H132951   1.954   5.218   5.695 -0.2842  0.3332  0.3377
 3820TIP3    H232952   1.855   5.110   5.659  0.2299 -0.6706  1.8642
 3821TIP3   OH232953   3.644   3.157   5.468  0.9303  0.4084  0.4553
 3821TIP3    H132954   3.737   3.145   5.454  1.3162  1.2292  1.9836
 3821TIP3    H232955   3.633   3.148   5.563 -0.4329  0.9101  0.3695
 3822TIP3   OH232956   2.126   1.718  16.361 -0.3489 -0.0438  0.0763
 3822TIP3    H132957   2.096   1.787  16.302 -1.6279 -0.9457 -0.3816
 3822TIP3    H232958   2.187   1.666  16.309  0.8836  0.9081  0.5291
 3823TIP3   OH232959   3.695   4.280  13.901  0.0528 -0.3709  0.3959
 3823TIP3    H132960   3.676   4.354  13.843 -1.5055 -0.3588  0.8599
 3823TIP3    H232961   3.724   4.210  13.842  2.3766  0.8126  0.0368
 3824TIP3   OH232962   1.860   2.694  16.309 -0.4833  0.3586 -0.2559
 3824TIP3    H132963   1.875   2.788  16.313  1.8928  0.0357  0.5569
 3824TIP3    H232964   1.799   2.676  16.380 -1.2993  1.3246 -0.7027
 3825TIP3   OH232965   3.566   4.686  15.232  0.4146 -0.3897  0.3651
 3825TIP3    H132966   3.482   4.651  15.203  0.1212  1.3736 -1.0547
 3825TIP3    H232967   3.542   4.760  15.289  0.9053  1.3801 -1.6020
 3826TIP3   OH232968   1.112   1.735   4.487  0.0397  0.3356  0.3345
 3826TIP3    H132969   1.110   1.787   4.407  0.9958  0.5492  0.4400
 3826TIP3    H232970   1.037   1.675   4.478 -0.1574  0.6846 -0.4862
 3827TIP3   OH232971   6.047   2.687  12.377  0.4573 -0.4151 -0.4787
 3827TIP3    H132972   6.026   2.723  12.463 -0.7431 -0.5103 -0.7131
 3827TIP3    H232973   6.137   2.655  12.385  1.4627  2.1906 -0.1215
 3828TIP3   OH232974   4.160   5.230   1.765  0.6598  0.4410  0.2364
 3828TIP3    H132975   4.069   5.203   1.751  0.9898  0.0938 -1.4203
 3828TIP3    H232976   4.175   5.215   1.858 -1.0823  0.8661  0.6330
 3829TIP3   OH232977   0.700   5.994  11.939 -0.1878 -0.8763  0.3349
 3829TIP3    H132978   0.764   5.923  11.944  1.4006  0.3720 -0.9277
 3829TIP3    H232979   0.702   6.035  12.025  2.1868  0.2752 -0.1693
 3830TIP3   OH232980   3.651   2.670   5.978 -0.2174  0.4639 -0.3033
 3830TIP3    H132981   3.680   2.749   6.024  2.1865 -1.4738  1.7755
 3830TIP3    H232982   3.565   2.651   6.016  0.3085  0.6934  1.0642
 3831TIP3   OH232983   0.489   6.604   1.053 -0.1834  0.5123 -0.2797
 3831TIP3    H132984   0.521   6.673   0.994 -1.7201  1.4415 -0.0734
 3831TIP3    H232985   0.433   6.650   1.116 -1.7285 -0.9776 -0.4943
 3832TIP3   OH232986   4.255   0.035   2.644  0.2808  0.8470 -0.1307
 3832TIP3    H132987   4.323   0.063   2.584  1.3459 -1.3639 -0.0488
 3832TIP3    H232988   4.212  -0.038   2.600  0.5743 -0.3142  1.4049
 3833TIP3   OH232989   2.486   3.190  15.906  0.2054 -0.0078 -0.0108
 3833TIP3    H132990   2.408   3.137  15.886 -0.3519  1.3128 -1.5302
 3833TIP3    H232991   2.504   3.172  15.999 -0.7703 -1.7754 -0.1170
 3834TIP3   OH232992   1.370   1.313   5.516  0.1208 -0.2709 -0.0948
 3834TIP3    H132993   1.461   1.321   5.490  0.0225 -0.0578 -0.3709
 3834TIP3    H232994   1.331   1.398   5.497  0.3014  0.2831  1.7658
 3835TIP3   OH232995   2.213   4.105   4.919 -0.6692 -0.1831 -0.0567
 3835TIP3    H132996   2.254   4.042   4.858  0.3512 -1.4958  1.8729
 3835TIP3    H232997   2.148   4.151   4.866 -0.1720 -1.5995 -2.0108
 3836TIP3   OH232998   5.881   0.282   1.624 -0.1378 -0.0910  0.3203
 3836TIP3    H132999   5.797   0.273   1.579  0.6734 -1.1785 -1.0777
 3836TIP3    H233000   5.912   0.192   1.635  1.2785  0.3140 -0.0991
 3837TIP3   OH233001   6.391   2.443   2.761  0.8846 -0.2759  0.0655
 3837TIP3    H133002   6.448   2.499   2.709  1.0663 -0.8944 -0.4126
 3837TIP3    H233003   6.380   2.490   2.844 -2.4735  2.6410 -1.7704
 3838TIP3   OH233004   4.398   0.617   6.011 -0.2770  0.0098  0.1227
 3838TIP3    H133005   4.399   0.547   6.077  1.6646 -0.3829 -0.2632
 3838TIP3    H233006   4.447   0.689   6.051 -0.4261  0.3525 -0.3016
 3839TIP3   OH233007   2.528   5.971  15.959 -0.1577  0.8883 -0.0648
 3839TIP3    H133008   2.460   5.913  15.993 -1.2024  2.2506  0.2790
 3839TIP3    H233009   2.490   6.008  15.879  0.3854  1.2918 -0.1408
 3840TIP3   OH233010   0.983   4.407  10.920  0.3001 -0.1622  0.6832
 3840TIP3    H133011   1.052   4.375  10.862  2.4003  3.2683  0.9982
 3840TIP3    H233012   1.022   4.405  11.007 -0.0767  1.5295  0.9201
 3841TIP3   OH233013   2.273   1.656   0.702 -0.4395 -0.1237  0.6620
 3841TIP3    H133014   2.291   1.618   0.788 -1.3685 -0.6482  0.6317
 3841TIP3    H233015   2.246   1.746   0.720 -1.9165 -0.6276  1.0289
 3842TIP3   OH233016   3.668   5.228  14.879  0.3396 -0.4909 -0.0184
 3842TIP3    H133017   3.692   5.280  14.955 -0.7447  1.0097 -0.6599
 3842TIP3    H233018   3.719   5.264  14.807 -0.2615 -0.4389 -0.4294
 3843TIP3   OH233019   1.038   6.714  13.260 -0.4372 -0.0537  0.3999
 3843TIP3    H133020   1.120   6.737  13.304 -0.9806  0.6651  1.0387
 3843TIP3    H233021   1.030   6.779  13.190  0.4585 -1.2317 -0.8543
 3844TIP3   OH233022   6.448   5.333  14.081 -0.5849  0.0535  0.3784
 3844TIP3    H133023   6.539   5.305  14.079 -0.1823  1.2827 -0.1234
 3844TIP3    H233024   6.452   5.428  14.094 -1.8016  0.0918  0.6621
 3845TIP3   OH233025   1.062   3.372  14.921  0.0757 -0.2812 -0.3545
 3845TIP3    H133026   1.113   3.439  14.967  0.7682 -0.1207 -1.3179
 3845TIP3    H233027   0.997   3.421  14.871 -0.1569 -0.4042 -0.1739
 3846TIP3   OH233028   1.134   6.710   4.026 -0.4741  0.0748  0.7926
 3846TIP3    H133029   1.103   6.791   4.065  0.1129  0.6279  0.1336
 3846TIP3    H233030   1.055   6.669   3.991 -0.9638 -0.2702  2.2148
 3847TIP3   OH233031   1.463   2.037  14.059  0.4751  0.3143 -0.6164
 3847TIP3    H133032   1.502   2.125  14.061  0.7561  0.1886 -0.4837
 3847TIP3    H233033   1.423   2.027  14.146  1.8801 -0.3232 -0.0075
 3848TIP3   OH233034   5.090   3.806   1.635  0.0208 -0.1924  0.2130
 3848TIP3    H133035   5.122   3.790   1.724 -1.5717  2.6001  1.4478
 3848TIP3    H233036   5.000   3.774   1.635  0.9558 -3.1675 -1.5424
 3849TIP3   OH233037   1.206   6.230  13.231 -0.0661  0.2253  0.2956
 3849TIP3    H133038   1.179   6.305  13.179 -0.8354  0.0472  0.4256
 3849TIP3    H233039   1.177   6.154  13.181 -1.2693  0.0608  1.2114
 3850TIP3   OH233040   4.598   0.162  10.823 -0.2197 -0.6854 -0.6110
 3850TIP3    H133041   4.629   0.086  10.773 -0.9898 -0.7335 -1.0256
 3850TIP3    H233042   4.635   0.149  10.911  4.3148  1.2612 -1.9078
 3851TIP3   OH233043   0.603   2.246   4.518  0.0077 -0.1587 -0.6611
 3851TIP3    H133044   0.515   2.283   4.524  0.6778  1.3018  0.5684
 3851TIP3    H233045   0.589   2.151   4.518 -1.4748  0.0028  1.5057
 3852TIP3   OH233046   1.564   5.473   4.312  0.1994 -0.5476  0.0964
 3852TIP3    H133047   1.520   5.465   4.227 -0.3231 -0.2991  0.3363
 3852TIP3    H233048   1.652   5.504   4.291  0.3000 -1.1552 -0.4008
 3853TIP3   OH233049   3.507   2.009  12.985 -0.3955 -0.3481 -0.3662
 3853TIP3    H133050   3.539   2.057  12.908  0.5928 -0.0942  0.1731
 3853TIP3    H233051   3.567   1.935  12.993 -0.1301 -0.0539  0.4791
 3854TIP3   OH233052   0.495   1.603  16.567 -0.0327 -0.1967  0.0373
 3854TIP3    H133053   0.455   1.630  16.484 -1.2380 -1.3311  0.2120
 3854TIP3    H233054   0.453   1.657  16.633 -0.0339 -0.2063  0.0443
 3855TIP3   OH233055   1.956   5.056  13.931  0.4871  0.0634 -0.6503
 3855TIP3    H133056   1.957   5.131  13.872  0.5271 -0.2372 -1.0295
 3855TIP3    H233057   1.953   4.979  13.874 -2.8559 -0.2106 -0.3031
 3856TIP3   OH233058   3.725   3.445  12.562 -0.2100  0.2782 -0.3122
 3856TIP3    H133059   3.709   3.500  12.485  2.8921  0.2702 -1.0771
 3856TIP3    H233060   3.701   3.357  12.534 -1.8057  0.6717 -0.2719
 3857TIP3   OH233061   5.449   0.587  16.299 -0.3556 -0.0479  0.2037
 3857TIP3    H133062   5.400   0.593  16.381 -0.4566  0.8352  0.0910
 3857TIP3    H233063   5.393   0.629  16.234 -1.7148 -3.4328 -1.0533
 3858TIP3   OH233064   5.758   1.267  10.930  0.0606  0.1942 -0.3731
 3858TIP3    H133065   5.753   1.173  10.946  0.9374  0.0982 -0.5661
 3858TIP3    H233066   5.720   1.307  11.008 -0.9739 -0.3230 -0.5991
 3859TIP3   OH233067   3.232   0.310  12.729  0.4472 -0.1841  0.0751
 3859TIP3    H133068   3.160   0.367  12.756  0.6925 -1.0090  2.8577
 3859TIP3    H233069   3.192   0.250  12.666 -1.0254  0.1438  0.6450
 3860TIP3   OH233070   3.799   1.389   3.174  0.2858  0.0099  0.2523
 3860TIP3    H133071   3.843   1.397   3.090 -1.0888 -1.3191 -0.6520
 3860TIP3    H233072   3.829   1.305   3.208 -0.2358 -0.1179  0.4102
 3861TIP3   OH233073   0.897   5.312   3.224 -0.4060 -0.4419 -0.2348
 3861TIP3    H133074   0.982   5.276   3.200 -0.2842 -0.7286  0.6011
 3861TIP3    H233075   0.918   5.396   3.265 -0.3731 -1.2399  1.4804
 3862TIP3   OH233076   3.363   3.973   6.204 -0.1503 -0.1647  0.4025
 3862TIP3    H133077   3.309   3.895   6.191 -0.9338  0.0655  2.0227
 3862TIP3    H233078   3.321   4.040   6.149 -1.0244 -0.2095  1.0059
 3863TIP3   OH233079   4.276   3.754   4.301 -0.0274  0.4262  0.2275
 3863TIP3    H133080   4.193   3.713   4.327  0.1817 -0.1494  0.0032
 3863TIP3    H233081   4.318   3.689   4.245  0.5769  0.7153  0.3401
 3864TIP3   OH233082   5.792   3.942  13.435  0.4402 -0.3967  1.5445
 3864TIP3    H133083   5.716   4.000  13.442  2.2569  2.2837  1.0428
 3864TIP3    H233084   5.841   3.976  13.360  1.8695 -2.3489  1.5204
 3865TIP3   OH233085   4.279   1.540  15.759  0.7097 -0.3784 -0.0344
 3865TIP3    H133086   4.183   1.544  15.756  0.7246 -0.1400 -2.8043
 3865TIP3    H233087   4.307   1.577  15.675  3.1573 -2.5798 -0.3031
 3866TIP3   OH233088   4.178   5.322  12.340 -0.5374 -0.0172  0.4885
 3866TIP3    H133089   4.168   5.243  12.287 -1.7748 -0.4573  1.3118
 3866TIP3    H233090   4.111   5.313  12.408 -0.9374  1.9034  0.4104
 3867TIP3   OH233091   4.207   1.377   5.928 -0.0525  0.1014 -0.4478
 3867TIP3    H133092   4.238   1.287   5.920  0.6835  0.1731  1.0928
 3867TIP3    H233093   4.195   1.389   6.023  1.5914  2.1596 -0.4427
 3868TIP3   OH233094   5.231   0.836   4.375 -0.0027  0.3174  0.1123
 3868TIP3    H133095   5.260   0.873   4.458 -0.5879  0.6410  0.1751
 3868TIP3    H233096   5.311   0.828   4.323  0.5047 -0.7229  1.0223
 3869TIP3   OH233097   5.848   1.153   5.613 -0.1087  0.1961 -0.1655
 3869TIP3    H133098   5.766   1.119   5.577 -1.3564  1.1055  1.6605
 3869TIP3    H233099   5.915   1.091   5.583 -1.9444 -2.7194  1.2741
 3870TIP3   OH233100   3.301   1.048   0.000 -0.0357  0.0838 -0.0179
 3870TIP3    H133101   3.358   1.049  -0.077  2.0585 -0.8954  1.4248
 3870TIP3    H233102   3.358   1.020   0.072 -2.1678 -0.1098  1.7006
 3871TIP3   OH233103   6.316   4.717  11.609 -0.1350 -0.3338 -0.5173
 3871TIP3    H133104   6.316   4.632  11.564  0.8462 -0.4112 -0.3886
 3871TIP3    H233105   6.274   4.700  11.693  0.2121 -0.7230 -0.4244
 3872TIP3   OH233106   4.602   0.745   4.346  0.4575  0.1272 -0.4886
 3872TIP3    H133107   4.525   0.689   4.333  0.7980 -0.4296 -0.0949
 3872TIP3    H233108   4.592   0.814   4.280 -1.9669  1.8034  1.4487
 3873TIP3   OH233109   3.742   4.825  11.836 -0.1670  0.6299 -0.1541
 3873TIP3    H133110   3.837   4.822  11.852 -0.0914 -0.9116 -0.7002
 3873TIP3    H233111   3.704   4.842  11.923  0.5887  0.5954  0.1944
 3874TIP3   OH233112   1.368   5.043   2.453  0.3034 -0.0740 -0.1326
 3874TIP3    H133113   1.315   5.050   2.533 -1.2378 -1.9494 -0.9086
 3874TIP3    H233114   1.364   5.130   2.414 -0.5241  0.3640  0.8771
 3875TIP3   OH233115   2.652   5.055   4.004 -0.3147  0.2601 -0.1930
 3875TIP3    H133116   2.696   5.099   4.077 -0.5361 -0.6420  0.5025
 3875TIP3    H233117   2.723   5.018   3.952 -0.1523  0.9692 -0.4897
 3876TIP3   OH233118   3.164   1.206   1.049  0.2063 -0.1338 -0.3175
 3876TIP3    H133119   3.144   1.217   1.142  2.3380 -1.4857  0.3671
 3876TIP3    H233120   3.117   1.127   1.023 -0.6855  0.4451 -0.5252
 3877TIP3   OH233121   0.904   1.861  14.044  0.5604 -0.4919  0.1168
 3877TIP3    H133122   0.913   1.878  13.950 -1.1058 -2.2475 -0.4364
 3877TIP3    H233123   0.992   1.841  14.074  0.7473 -3.1377 -1.8269
 3878TIP3   OH233124   0.259   6.685   1.716 -0.3451  0.1267  0.1858
 3878TIP3    H133125   0.195   6.727   1.774  2.1284  1.6133  2.0631
 3878TIP3    H233126   0.296   6.757   1.665 -0.0550 -0.6601 -0.7385
 3879TIP3   OH233127   5.289   4.443   3.147  0.0784 -0.4224  0.1310
 3879TIP3    H133128   5.202   4.472   3.175  0.1589  0.5486 -0.5708
 3879TIP3    H233129   5.293   4.465   3.054  0.4831 -1.9293 -0.2382
 3880TIP3   OH233130   0.500   5.846  13.181  0.2738 -0.6191 -0.1893
 3880TIP3    H133131   0.433   5.855  13.249 -1.5742 -0.8622 -1.8858
 3880TIP3    H233132   0.547   5.766  13.205 -0.4320 -0.7791  0.7313
 3881TIP3   OH233133   3.607   6.091   5.514 -0.0076  0.1130  0.6632
 3881TIP3    H133134   3.668   6.022   5.487  1.4401  0.5327  2.6092
 3881TIP3    H233135   3.545   6.098   5.442  1.3120 -1.4457 -0.7093
 3882TIP3   OH233136   2.460   5.747  16.658 -0.4045  0.2009 -0.6452
 3882TIP3    H133137   2.408   5.674  16.692 -3.3015  1.4908 -1.9384
 3882TIP3    H233138   2.477   5.802  16.734  0.3900 -0.9592  0.0479
 3883TIP3   OH233139   0.579   1.172  13.667 -0.2633  0.7177 -0.4727
 3883TIP3    H133140   0.620   1.206  13.587 -0.1232  1.0932 -0.2472
 3883TIP3    H233141   0.532   1.247  13.703 -3.8511 -0.3732 -2.3473
 3884TIP3   OH233142   1.977   3.499  10.406  0.0301  0.3240  0.1134
 3884TIP3    H133143   1.989   3.431  10.341  3.3627  1.4359 -0.6007
 3884TIP3    H233144   2.032   3.473  10.479 -0.6412  1.0234  0.8959
 3885TIP3   OH233145   6.669   5.532  13.440 -0.5090  0.1177 -0.6254
 3885TIP3    H133146   6.674   5.618  13.483 -1.2718  0.0505 -0.3880
 3885TIP3    H233147   6.577   5.507  13.447 -0.1609 -1.0706 -0.0212
 3886TIP3   OH233148   2.910   0.836   5.730 -0.4622  0.0163 -0.5151
 3886TIP3    H133149   3.001   0.804   5.727  0.3905  2.0799  0.8248
 3886TIP3    H233150   2.871   0.789   5.804 -0.1588 -0.1328 -0.4469
 3887TIP3   OH233151   2.403   3.467   1.945 -0.1249  0.0035 -0.0453
 3887TIP3    H133152   2.395   3.534   2.012 -0.8881 -2.4480  2.5330
 3887TIP3    H233153   2.330   3.484   1.885  0.3005  1.9816 -0.0647
 3888TIP3   OH233154   5.659   6.010  11.325  0.0922  0.2042  0.3299
 3888TIP3    H133155   5.669   5.916  11.309 -0.5135 -0.0426  1.3463
 3888TIP3    H233156   5.587   6.037  11.268 -1.0004 -0.3446  1.4267
 3889TIP3   OH233157   5.787   1.844  14.845 -0.0919  0.0883  0.0536
 3889TIP3    H133158   5.806   1.751  14.837 -1.3362 -0.1904  0.2112
 3889TIP3    H233159   5.843   1.885  14.778 -0.2763 -0.8634 -0.7170
 3890TIP3   OH233160   3.215   1.696  16.154  0.1577  0.5184  0.1553
 3890TIP3    H133161   3.162   1.673  16.077  1.0392  0.4812 -0.4530
 3890TIP3    H233162   3.174   1.648  16.226 -0.8073  0.7149 -0.2425
 3891TIP3   OH233163   6.771   3.905  11.456  0.0406 -0.2071 -0.0228
 3891TIP3    H133164   6.707   3.872  11.393  0.5237  0.7440 -1.0585
 3891TIP3    H233165   6.783   3.997  11.431  2.3328 -0.5375 -0.3249
 3892TIP3   OH233166   1.516   5.582   1.008  0.7789 -0.3664  0.1742
 3892TIP3    H133167   1.512   5.570   1.102  0.0662 -2.3906 -0.0651
 3892TIP3    H233168   1.425   5.589   0.980  1.0153  2.7634 -0.1605
 3893TIP3   OH233169   6.373   4.914  15.334 -0.6931 -0.1310  0.2013
 3893TIP3    H133170   6.281   4.909  15.360 -1.2425  0.7965 -1.4234
 3893TIP3    H233171   6.394   4.827  15.301 -1.2601 -0.1002 -0.2415
 3894TIP3   OH233172   2.765   1.059   5.725  0.3646  0.3021 -0.5847
 3894TIP3    H133173   2.684   1.036   5.679 -0.0803  1.7156 -0.5583
 3894TIP3    H233174   2.812   0.977   5.734 -0.6427 -0.3888 -1.4470
 3895TIP3   OH233175   2.472   2.763  13.744  0.0391 -0.2329  0.0933
 3895TIP3    H133176   2.483   2.669  13.729 -0.2226 -0.3265  0.4728
 3895TIP3    H233177   2.523   2.805  13.674  0.7293 -0.6521  0.3391
 3896TIP3   OH233178   0.144   4.004  10.740 -0.2550  0.2498 -0.3081
 3896TIP3    H133179   0.068   3.969  10.785 -0.1612 -0.5832 -0.7791
 3896TIP3    H233180   0.130   3.983  10.648 -0.0280  1.1582 -0.5662
 3897TIP3   OH233181   3.016   4.349   2.045  0.4265 -1.0111 -0.2305
 3897TIP3    H133182   3.068   4.269   2.036  0.2166 -1.1447 -0.2816
 3897TIP3    H233183   2.938   4.320   2.093  0.7609 -0.6561  0.5472
 3898TIP3   OH233184   5.411   2.095  11.431  0.5504 -0.3210 -0.3132
 3898TIP3    H133185   5.376   2.044  11.504  1.0239 -0.7913 -0.4108
 3898TIP3    H233186   5.472   2.036  11.387  2.4393  0.8705  0.5920
 3899TIP3   OH233187   0.479   6.278   5.167 -0.0762  0.4368 -0.1604
 3899TIP3    H133188   0.547   6.332   5.126  0.7806 -0.6669 -0.2611
 3899TIP3    H233189   0.482   6.196   5.119 -1.5343  0.3657 -0.1831
 3900TIP3   OH233190   4.656   4.249   1.251  0.0499  0.5193  0.2602
 3900TIP3    H133191   4.683   4.300   1.175  1.5492  0.2653  0.5883
 3900TIP3    H233192   4.713   4.279   1.321 -0.6144  0.0146  1.0279
 3901TIP3   OH233193   3.393   5.264  14.779 -0.1755 -0.5723  0.3593
 3901TIP3    H133194   3.342   5.237  14.703  0.2728  1.5270 -0.7376
 3901TIP3    H233195   3.482   5.235  14.759 -0.2432 -0.9357  0.5731
 3902TIP3   OH233196   3.806   1.576  10.653  0.1983 -0.1679 -0.2141
 3902TIP3    H133197   3.776   1.485  10.656  1.5153 -0.7498 -2.5858
 3902TIP3    H233198   3.870   1.579  10.582  0.1918  2.6286 -0.2337
 3903TIP3   OH233199   3.938   2.754  17.243  0.5027 -0.9445 -0.1147
 3903TIP3    H133200   3.942   2.749  17.147 -1.3882  0.0722 -0.2817
 3903TIP3    H233201   3.918   2.664  17.270 -1.3523 -0.8042 -0.8701
 3904TIP3   OH233202   4.122   0.708  12.559  0.6546 -0.0082  0.3042
 3904TIP3    H133203   4.149   0.796  12.534  1.4584 -0.1629  0.6234
 3904TIP3    H233204   4.029   0.717  12.582  0.2394  0.3932 -1.4186
 3905TIP3   OH233205   0.535   3.504   4.405  0.7605  0.5884 -0.4573
 3905TIP3    H133206   0.475   3.447   4.453  2.5707 -0.7266  0.3499
 3905TIP3    H233207   0.515   3.592   4.436 -0.0512  0.0725  0.5503
 3906TIP3   OH233208   3.670   2.412  15.058  0.7219  0.0444 -0.0957
 3906TIP3    H133209   3.591   2.360  15.045  0.5305  0.6684 -1.7206
 3906TIP3    H233210   3.738   2.365  15.008  0.9312  0.4737 -0.2184
 3907TIP3   OH233211   2.577   4.795   1.730  0.0475 -0.1631 -0.0859
 3907TIP3    H133212   2.556   4.869   1.674  0.9499 -0.5172 -0.9054
 3907TIP3    H233213   2.496   4.744   1.733  0.0214 -0.2031 -1.1639
 3908TIP3   OH233214   6.741   2.763   4.965 -0.0741 -0.3014 -0.3003
 3908TIP3    H133215   6.680   2.811   4.908 -1.0984 -0.5294  0.5734
 3908TIP3    H233216   6.827   2.800   4.945 -0.7525  1.4826 -0.0780
 3909TIP3   OH233217   5.806   3.736  11.036 -0.5486 -0.6153 -0.2849
 3909TIP3    H133218   5.853   3.801  11.088 -1.0384 -0.0781 -0.5022
 3909TIP3    H233219   5.865   3.716  10.963  0.3532 -1.7369  0.7068
 3910TIP3   OH233220   4.882   1.190   4.636  0.3277  0.5898 -0.2298
 3910TIP3    H133221   4.811   1.159   4.692  0.5870  1.5522  0.6657
 3910TIP3    H233222   4.844   1.262   4.586 -0.2717 -1.0396 -2.3019
 3911TIP3   OH233223   2.887   1.581  11.055 -0.1869 -0.2253  0.3639
 3911TIP3    H133224   2.891   1.664  11.006  2.0652 -0.3408  0.2435
 3911TIP3    H233225   2.958   1.529  11.018 -2.7597 -3.1089 -1.0143
 3912TIP3   OH233226   3.710   5.135   5.829 -0.0019 -0.8264  0.3345
 3912TIP3    H133227   3.723   5.215   5.880 -0.8961  0.1343 -0.9014
 3912TIP3    H233228   3.787   5.131   5.771 -1.0645  0.4475 -1.2452
 3913TIP3   OH233229   1.167   3.533   4.536 -0.2219 -0.3930  0.1054
 3913TIP3    H133230   1.254   3.569   4.517 -1.0704  1.8330  0.1870
 3913TIP3    H233231   1.181   3.475   4.611  1.4405 -1.3606 -0.8984
 3914TIP3   OH233232   0.853   6.269  16.432 -0.3924 -0.3052 -0.4837
 3914TIP3    H133233   0.935   6.221  16.422  0.0705 -0.3311  2.4824
 3914TIP3    H233234   0.870   6.355  16.393  2.5102  1.0823  3.2220
 3915TIP3   OH233235   5.092   3.910   4.422  0.5273  0.6213 -0.1648
 3915TIP3    H133236   5.065   3.938   4.334 -0.8037 -1.5493 -0.5116
 3915TIP3    H233237   5.108   3.816   4.414  0.2985  0.3512  1.9412
 3916TIP3   OH233238   4.741   3.168  13.340 -0.0932  0.7718  0.0020
 3916TIP3    H133239   4.663   3.186  13.288  0.5915 -1.0446 -1.7902
 3916TIP3    H233240   4.778   3.089  13.302  0.6166 -0.5855  3.1759
 3917TIP3   OH233241   4.649   5.753   4.005  0.2598  0.3657 -0.0171
 3917TIP3    H133242   4.724   5.695   3.995 -1.1394 -1.7021  0.8777
 3917TIP3    H233243   4.649   5.778   4.097 -0.2283  0.2316  0.0237
 3918TIP3   OH233244   4.457   6.177   5.610 -0.2585  0.1440 -0.1683
 3918TIP3    H133245   4.483   6.104   5.666 -0.5529  0.9029  0.9987
 3918TIP3    H233246   4.491   6.155   5.524  0.1558 -1.0918  0.2952
 3919TIP3   OH233247   0.462   1.913  10.385 -0.0229  0.2861 -0.2084
 3919TIP3    H133248   0.433   2.002  10.405  0.0607  0.1763  0.4212
 3919TIP3    H233249   0.393   1.877  10.329  0.1577  0.8923 -0.8388
 3920TIP3   OH233250   0.746   6.582  15.550  0.6017  0.8334  0.3457
 3920TIP3    H133251   0.735   6.491  15.578 -3.4222  1.0407 -0.0082
 3920TIP3    H233252   0.744   6.632  15.632  0.2755  0.7574  0.3848
 3921TIP3   OH233253   2.213   3.645  16.639 -0.1703 -0.8427 -0.1588
 3921TIP3    H133254   2.151   3.598  16.584 -2.1601 -0.8513  1.9702
 3921TIP3    H233255   2.168   3.726  16.662  0.9022 -0.5089  0.8763
 3922TIP3   OH233256   1.839   6.402   4.307 -0.0361  0.1996  0.0486
 3922TIP3    H133257   1.828   6.320   4.259 -0.7495  1.3826 -1.9345
 3922TIP3    H233258   1.786   6.391   4.386 -2.4119 -0.2868 -1.5162
 3923TIP3   OH233259   6.766   6.317  15.209  0.2305 -0.1472  0.1488
 3923TIP3    H133260   6.726   6.235  15.239  3.0360 -2.0154 -0.7304
 3923TIP3    H233261   6.829   6.289  15.142  1.4476  2.7235 -0.0308
 3924TIP3   OH233262   0.735   6.715  12.273  0.3465  0.3741  0.0420
 3924TIP3    H133263   0.782   6.781  12.222  0.8070  0.5958  0.7311
 3924TIP3    H233264   0.648   6.712  12.234 -0.3684  2.8571  1.2251
 3925TIP3   OH233265   1.144   1.225   3.418  0.4221  0.1431  0.0494
 3925TIP3    H133266   1.166   1.288   3.349 -2.3249  1.5186  0.2707
 3925TIP3    H233267   1.114   1.147   3.370  3.0868 -0.7953 -0.2267
 3926TIP3   OH233268   1.639   2.458  13.519  0.9839  0.1165 -0.0467
 3926TIP3    H133269   1.575   2.441  13.588  1.5271 -1.8419  0.0436
 3926TIP3    H233270   1.635   2.553  13.506 -0.5164  0.2974  1.3048
 3927TIP3   OH233271   6.056   6.344  14.736 -0.0391  0.3832  0.1314
 3927TIP3    H133272   6.008   6.426  14.743 -0.1699  0.2086  1.8586
 3927TIP3    H233273   5.988   6.277  14.727 -0.0526  0.2893  0.8646
 3928TIP3   OH233274   0.765   6.504   2.547 -0.1523  0.1663 -0.3712
 3928TIP3    H133275   0.741   6.418   2.583  0.7425  0.3257  0.6711
 3928TIP3    H233276   0.852   6.490   2.510 -0.1549  0.5381 -0.5204
 3929TIP3   OH233277   6.309   4.206  12.507  0.2958 -0.0595  0.1748
 3929TIP3    H133278   6.297   4.148  12.581 -0.2691 -1.5816 -1.0611
 3929TIP3    H233279   6.331   4.291  12.546 -0.2982 -0.7303  2.0628
 3930TIP3   OH233280   1.909   3.204  16.773  0.1190  0.7417  0.1559
 3930TIP3    H133281   1.943   3.171  16.690 -0.0472 -0.0198  0.3838
 3930TIP3    H233282   1.898   3.298  16.759 -1.9542  0.3396 -1.4119
 3931TIP3   OH233283   3.135   5.195  11.459  0.0420  0.3192  0.1045
 3931TIP3    H133284   3.053   5.245  11.462  0.3357  0.7605  1.8314
 3931TIP3    H233285   3.189   5.232  11.528  1.9792  0.4405 -1.3751
 3932TIP3   OH233286   0.521   1.743   5.320  0.4548  0.2933  0.0736
 3932TIP3    H133287   0.590   1.792   5.365  1.7275 -0.3126 -1.1492
 3932TIP3    H233288   0.500   1.796   5.244  0.8154 -0.3556 -0.4853
 3933TIP3   OH233289   3.615   5.843   0.870 -0.3247  0.3063 -0.0177
 3933TIP3    H133290   3.618   5.754   0.835 -0.5404  0.5696 -0.7045
 3933TIP3    H233291   3.523   5.868   0.866  0.0274  1.4407 -2.0563
 3934TIP3   OH233292   6.118   4.168  15.983 -0.2829 -0.4180 -0.2885
 3934TIP3    H133293   6.063   4.103  16.026  0.9450 -1.3577 -0.0814
 3934TIP3    H233294   6.154   4.221  16.055 -0.8536  0.1604 -0.4185
 3935TIP3   OH233295   5.509   6.248  11.810 -0.7293 -0.1786 -0.2223
 3935TIP3    H133296   5.578   6.304  11.845 -0.7860  0.4669 -1.0991
 3935TIP3    H233297   5.553   6.168  11.783 -0.1671  0.5178 -1.4682
 3936TIP3   OH233298   5.799   3.424  14.641 -0.0215 -0.8794 -0.3978
 3936TIP3    H133299   5.718   3.466  14.670 -0.7350 -0.9627 -2.1691
 3936TIP3    H233300   5.860   3.496  14.628 -0.1965 -0.7059 -0.2674
 3937TIP3   OH233301   6.280   4.471   5.228  0.1359 -0.2268  0.2594
 3937TIP3    H133302   6.196   4.430   5.210  0.5886 -1.8397  1.5637
 3937TIP3    H233303   6.257   4.559   5.258 -1.2686 -1.1927  2.2856
 3938TIP3   OH233304   5.574   3.674  10.921  0.2235 -0.0705  0.7684
 3938TIP3    H133305   5.553   3.750  10.867  0.0331 -1.3603 -1.0900
 3938TIP3    H233306   5.651   3.700  10.971  2.4223  0.2624 -2.4556
 3939TIP3   OH233307   1.842   6.167   2.028  0.5957  0.0268  0.1143
 3939TIP3    H133308   1.851   6.083   1.982 -1.9062  0.5376 -1.5401
 3939TIP3    H233309   1.833   6.142   2.120 -1.0388 -1.6959 -0.4231
 3940TIP3   OH233310   5.861   6.458   1.824 -0.4436  0.1958  0.3323
 3940TIP3    H133311   5.822   6.460   1.736  1.0459  0.3406 -0.3474
 3940TIP3    H233312   5.931   6.523   1.821 -0.7170  0.5915  1.8136
 3941TIP3   OH233313   3.568   6.580  11.221 -0.4380 -0.4365 -0.2401
 3941TIP3    H133314   3.570   6.525  11.300  1.2488 -0.0883  0.0125
 3941TIP3    H233315   3.656   6.618  11.217 -0.9460  0.6822 -1.5113
 3942TIP3   OH233316   5.987   2.124   1.577 -0.6765  0.1941 -0.7214
 3942TIP3    H133317   6.029   2.162   1.654  1.4218 -2.9131 -0.1231
 3942TIP3    H233318   5.896   2.152   1.583 -0.0057  2.2043  1.4112
 3943TIP3   OH233319   5.241   5.903   0.821  0.1522  0.3658 -0.0208
 3943TIP3    H133320   5.241   5.985   0.869  1.5046  0.4032 -0.0511
 3943TIP3    H233321   5.319   5.857   0.852 -0.9283 -1.2149  0.4938
 3944TIP3   OH233322   5.868   0.408  12.205 -0.4099 -0.0594 -0.7824
 3944TIP3    H133323   5.834   0.478  12.261 -1.3449  1.1226 -2.7198
 3944TIP3    H233324   5.936   0.366  12.257 -1.2177  0.9836  1.2038
 3945TIP3   OH233325   0.686   0.297  15.700 -0.1318 -0.2700  0.0284
 3945TIP3    H133326   0.735   0.352  15.761  0.2128  2.6838 -2.6329
 3945TIP3    H233327   0.601   0.285  15.742  0.5194  0.5109  1.6669
 3946TIP3   OH233328   2.787   6.811   5.043 -0.0797 -0.2060 -0.3502
 3946TIP3    H133329   2.741   6.803   5.127 -0.6202  0.9879 -0.5045
 3946TIP3    H233330   2.717   6.807   4.978  0.2121  0.0325 -0.6796
 3947TIP3   OH233331   1.836   4.514   2.419  0.1912  0.5639  0.0769
 3947TIP3    H133332   1.822   4.608   2.427  0.1020  0.7601 -1.9172
 3947TIP3    H233333   1.825   4.495   2.326  0.6996 -1.3468  0.3467
 3948TIP3   OH233334   4.949   0.805   4.558  0.4300  0.3441  0.6416
 3948TIP3    H133335   4.969   0.852   4.639 -0.5957  1.2336  0.3978
 3948TIP3    H233336   5.032   0.763   4.535  1.1553  1.3154  1.3364
 3949TIP3   OH233337   6.524   3.870   0.601 -0.3234  0.2393 -0.5307
 3949TIP3    H133338   6.521   3.959   0.566  1.0735  0.2933 -0.5752
 3949TIP3    H233339   6.484   3.816   0.534 -0.5317  0.7416 -0.8179
 3950TIP3   OH233340   5.342   4.682  11.124 -0.1085 -0.5431  0.2556
 3950TIP3    H133341   5.260   4.637  11.144  0.3432 -1.1162  0.8471
 3950TIP3    H233342   5.321   4.737  11.048 -1.3318  0.1588  1.0549
 3951TIP3   OH233343   0.039   1.398  14.649 -0.1960  0.4930 -0.7801
 3951TIP3    H133344   0.119   1.374  14.695 -0.0090  1.8486 -0.3284
 3951TIP3    H233345  -0.032   1.370  14.707  0.0213  1.3342 -0.0775
 3952TIP3   OH233346   1.309   5.973  12.473  0.5330  0.7514  0.1306
 3952TIP3    H133347   1.273   5.992  12.386 -2.3306  0.0556  1.0750
 3952TIP3    H233348   1.324   5.878  12.472  0.7044  0.7751  0.3615
 3953TIP3   OH233349   1.967   3.113  12.087 -0.2110  0.1663 -0.0575
 3953TIP3    H133350   1.953   3.111  11.993 -2.0883  0.2701  0.1921
 3953TIP3    H233351   1.985   3.022  12.111 -1.3374 -0.1310 -0.3056
 3954TIP3   OH233352   5.903   4.164  12.176  0.2956  0.6467 -0.3688
 3954TIP3    H133353   5.944   4.099  12.119 -0.4930 -0.9833  0.8583
 3954TIP3    H233354   5.951   4.158  12.258 -1.5922 -0.4864  0.7133
 3955TIP3   OH233355   2.206   2.959  14.251 -0.2254  0.0507 -0.3133
 3955TIP3    H133356   2.120   2.916  14.249 -0.9308  1.3377  0.7074
 3955TIP3    H233357   2.191   3.040  14.299  1.4164  0.6757 -0.7969
 3956TIP3   OH233358   5.855   1.144  16.689  0.0041  0.1556 -0.3693
 3956TIP3    H133359   5.832   1.112  16.602  0.5272  0.8460 -0.7740
 3956TIP3    H233360   5.782   1.117  16.745 -0.9209  0.7243 -1.2594
 3957TIP3   OH233361   5.720   3.105   4.559 -0.5840 -0.4737  0.2733
 3957TIP3    H133362   5.723   3.109   4.463 -0.6325 -1.9719  0.1815
 3957TIP3    H233363   5.775   3.030   4.581 -0.2773  0.0847  1.4474
 3958TIP3   OH233364   5.116   6.091   5.492  0.0373 -0.2480 -0.2062
 3958TIP3    H133365   5.121   6.085   5.587  0.4100  0.7626 -0.1482
 3958TIP3    H233366   5.054   6.162   5.475 -1.2353 -1.4460 -0.7514
 3959TIP3   OH233367   0.639   5.320   0.437 -0.6035  0.2157 -0.2894
 3959TIP3    H133368   0.635   5.235   0.394 -0.6150 -0.3456  0.7671
 3959TIP3    H233369   0.610   5.302   0.527 -0.0594  1.2246  0.1031
 3960TIP3   OH233370   0.998   1.767  16.021 -0.7171  0.1010  0.0345
 3960TIP3    H133371   0.946   1.723  15.954 -2.5032 -0.6200  1.8056
 3960TIP3    H233372   0.968   1.729  16.104  1.7543  0.5877  1.2561
 3961TIP3   OH233373   0.978   4.584   1.024  0.3099  0.0614  0.1973
 3961TIP3    H133374   0.885   4.597   1.040  0.6139  1.0377  1.2601
 3961TIP3    H233375   0.983   4.559   0.932 -0.9800  0.2491  0.0623
 3962TIP3   OH233376   3.381   4.705  15.003 -0.1013  0.0952  0.1104
 3962TIP3    H133377   3.320   4.709  14.930 -0.4605 -0.0911  0.3920
 3962TIP3    H233378   3.423   4.791  15.005  0.7086 -0.2620 -0.9797
 3963TIP3   OH233379   5.194   5.852  13.916 -0.4643 -0.0291 -0.5412
 3963TIP3    H133380   5.109   5.810  13.902  0.0770 -1.4138  0.0823
 3963TIP3    H233381   5.174   5.945  13.930 -1.8649 -0.3288 -0.4403
 3964TIP3   OH233382   1.550   5.843  11.409 -1.0244 -0.4272  0.3334
 3964TIP3    H133383   1.497   5.774  11.448  0.4820 -1.0568  1.3725
 3964TIP3    H233384   1.498   5.875  11.335 -2.5425 -1.4205  0.9245
 3965TIP3   OH233385   1.010   2.760  15.982 -0.2422 -0.1123  0.0627
 3965TIP3    H133386   1.023   2.794  16.071 -2.0121 -0.3835  0.4481
 3965TIP3    H233387   0.917   2.771  15.965 -0.5635 -2.9841 -0.5355
 3966TIP3   OH233388   4.834   1.794   2.890 -0.1485  0.4338 -0.0989
 3966TIP3    H133389   4.813   1.887   2.888 -1.5537  0.1310 -1.2195
 3966TIP3    H233390   4.909   1.785   2.831  0.4183  0.9183  0.5229
 3967TIP3   OH233391   2.991   5.268   3.740  1.0721  0.3874 -0.3527
 3967TIP3    H133392   3.065   5.222   3.701  1.3117  2.0404 -1.9918
 3967TIP3    H233393   3.031   5.341   3.788  0.5907  0.1662  0.4103
 3968TIP3   OH233394   6.278   1.638  10.932  0.2085 -0.0776  0.3501
 3968TIP3    H133395   6.188   1.606  10.931 -0.3186  1.3415 -0.6527
 3968TIP3    H233396   6.318   1.594  11.007 -1.0427 -1.4386  0.2744
 3969TIP3   OH233397   1.786   2.716  12.449  0.4785 -0.0874 -0.1374
 3969TIP3    H133398   1.862   2.660  12.436 -0.1315 -1.4360  1.6081
 3969TIP3    H233399   1.762   2.702  12.541 -2.6297 -0.7073 -0.9197
 3970TIP3   OH233400   0.007   0.769   0.392  0.0296 -0.1088 -0.4270
 3970TIP3    H133401  -0.024   0.790   0.304  0.9275  0.9566 -0.5066
 3970TIP3    H233402   0.012   0.854   0.436  0.4669 -0.5349  0.3532
 3971TIP3   OH233403   6.001   3.513  13.885  0.0184  0.3481  0.2017
 3971TIP3    H133404   5.983   3.425  13.851  0.3999  0.7015 -0.9545
 3971TIP3    H233405   6.080   3.502  13.938 -0.8282 -0.2941  1.3880
 3972TIP3   OH233406   2.945   0.958  11.349  0.5213 -0.6968 -0.0055
 3972TIP3    H133407   2.854   0.928  11.355  0.2051  0.2340  0.0743
 3972TIP3    H233408   2.948   1.008  11.268  1.0889 -1.0972 -0.2374
 3973TIP3   OH233409   1.186   6.245   3.009  0.0924 -0.0424 -0.2157
 3973TIP3    H133410   1.183   6.299   2.930  0.8669 -0.4791 -0.5472
 3973TIP3    H233411   1.097   6.211   3.018  0.1786 -0.5649 -1.2950
 3974TIP3   OH233412   1.538   3.780   2.883 -0.0853 -0.0467  0.1993
 3974TIP3    H133413   1.484   3.828   2.945 -1.2221  0.4525 -1.1162
 3974TIP3    H233414   1.486   3.703   2.860 -1.0198  1.1975 -2.2221
 3975TIP3   OH233415   0.215   1.646   1.571  0.0683  0.1299  0.2663
 3975TIP3    H133416   0.130   1.609   1.593 -0.4635  1.7106  0.9880
 3975TIP3    H233417   0.216   1.646   1.475 -0.1757 -1.1058  0.2443
 3976TIP3   OH233418   3.641   2.627   0.792  0.0237  0.1510  0.4068
 3976TIP3    H133419   3.591   2.614   0.872  1.0868 -0.1640  1.0390
 3976TIP3    H233420   3.709   2.691   0.816  1.8522 -1.7025  0.4750
 3977TIP3   OH233421   0.696   1.015   0.747  0.4025 -0.2372  0.1339
 3977TIP3    H133422   0.705   1.035   0.654 -0.7770  0.2582  0.0992
 3977TIP3    H233423   0.766   1.064   0.790  1.1235 -0.6857 -0.5038
 3978TIP3   OH233424   5.035   3.924  11.589 -0.1903 -0.6618  0.2091
 3978TIP3    H133425   5.024   3.838  11.631  1.7983 -1.6879 -1.1951
 3978TIP3    H233426   5.100   3.908  11.521 -0.6083  1.7559 -0.8179
 3979TIP3   OH233427   2.836   1.553  14.073  0.6675  0.2157 -0.2967
 3979TIP3    H133428   2.835   1.623  14.138 -0.5081  0.0244 -0.1010
 3979TIP3    H233429   2.870   1.477  14.120 -1.2787 -0.2390  0.4663
 3980TIP3   OH233430   2.977   2.526   6.513 -0.1059 -0.6403 -0.0629
 3980TIP3    H133431   2.902   2.483   6.471  0.0558 -0.7272 -0.2667
 3980TIP3    H233432   2.953   2.619   6.517 -0.4620 -0.7491  0.3887
 3981TIP3   OH233433   0.653   4.007  16.674 -0.0504 -0.1727  0.3572
 3981TIP3    H133434   0.730   4.062  16.658 -1.0386  0.8021 -1.4319
 3981TIP3    H233435   0.594   4.061  16.726 -0.8132  0.3368 -0.9780
 3982TIP3   OH233436   5.027   0.707  15.772 -1.0399 -0.5190  0.1200
 3982TIP3    H133437   4.984   0.714  15.687  1.1559  3.0972 -0.8978
 3982TIP3    H233438   5.121   0.708  15.752 -0.4460 -0.3485  2.5480
 3983TIP3   OH233439   3.380   0.222  14.717  0.1000  0.4521 -0.0198
 3983TIP3    H133440   3.454   0.282  14.703  0.1967  0.2092 -0.5849
 3983TIP3    H233441   3.393   0.153  14.652 -0.2860  0.0796  0.2962
 3984TIP3   OH233442   1.977   3.374  15.048 -0.1991 -0.2633 -0.0142
 3984TIP3    H133443   1.964   3.451  14.994  2.0312  0.3792  0.2490
 3984TIP3    H233444   2.014   3.308  14.989 -2.1611 -1.2314 -0.2586
 3985TIP3   OH233445   3.636   5.263  17.169  0.1129 -0.1575 -0.6911
 3985TIP3    H133446   3.649   5.187  17.225 -0.4766 -0.8731 -1.4947
 3985TIP3    H233447   3.597   5.329  17.226  2.2367  0.1883  0.4558
 3986TIP3   OH233448   4.325   5.892  11.067  0.3721 -0.1104 -0.1368
 3986TIP3    H133449   4.370   5.957  11.013 -0.0941  0.1986 -0.1571
 3986TIP3    H233450   4.396   5.838  11.104  0.7166 -0.1074 -0.7715
 3987TIP3   OH233451   1.125   2.876   2.513 -0.0510 -0.4761 -0.0596
 3987TIP3    H133452   1.163   2.789   2.499 -0.8646 -0.9611  0.5824
 3987TIP3    H233453   1.132   2.890   2.608 -1.6206 -0.6960  0.1268
 3988TIP3   OH233454   1.786   1.757  13.691 -0.6069  0.0261  0.1006
 3988TIP3    H133455   1.863   1.730  13.741 -1.3903 -0.3793  1.1063
 3988TIP3    H233456   1.714   1.752  13.753 -1.8478 -1.8099 -1.3874
 3989TIP3   OH233457   4.118   1.658   0.683  0.5964  0.8394 -0.2682
 3989TIP3    H133458   4.130   1.609   0.602 -2.4773  2.0583 -1.6339
 3989TIP3    H233459   4.052   1.607   0.731  0.0738  1.7176 -0.0326
 3990TIP3   OH233460   2.023   5.687  14.404 -0.9024  0.2143  0.2442
 3990TIP3    H133461   1.969   5.621  14.448 -1.2320  0.5469  0.3402
 3990TIP3    H233462   2.027   5.658  14.313 -0.8662 -0.0521  0.3282
 3991TIP3   OH233463   4.959   1.847  14.141 -0.0460 -0.3732 -0.0507
 3991TIP3    H133464   4.906   1.925  14.127 -0.7613 -0.6470  1.0363
 3991TIP3    H233465   5.003   1.862  14.224  0.4963 -0.7640 -0.2586
 3992TIP3   OH233466   5.019   6.332  14.557 -0.2727  0.1895  0.0271
 3992TIP3    H133467   4.964   6.404  14.526  0.1929  0.7228  0.4320
 3992TIP3    H233468   4.994   6.319  14.648  1.5765  1.7155  0.8015
 3993TIP3   OH233469   3.819   3.395  14.553 -0.0375  0.0676  0.0524
 3993TIP3    H133470   3.804   3.301  14.543 -1.0897 -0.1374  2.7657
 3993TIP3    H233471   3.738   3.435  14.522  0.0070  0.0242 -0.1242
 3994TIP3   OH233472   5.980   6.505  15.258 -1.1381 -0.2557 -0.5694
 3994TIP3    H133473   6.057   6.470  15.303 -0.9994  0.6197 -0.0912
 3994TIP3    H233474   6.006   6.511  15.166 -0.5210  0.3096 -0.3662
 3995TIP3   OH233475   0.848   0.709   1.584 -0.2118 -0.1314 -0.0067
 3995TIP3    H133476   0.876   0.664   1.504 -0.8406 -0.4688 -0.0447
 3995TIP3    H233477   0.850   0.802   1.561  0.3485 -0.1821 -0.1725
 3996TIP3   OH233478   6.308   1.064  15.999  0.1721  0.3070  0.2749
 3996TIP3    H133479   6.229   1.052  15.947 -0.1403 -0.2942  0.8659
 3996TIP3    H233480   6.298   1.150  16.039  1.0479  1.3816 -1.6937
 3997TIP3   OH233481   2.041   6.433  16.012  0.0677  0.0293 -0.0756
 3997TIP3    H133482   2.005   6.492  15.946  1.1923  0.7694 -0.0522
 3997TIP3    H233483   2.135   6.433  15.996  0.3157 -0.1223  1.2584
 3998TIP3   OH233484   0.766   4.594  13.120 -0.1338  0.5674 -0.1402
 3998TIP3    H133485   0.689   4.543  13.145 -0.2726  0.4211 -0.8458
 3998TIP3    H233486   0.734   4.654  13.053  0.5523 -0.1549 -1.1491
 3999TIP3   OH233487   3.955   0.468   4.329 -0.0201  0.5104  0.4953
 3999TIP3    H133488   3.928   0.391   4.379  0.3730 -0.2518 -0.4296
 3999TIP3    H233489   3.875   0.495   4.283 -0.0066  0.2518  0.3158
 4000TIP3   OH233490   1.815   2.907   1.388  0.1458 -0.4894  0.1430
 4000TIP3    H133491   1.750   2.963   1.345 -0.4139 -0.8816  0.4602
 4000TIP3    H233492   1.899   2.950   1.371  0.0011 -0.8245 -1.6536
 4001TIP3   OH233493   5.333   3.099  13.114 -0.1104  0.0202  0.4102
 4001TIP3    H133494   5.416   3.104  13.067  0.0584  0.4102  0.7330
 4001TIP3    H233495   5.320   3.188  13.148  0.1416 -0.4102  1.6966
 4002TIP3   OH233496   5.853   4.503  12.489  0.2684 -0.1130  0.7490
 4002TIP3    H133497   5.825   4.562  12.419 -1.2997  0.8515  2.1157
 4002TIP3    H233498   5.804   4.422  12.474 -0.6381  0.3529  1.1326
 4003TIP3   OH233499   5.463   0.794  15.864 -0.1048 -0.2274 -0.1247
 4003TIP3    H133500   5.407   0.865  15.832  0.0272  0.2415  0.6501
 4003TIP3    H233501   5.534   0.788  15.801  0.6916  1.3486  0.5619
 4004TIP3   OH233502   2.242   3.260   2.246 -0.1651 -0.1739  0.3095
 4004TIP3    H133503   2.189   3.336   2.268 -1.0268 -0.6784  0.0194
 4004TIP3    H233504   2.219   3.239   2.155  0.8785 -0.1260  0.0137
 4005TIP3   OH233505   4.651   6.130   1.440 -0.1896  0.6456  0.2557
 4005TIP3    H133506   4.684   6.098   1.356 -1.9407  1.4891 -0.7998
 4005TIP3    H233507   4.640   6.224   1.427 -0.0510  0.8581  1.5899
 4006TIP3   OH233508   2.738   0.757   0.810 -0.3596 -0.1681 -0.0002
 4006TIP3    H133509   2.742   0.795   0.722 -1.6396 -0.5606 -0.2448
 4006TIP3    H233510   2.673   0.810   0.856  0.6346  0.3256  0.8795
 4007TIP3   OH233511   4.047   0.860   0.539 -0.5882  0.4547 -0.1021
 4007TIP3    H133512   4.071   0.859   0.632 -0.6540  0.6272 -0.0838
 4007TIP3    H233513   3.996   0.940   0.528 -0.4193  0.5318 -0.3265
 4008TIP3   OH233514   6.243   5.140   3.450  0.0628 -0.5432 -0.0222
 4008TIP3    H133515   6.160   5.104   3.481  0.0805 -1.1283 -0.6163
 4008TIP3    H233516   6.310   5.096   3.502  0.0251 -0.5294  0.0373
 4009TIP3   OH233517   5.831   2.012  15.543  0.4659  0.5192  0.3317
 4009TIP3    H133518   5.793   1.929  15.571 -0.0670  0.4581 -0.5241
 4009TIP3    H233519   5.756   2.068  15.524  0.8177  1.3605  1.3163
 4010TIP3   OH233520   0.991   0.757  13.875 -0.1577  0.0026  0.2204
 4010TIP3    H133521   0.923   0.695  13.848 -0.0028  0.1198 -0.4450
 4010TIP3    H233522   1.073   0.713  13.856 -0.0467  0.0662  0.5514
 4011TIP3   OH233523   2.099   0.634  11.330 -0.4015  0.2247  0.3077
 4011TIP3    H133524   2.055   0.603  11.251  2.6318 -1.5967 -0.8489
 4011TIP3    H233525   2.159   0.702  11.299  2.1746 -1.7861  0.5841
 4012TIP3   OH233526   0.981   5.378   4.934  0.1766  0.1674  0.3261
 4012TIP3    H133527   1.027   5.375   4.850 -0.8645  2.1645 -0.3867
 4012TIP3    H233528   1.043   5.419   4.994  0.1663  0.7151 -0.0313
 4013TIP3   OH233529   1.939   3.014  15.856 -0.0604 -0.4854 -0.6402
 4013TIP3    H133530   1.854   3.004  15.900  0.0451 -0.8156 -0.5044
 4013TIP3    H233531   1.917   3.048  15.769 -0.4346 -1.5615 -0.9911
 4014TIP3   OH233532   6.725   6.815   2.862  0.1381  0.1530 -0.4174
 4014TIP3    H133533   6.689   6.732   2.829  2.2101 -0.9569 -0.0941
 4014TIP3    H233534   6.670   6.836   2.938 -0.3726 -0.9786 -0.4489
 4015TIP3   OH233535   5.075   6.628   0.494  0.1628  0.3955 -0.0202
 4015TIP3    H133536   5.077   6.593   0.583 -0.0469 -3.0178 -1.2063
 4015TIP3    H233537   4.986   6.610   0.463  0.5787  0.4577 -1.2996
 4016TIP3   OH233538   5.456   0.234   4.269 -0.4879  0.0415 -0.0515
 4016TIP3    H133539   5.382   0.229   4.209 -0.7939 -0.3060  0.3466
 4016TIP3    H233540   5.533   0.240   4.213 -0.9081  2.4957 -0.5184
 4017TIP3   OH233541   6.579   5.591   0.177  0.6912  0.1282 -0.2552
 4017TIP3    H133542   6.591   5.512   0.125  1.2503  0.8155 -1.2084
 4017TIP3    H233543   6.663   5.604   0.221 -0.8575 -2.6939  4.2401
 4018TIP3   OH233544   6.251   3.884   5.388 -0.6866 -0.6237  0.1817
 4018TIP3    H133545   6.193   3.937   5.334 -0.9428 -1.0354  0.0427
 4018TIP3    H233546   6.200   3.864   5.466  0.2412  1.3191  1.3606
 4019TIP3   OH233547   5.638   2.465  16.771 -0.3269 -0.0020  0.4460
 4019TIP3    H133548   5.661   2.536  16.830  0.7362 -0.3025  0.4129
 4019TIP3    H233549   5.721   2.421  16.752 -0.3418  0.9698 -2.4276
 4020TIP3   OH233550   3.676   4.712  16.107  0.3940  0.1402 -0.4590
 4020TIP3    H133551   3.718   4.788  16.147  0.7635 -0.8993  1.2295
 4020TIP3    H233552   3.745   4.672  16.054  1.0735 -0.5918  0.9305
 4021TIP3   OH233553   5.747   2.599   4.630  0.1005  0.1367 -0.3929
 4021TIP3    H133554   5.686   2.567   4.564 -1.8423  0.5950  1.0779
 4021TIP3    H233555   5.735   2.540   4.705  2.3656 -0.4705 -0.4455
 4022TIP3   OH233556   5.543   6.376  12.867 -0.3225  0.2482 -0.2664
 4022TIP3    H133557   5.539   6.344  12.776 -1.3443  1.1727 -0.5629
 4022TIP3    H233558   5.471   6.331  12.911 -0.6392  0.7877 -0.2379
 4023TIP3   OH233559   2.420   1.972   4.857  0.0373 -0.1226  0.8358
 4023TIP3    H133560   2.448   1.881   4.848  0.6570  0.1090  0.2693
 4023TIP3    H233561   2.485   2.012   4.914  0.8143  0.3873 -0.3726
 4024TIP3   OH233562   1.569   1.536   6.017  0.6894  0.0152  0.8122
 4024TIP3    H133563   1.624   1.614   6.024 -0.4724  1.0492 -0.9134
 4024TIP3    H233564   1.573   1.511   5.925  1.2551 -2.2053  1.3578
 4025TIP3   OH233565   3.545   0.148  13.854  0.3773  0.6768  0.3638
 4025TIP3    H133566   3.598   0.127  13.931 -0.2259 -0.6521  0.4578
 4025TIP3    H233567   3.591   0.106  13.781 -0.3032 -0.1602  0.3910
 4026TIP3   OH233568   2.043   4.249   4.789  0.3912  0.2083  0.0787
 4026TIP3    H133569   1.999   4.259   4.705  0.4586  1.0892  0.1471
 4026TIP3    H233570   2.064   4.338   4.817 -0.4840  0.0087  1.4905
 4027TIP3   OH233571   0.528   1.467  16.850 -0.0996 -0.0617  0.0765
 4027TIP3    H133572   0.444   1.508  16.869 -0.7827 -1.0132 -0.7961
 4027TIP3    H233573   0.543   1.408  16.924  0.1356  0.6029  0.5636
 4028TIP3   OH233574   1.682   1.027   1.927  0.3622 -0.2329  0.3598
 4028TIP3    H133575   1.639   0.954   1.882  1.4369 -1.5336  1.3362
 4028TIP3    H233576   1.671   1.102   1.869 -2.2176 -0.7627  0.0789
 4029TIP3   OH233577   0.714   1.873   3.899  0.5458  0.6197 -0.0761
 4029TIP3    H133578   0.805   1.847   3.907 -0.1488 -2.0482  0.3325
 4029TIP3    H233579   0.678   1.863   3.987 -0.6105 -0.7127 -0.6403
 4030TIP3   OH233580   1.576   5.958  13.155 -0.0427  0.3415  0.0245
 4030TIP3    H133581   1.579   5.863  13.144  0.1704  0.5334 -1.7776
 4030TIP3    H233582   1.505   5.987  13.098 -0.7769  1.1935  1.3193
 4031TIP3   OH233583   2.783   2.854   2.235  1.2978  0.1423  0.3297
 4031TIP3    H133584   2.813   2.863   2.326 -0.3228 -0.7465  0.9811
 4031TIP3    H233585   2.819   2.770   2.206  0.7776 -0.1708  0.5802
 4032TIP3   OH233586   1.312   4.426   1.918  0.1316  0.3166 -0.2940
 4032TIP3    H133587   1.217   4.425   1.928  0.0717  1.0917 -0.6900
 4032TIP3    H233588   1.343   4.362   1.981 -0.5099  1.7577  1.5914
 4033TIP3   OH233589   0.106   5.423  10.891 -0.3441  0.1635  0.3477
 4033TIP3    H133590   0.034   5.376  10.933 -1.0512  1.6455  0.8629
 4033TIP3    H233591   0.079   5.430  10.799 -0.4429 -0.0415  0.3594
 4034TIP3   OH233592   4.478   1.732   1.401  0.0534  0.1309  0.1774
 4034TIP3    H133593   4.484   1.825   1.382  1.4704  0.1140  0.4685
 4034TIP3    H233594   4.482   1.689   1.316  0.6275  0.2942  0.1190
 4035TIP3   OH233595   4.988   5.827  14.915 -0.1175  0.3901  0.8552
 4035TIP3    H133596   4.971   5.831  15.009 -0.3007 -2.5855  1.0634
 4035TIP3    H233597   5.075   5.789  14.908 -0.3698 -0.0332 -0.1655
 4036TIP3   OH233598   5.066   2.444   3.869 -0.0588 -0.5181 -0.4484
 4036TIP3    H133599   5.124   2.513   3.901 -0.1060 -0.9771  0.7086
 4036TIP3    H233600   5.124   2.383   3.823 -0.0726  0.4553 -1.7900
 4037TIP3   OH233601   2.458   6.098   0.670  0.5565  0.7758  0.2987
 4037TIP3    H133602   2.545   6.076   0.637 -0.1914  1.3217 -2.2795
 4037TIP3    H233603   2.466   6.187   0.702  1.0403  0.6805  0.4500
 4038TIP3   OH233604   0.291   6.337   2.779  0.1150  0.2047  0.1009
 4038TIP3    H133605   0.208   6.380   2.758  0.5085  0.8331 -0.2032
 4038TIP3    H233606   0.316   6.374   2.864 -0.5929 -1.0168  0.8711
 4039TIP3   OH233607   5.842   2.560  11.936 -0.3955  0.2167  0.1859
 4039TIP3    H133608   5.855   2.510  12.017 -0.1049  0.8905  0.5626
 4039TIP3    H233609   5.758   2.604  11.948  0.0768  1.0499  0.5217
 4040TIP3   OH233610   3.839   0.859   3.244  0.3467 -0.3644  0.5159
 4040TIP3    H133611   3.903   0.794   3.216 -0.6410 -0.4698 -1.6796
 4040TIP3    H233612   3.755   0.814   3.238 -0.2161  0.6830  0.3633
 4041TIP3   OH233613   4.910   3.657   0.569  0.2220  0.2671 -0.4011
 4041TIP3    H133614   4.985   3.598   0.580 -0.0706 -0.0562 -0.1149
 4041TIP3    H233615   4.891   3.653   0.475  0.0877 -0.2503 -0.3587
 4042TIP3   OH233616   6.602   4.339   0.688 -0.0877  0.1363  0.2886
 4042TIP3    H133617   6.530   4.293   0.646  1.0829 -1.2615 -0.2969
 4042TIP3    H233618   6.567   4.425   0.709 -1.5216 -0.0488 -1.1543
 4043TIP3   OH233619   1.435   4.148   1.734 -0.0289 -0.3931  0.3648
 4043TIP3    H133620   1.395   4.184   1.655  3.2167  1.1912 -0.7364
 4043TIP3    H233621   1.429   4.053   1.723 -0.6959 -0.2072 -1.1994
 4044TIP3   OH233622   0.231   0.568  11.166 -0.0115  0.0660  0.8209
 4044TIP3    H133623   0.325   0.550  11.154  0.0540  1.8294 -2.5460
 4044TIP3    H233624   0.192   0.546  11.081 -2.8290 -1.1589  2.3031
 4045TIP3   OH233625   3.144   3.530   0.760  0.3385  0.4317  0.3236
 4045TIP3    H133626   3.062   3.494   0.796  1.5847 -1.7531  1.1664
 4045TIP3    H233627   3.133   3.522   0.665 -0.7184  0.8934  0.3864
 4046TIP3   OH233628   1.203   2.382   5.966  0.1368 -0.4177  0.1202
 4046TIP3    H133629   1.250   2.309   5.925 -0.8040 -2.7083  2.7326
 4046TIP3    H233630   1.266   2.420   6.027 -0.1107 -0.7387  0.5843
 4047TIP3   OH233631   2.364   1.757  15.261  0.0145 -0.0507 -0.4733
 4047TIP3    H133632   2.438   1.734  15.317 -0.7590 -0.4479  0.4115
 4047TIP3    H233633   2.404   1.782  15.178  1.1892  0.4714  0.2161
 4048TIP3   OH233634   3.621   6.011   4.520  0.2783  0.1219  0.0512
 4048TIP3    H133635   3.616   6.064   4.599  0.3904 -0.5413  0.5095
 4048TIP3    H233636   3.531   5.982   4.504  0.3702 -0.3694  0.3807
 4049TIP3   OH233637   5.777   1.936  16.768 -0.0048 -0.3268 -0.2032
 4049TIP3    H133638   5.834   2.008  16.742  1.0554 -0.7551  0.8624
 4049TIP3    H233639   5.716   1.926  16.695  1.1957  0.2271 -1.3213
 4050TIP3   OH233640   4.584   4.982  16.193  0.4654 -0.0777 -0.2442
 4050TIP3    H133641   4.638   4.981  16.272 -0.2862  0.5386  0.2962
 4050TIP3    H233642   4.646   4.994  16.121  1.0763  0.2939  0.3328
 4051TIP3   OH233643   1.487   3.013   0.008 -0.2799 -0.0801  0.2848
 4051TIP3    H133644   1.537   3.046  -0.066  0.6043 -1.3536  0.2734
 4051TIP3    H233645   1.452   2.929  -0.022 -4.0941  1.5273 -0.3811
 4052TIP3   OH233646   2.919   1.791   3.423  0.0008  0.3211 -0.2851
 4052TIP3    H133647   2.995   1.814   3.475 -0.0905  0.6809 -0.3110
 4052TIP3    H233648   2.922   1.849   3.347  0.7905 -0.9884 -1.2979
 4053TIP3   OH233649   2.582   0.351   2.865  0.5726  0.2145  0.0703
 4053TIP3    H133650   2.645   0.280   2.877  1.0388  0.5772 -0.1883
 4053TIP3    H233651   2.543   0.334   2.779  1.1945  0.6630 -0.3020
 4054TIP3   OH233652   5.779   5.205  11.604 -0.5947 -0.3065  0.2063
 4054TIP3    H133653   5.844   5.201  11.674 -0.2337  0.3487 -0.0895
 4054TIP3    H233654   5.831   5.205  11.523 -0.9682  0.0418 -0.0334
 4055TIP3   OH233655   4.670   6.086   2.847 -0.7403 -0.8301  0.1057
 4055TIP3    H133656   4.764   6.087   2.834 -0.4851 -0.1717  1.8102
 4055TIP3    H233657   4.634   6.109   2.761  0.6917 -0.0098 -0.3006
 4056TIP3   OH233658   6.615   4.596  16.030 -0.6685 -0.2479 -0.1409
 4056TIP3    H133659   6.570   4.632  16.106 -0.7168  2.0584 -1.1680
 4056TIP3    H233660   6.617   4.668  15.967  0.3698 -1.7190 -1.9025
 4057TIP3   OH233661   6.636   6.070   2.743 -0.2468 -0.5106 -0.0174
 4057TIP3    H133662   6.570   6.025   2.795 -0.8003  1.2101  0.8446
 4057TIP3    H233663   6.616   6.046   2.653 -1.8956 -0.2384  0.2506
 4058TIP3   OH233664   6.630   5.389  16.005  0.2927  0.8510  0.2154
 4058TIP3    H133665   6.546   5.406  15.962  1.3199  2.3361 -1.3285
 4058TIP3    H233666   6.667   5.315  15.956 -0.2634 -0.0916  1.1751
 4059TIP3   OH233667   1.685   2.960   2.562  0.1394 -0.0176  0.0795
 4059TIP3    H133668   1.703   3.002   2.478  2.4182  0.2048  0.6063
 4059TIP3    H233669   1.596   2.986   2.583  0.1452  1.3941 -1.4237
 4060TIP3   OH233670   6.495   4.231  12.285 -0.1485  0.0816 -0.1543
 4060TIP3    H133671   6.496   4.317  12.242 -0.9385 -0.2415 -0.8556
 4060TIP3    H233672   6.428   4.239  12.353 -1.4269 -0.4513 -1.2979
 4061TIP3   OH233673   1.391   4.785  17.180  0.0970 -0.3382 -0.6993
 4061TIP3    H133674   1.387   4.739  17.265 -0.6311  0.3180 -0.3606
 4061TIP3    H233675   1.303   4.774  17.144  0.3824 -0.5347 -1.3342
 4062TIP3   OH233676   0.584   5.719  15.860 -0.2256 -0.4117  0.3348
 4062TIP3    H133677   0.591   5.624  15.868  1.4278 -0.2687  0.9400
 4062TIP3    H233678   0.501   5.740  15.902 -0.7698 -1.5968 -0.0802
 4063TIP3   OH233679   0.114   4.390  16.311  0.5317  0.0174  0.3389
 4063TIP3    H133680   0.174   4.453  16.271  1.9175  0.3721  2.7904
 4063TIP3    H233681   0.080   4.339  16.237  0.0215  3.0122 -1.6464
 4064TIP3   OH233682   6.117   0.686  13.653  0.0136 -0.9144  0.6533
 4064TIP3    H133683   6.111   0.655  13.563 -0.8074 -0.8183  0.6702
 4064TIP3    H233684   6.196   0.644  13.687 -0.2869 -1.8503  0.2337
 4065TIP3   OH233685   5.306   1.226   3.116 -0.3379 -0.0331  0.1739
 4065TIP3    H133686   5.340   1.167   3.049  2.4613 -1.2624  2.4712
 4065TIP3    H233687   5.213   1.202   3.123  0.5264 -4.0177  0.6669
 4066TIP3   OH233688   4.232   4.646   5.134 -0.5093  0.0417 -0.1696
 4066TIP3    H133689   4.191   4.663   5.049 -2.6616 -1.4389  0.4962
 4066TIP3    H233690   4.167   4.597   5.183  0.8206  0.5087  2.2379
 4067TIP3   OH233691   0.659   1.094  15.240  0.1762 -1.0121 -0.2426
 4067TIP3    H133692   0.728   1.059  15.183 -0.1633 -0.9168 -0.7207
 4067TIP3    H233693   0.662   1.188  15.227  0.9972 -0.8586  0.9400
 4068TIP3   OH233694   5.232   6.429   2.046  0.0490  0.0152 -0.1490
 4068TIP3    H133695   5.184   6.398   2.123 -0.3441 -3.4363 -1.6026
 4068TIP3    H233696   5.164   6.449   1.982  0.4266  0.7733 -0.3202
 4069TIP3   OH233697   1.028   0.921   6.867  0.1979 -0.0873 -0.0552
 4069TIP3    H133698   1.021   1.011   6.899 -0.2113 -0.2698  0.3777
 4069TIP3    H233699   1.059   0.930   6.777 -0.2337  0.5069 -0.1518
 4070TIP3   OH233700   1.355   6.319  15.761  0.1203 -0.2794  0.4511
 4070TIP3    H133701   1.301   6.395  15.780 -0.0924  0.1380 -1.6648
 4070TIP3    H233702   1.321   6.251  15.819 -0.4700  0.8830  1.5198
 4071TIP3   OH233703   2.003   5.321  13.769 -0.3898 -0.4435  0.4747
 4071TIP3    H133704   2.096   5.301  13.774  0.3503  1.7564 -1.9998
 4071TIP3    H233705   1.978   5.298  13.680 -1.1538  2.6330 -0.2216
 4072TIP3   OH233706   3.055   3.001   1.605  0.1908  0.3956 -0.1503
 4072TIP3    H133707   3.064   3.031   1.696 -3.2730 -0.2429  0.5570
 4072TIP3    H233708   2.991   3.061   1.566 -1.3423 -1.5948 -0.8878
 4073TIP3   OH233709   3.865   3.896   2.311  0.0797  0.6183 -0.1065
 4073TIP3    H133710   3.836   3.929   2.396 -1.6797 -0.1170 -0.3820
 4073TIP3    H233711   3.888   3.804   2.328 -0.8801  0.2876 -0.5248
 4074TIP3   OH233712   1.893   3.144  12.645  0.2731 -0.5317  0.6820
 4074TIP3    H133713   1.891   3.106  12.557  0.5357  0.6679  0.1418
 4074TIP3    H233714   1.822   3.099  12.692 -1.4320  0.4085 -0.8342
 4075TIP3   OH233715   3.879   4.428  11.664  0.4824 -0.4401 -0.6161
 4075TIP3    H133716   3.966   4.407  11.698 -0.0153  0.1877  1.1081
 4075TIP3    H233717   3.888   4.518  11.631  0.2298  0.0508  0.5976
 4076TIP3   OH233718   6.505   0.151   6.076  0.1762  0.5101  0.0038
 4076TIP3    H133719   6.479   0.173   6.165  0.2920 -0.8308  0.3969
 4076TIP3    H233720   6.570   0.217   6.052 -1.0271  1.8619  0.2880
 4077TIP3   OH233721   0.711   3.442   5.544  0.0728 -0.0160  0.1929
 4077TIP3    H133722   0.624   3.481   5.538  0.0606 -0.2595 -2.5011
 4077TIP3    H233723   0.697   3.349   5.528  0.8435  0.0605 -1.1500
 4078TIP3   OH233724   2.157   4.606  13.980 -0.3039  0.9363  0.0028
 4078TIP3    H133725   2.111   4.669  14.035 -2.6360  0.4098 -1.1632
 4078TIP3    H233726   2.118   4.521  14.004  1.7989  0.0914  0.6038
 4079TIP3   OH233727   5.861   0.102  11.948 -0.7346  0.0235  0.2975
 4079TIP3    H133728   5.904   0.147  11.875  0.2548 -0.1646  0.7550
 4079TIP3    H233729   5.794   0.164  11.978 -0.9778  0.2079 -0.5913
 4080TIP3   OH233730   6.765   0.409   3.497  0.0696  0.0719 -0.3210
 4080TIP3    H133731   6.775   0.411   3.592 -0.2737 -0.2423 -0.2728
 4080TIP3    H233732   6.708   0.483   3.477 -0.6558 -0.4392 -0.1717
 4081TIP3   OH233733   5.768   2.750   2.833 -0.1592 -0.7677 -0.5299
 4081TIP3    H133734   5.766   2.689   2.759  1.2604 -1.5558  0.0289
 4081TIP3    H233735   5.836   2.714   2.890  1.2382  1.7202 -0.5107
 4082TIP3   OH233736   1.897   4.731   0.175 -0.6822  0.2388  0.3135
 4082TIP3    H133737   1.808   4.754   0.149 -0.9134  0.6134  1.3766
 4082TIP3    H233738   1.898   4.635   0.171 -0.1639  0.2641 -2.6806
 4083TIP3   OH233739   4.724   5.042   1.727  0.8713 -0.1502  0.1607
 4083TIP3    H133740   4.705   4.974   1.792  1.8085  0.8207  1.4939
 4083TIP3    H233741   4.819   5.042   1.720  0.8504  0.7146 -0.1703
 4084TIP3   OH233742   3.836   5.278  15.182 -0.0915 -0.3628 -0.1885
 4084TIP3    H133743   3.876   5.197  15.149 -1.8790 -1.2118 -0.4117
 4084TIP3    H233744   3.754   5.249  15.222 -0.2936  1.2500  0.6421
 4085TIP3   OH233745   4.006   2.112   1.350 -0.4853  0.4305  0.3593
 4085TIP3    H133746   3.951   2.181   1.312 -0.9612 -0.8296 -1.3180
 4085TIP3    H233747   4.092   2.153   1.360 -1.1580  1.7646  1.0055
 4086TIP3   OH233748   6.268   1.556  17.266  0.1707 -0.2550  0.3663
 4086TIP3    H133749   6.336   1.518  17.322  2.5579  2.7257 -0.2314
 4086TIP3    H233750   6.259   1.494  17.193 -2.2025 -3.6570  3.1836
 4087TIP3   OH233751   5.130   4.194   3.433 -0.0869  0.5454  0.2175
 4087TIP3    H133752   5.224   4.197   3.413 -0.6976 -0.3316 -3.4685
 4087TIP3    H233753   5.123   4.133   3.507  2.1189 -0.7742 -0.5713
 4088TIP3   OH233754   3.969   6.070  12.941  0.3403  0.1035 -0.0366
 4088TIP3    H133755   3.965   5.978  12.914  1.2256 -0.6766  2.2798
 4088TIP3    H233756   4.057   6.098  12.917  0.6094 -0.1385  0.6503
 4089TIP3   OH233757   3.734   2.771  14.449 -0.3404  0.1676  0.4015
 4089TIP3    H133758   3.682   2.719  14.388 -0.3361 -0.0435  0.5735
 4089TIP3    H233759   3.687   2.764  14.532 -0.6208  0.8777  0.3052
 4090TIP3   OH233760   6.701   3.956   1.156 -0.1501 -0.0509 -0.5868
 4090TIP3    H133761   6.713   3.940   1.063  2.0844 -0.0774 -0.3550
 4090TIP3    H233762   6.694   4.051   1.163  0.0873 -0.0177 -0.7651
 4091TIP3   OH233763   4.007   1.132   0.499  0.3496  0.1600 -0.1696
 4091TIP3    H133764   4.007   1.120   0.404  2.7317 -2.3227  0.0235
 4091TIP3    H233765   3.950   1.207   0.513  0.9074  1.4596 -3.6724
 4092TIP3   OH233766   4.435   1.115  17.173 -0.0099  0.3348 -0.5708
 4092TIP3    H133767   4.470   1.195  17.133 -1.1791  0.3168 -1.6902
 4092TIP3    H233768   4.358   1.094  17.121 -0.2188 -1.0510  0.2515
 4093TIP3   OH233769   3.742   2.122   1.814 -0.2775  0.6264 -0.3677
 4093TIP3    H133770   3.735   2.051   1.877 -0.2901 -1.2504 -2.3562
 4093TIP3    H233771   3.836   2.133   1.800 -0.2456 -1.3515 -2.4061
 4094TIP3   OH233772   6.144   5.672  15.915  0.5501  0.8118 -0.1931
 4094TIP3    H133773   6.149   5.709  16.003  0.9015 -1.3961  0.7572
 4094TIP3    H233774   6.190   5.589  15.921 -1.9382 -0.7902 -1.7105
 4095TIP3   OH233775   1.712   4.983  15.636  0.6464 -0.5483  0.1855
 4095TIP3    H133776   1.657   5.053  15.670  1.9838  0.1831  0.9063
 4095TIP3    H233777   1.676   4.964  15.549 -2.0928 -1.6268  1.4390
 4096TIP3   OH233778   6.272   3.552  14.646 -0.0388 -0.1132 -0.5916
 4096TIP3    H133779   6.284   3.623  14.710 -1.2325  0.0857 -0.5774
 4096TIP3    H233780   6.362   3.527  14.622  0.4228  1.7591 -1.0072
 4097TIP3   OH233781   3.220   3.985   5.529 -0.7724  0.6063  0.0575
 4097TIP3    H133782   3.224   3.893   5.556 -0.1727  0.8542  0.8635
 4097TIP3    H233783   3.208   3.982   5.434  3.8510 -0.3569 -0.7215
 4098TIP3   OH233784   5.238   4.810   3.242 -0.4637 -0.7517  0.0313
 4098TIP3    H133785   5.308   4.758   3.204  0.6302  0.9649 -0.4417
 4098TIP3    H233786   5.259   4.814   3.335 -0.6229 -1.2472  0.0899
 4099TIP3   OH233787   3.018   4.832   0.991 -0.3665 -0.0331 -0.1733
 4099TIP3    H133788   3.052   4.831   0.901 -0.6921 -0.5689 -0.2982
 4099TIP3    H233789   2.956   4.905   0.992  0.7367  0.9300  0.0465
 4100TIP3   OH233790   4.636   3.557  12.624 -0.6486  0.6045 -0.0729
 4100TIP3    H133791   4.556   3.584  12.579  0.6663 -0.3774 -3.3319
 4100TIP3    H233792   4.694   3.633  12.616 -1.0041  1.1283  1.8243
 4101TIP3   OH233793   3.539   6.435  13.646 -0.7136  0.2945 -0.5011
 4101TIP3    H133794   3.479   6.497  13.604 -1.3246  0.7891  1.0202
 4101TIP3    H233795   3.483   6.384  13.705  0.3966  1.1721  1.4095
 4102TIP3   OH233796   6.755   6.712  12.404 -0.2396  0.7744 -0.2661
 4102TIP3    H133797   6.787   6.623  12.415 -0.4650  0.8123  0.8107
 4102TIP3    H233798   6.723   6.715  12.314 -0.9342 -0.4625 -0.0783
 4103TIP3   OH233799   1.223   6.640   5.800  0.3348  0.5480  0.8445
 4103TIP3    H133800   1.316   6.660   5.815  0.9571 -0.9593 -0.6325
 4103TIP3    H233801   1.180   6.726   5.799  2.0142  1.4343 -0.2144
 4104TIP3   OH233802   6.662   3.332  13.349  0.4029 -0.4594  0.4978
 4104TIP3    H133803   6.682   3.240  13.333 -0.3888 -0.3782 -1.1039
 4104TIP3    H233804   6.705   3.379  13.278  0.6043  0.4028  1.1685
 4105TIP3   OH233805   4.452   4.333   3.727 -0.3383 -0.5173  0.0766
 4105TIP3    H133806   4.403   4.343   3.808 -1.3101 -3.7502  0.0324
 4105TIP3    H233807   4.385   4.328   3.659  0.2673 -1.0435 -0.5033
 4106TIP3   OH233808   6.058   4.930  11.578  0.1283  0.3551  0.3189
 4106TIP3    H133809   6.035   5.007  11.526  1.7791 -0.4904 -1.8014
 4106TIP3    H233810   6.143   4.902  11.544  0.4237 -1.3822  2.2537
 4107TIP3   OH233811   4.564   4.717  12.169  0.1927 -0.1570 -0.7025
 4107TIP3    H133812   4.635   4.759  12.217 -1.0703  0.7959  0.4084
 4107TIP3    H233813   4.576   4.623  12.185  0.5332  0.0665  0.4446
 4108TIP3   OH233814   4.247   5.219  11.243 -0.5545 -0.2628 -0.4226
 4108TIP3    H133815   4.290   5.242  11.325 -0.7963 -0.7365 -0.1592
 4108TIP3    H233816   4.242   5.124  11.244 -1.2869 -0.2327 -0.6142
 4109TIP3   OH233817   3.295   6.556  16.277 -0.6837 -0.0077 -0.2487
 4109TIP3    H133818   3.339   6.562  16.362 -1.5845 -1.1639  0.3336
 4109TIP3    H233819   3.358   6.591  16.215  1.2011 -1.8075  0.5176
 4110TIP3   OH233820   5.131   6.361   6.726  0.2287  0.7523 -0.0559
 4110TIP3    H133821   5.127   6.273   6.762  0.4970 -0.1221 -2.0024
 4110TIP3    H233822   5.089   6.354   6.640 -0.4114  2.7037  0.0534
 4111TIP3   OH233823   2.216   1.636   2.764  0.3999  0.0410  0.4021
 4111TIP3    H133824   2.292   1.684   2.797 -0.7203  2.0694  0.1830
 4111TIP3    H233825   2.228   1.635   2.669 -0.3012  1.2763  0.2743
 4112TIP3   OH233826   2.034   0.752   1.663 -0.5758 -0.0530  0.0306
 4112TIP3    H133827   2.055   0.815   1.733 -0.4374 -0.6108  0.5023
 4112TIP3    H233828   1.951   0.713   1.691 -0.4555 -0.3687 -0.0488
 4113TIP3   OH233829   6.548   1.028  13.749  0.4209  0.0071  0.1291
 4113TIP3    H133830   6.484   1.067  13.807  1.5822  0.1797  1.3555
 4113TIP3    H233831   6.577   1.100  13.693  0.9262  0.4110  0.8810
 4114TIP3   OH233832   6.519   6.526  12.483 -0.4401  0.4455  0.0896
 4114TIP3    H133833   6.586   6.520  12.416 -0.1850  0.8919  0.3016
 4114TIP3    H233834   6.544   6.460  12.548 -0.2328  0.5773  0.1444
 4115TIP3   OH233835   6.209   0.491  10.273  0.3826  0.2920  1.0723
 4115TIP3    H133836   6.161   0.562  10.315  0.6778  0.5468  0.9909
 4115TIP3    H233837   6.301   0.512  10.288  0.4828  0.1503  0.6908
 4116TIP3   OH233838   2.794   3.328  11.555  0.2342  0.1835 -0.5416
 4116TIP3    H133839   2.853   3.268  11.601  0.7716 -0.0512 -1.5251
 4116TIP3    H233840   2.815   3.414  11.591 -1.8883 -0.3324  2.3324
 4117TIP3   OH233841   1.812   2.498  12.879 -0.7412  0.0526  0.1889
 4117TIP3    H133842   1.730   2.516  12.925 -1.9330 -0.5904 -1.5573
 4117TIP3    H233843   1.862   2.579  12.887 -0.8830 -0.0105  2.4874
 4118TIP3   OH233844   3.034   4.973  13.093  0.5593  1.0564  0.8063
 4118TIP3    H133845   3.095   5.027  13.043 -0.2658  0.4460 -0.9270
 4118TIP3    H233846   2.967   5.035  13.123 -0.2018  1.1044 -0.8815
 4119TIP3   OH233847   1.384   0.488  11.546 -0.1981  0.1858  0.2411
 4119TIP3    H133848   1.347   0.428  11.610 -1.1470  1.9973  1.4551
 4119TIP3    H233849   1.404   0.432  11.470  0.9995 -2.0181  2.0629
 4120TIP3   OH233850   4.766   3.954  17.240  0.0725  0.0649  0.7681
 4120TIP3    H133851   4.758   3.875  17.294  1.5754  0.7550  2.0774
 4120TIP3    H233852   4.682   3.960  17.193 -0.5392 -1.6121  1.5682
 4121TIP3   OH233853   1.681   4.992   3.825 -0.0957  0.4417  0.3932
 4121TIP3    H133854   1.768   4.984   3.865  0.6886  0.9147 -1.0979
 4121TIP3    H233855   1.639   4.908   3.841  1.8296 -0.9781 -1.4123
 4122TIP3   OH233856   3.614   0.472   1.703 -0.1253  0.6730  0.1324
 4122TIP3    H133857   3.577   0.485   1.790  2.4617  2.2961  1.1351
 4122TIP3    H233858   3.597   0.555   1.657  0.3862  0.6509 -0.1104
 4123TIP3   OH233859   6.568   3.808  11.262  0.0461 -0.7830 -0.3498
 4123TIP3    H133860   6.481   3.816  11.300  0.9851  1.4912  1.5896
 4123TIP3    H233861   6.584   3.714  11.258 -1.6698 -1.2001  1.2894
 4124TIP3   OH233862   2.566   4.631   4.156  0.4747  0.2659  0.0495
 4124TIP3    H133863   2.510   4.556   4.175  1.4640 -1.3601 -2.7802
 4124TIP3    H233864   2.520   4.706   4.194 -1.4263 -1.5280  1.4957
 4125TIP3   OH233865   6.625   1.523   2.863 -0.0901 -0.0925 -0.2379
 4125TIP3    H133866   6.530   1.522   2.876  0.1719  0.6252  2.2188
 4125TIP3    H233867   6.645   1.436   2.831 -1.8348  0.5819 -3.6791
 4126TIP3   OH233868   2.022   2.417   0.751  0.1511 -0.6948 -0.0056
 4126TIP3    H133869   1.962   2.491   0.755  0.4413 -0.4675  0.2132
 4126TIP3    H233870   2.038   2.404   0.657 -0.8759 -1.2871 -0.1155
 4127TIP3   OH233871   4.728   2.553   4.081  0.0932  0.4761 -0.0830
 4127TIP3    H133872   4.634   2.568   4.069 -0.2930 -2.0495 -0.8921
 4127TIP3    H233873   4.741   2.554   4.176 -1.0203 -0.3684  0.1008
 4128TIP3   OH233874   2.740   2.080  13.616  0.5467  0.1028 -0.2511
 4128TIP3    H133875   2.780   2.153  13.568  1.2728 -0.5411 -0.6556
 4128TIP3    H233876   2.677   2.043  13.554 -0.4424  0.8904  0.2560
 4129TIP3   OH233877   2.740   1.896   1.804  0.9790  0.5772 -0.3178
 4129TIP3    H133878   2.723   1.837   1.730  0.4816 -1.1052  1.0597
 4129TIP3    H233879   2.835   1.890   1.817  0.7329 -1.6669  1.0842
 4130TIP3   OH233880   6.026   3.885  13.557 -0.4088  0.4737 -0.0700
 4130TIP3    H133881   6.073   3.865  13.476  0.1947 -0.3214  0.4674
 4130TIP3    H233882   5.946   3.930  13.528  0.9165  2.3726 -0.9861
 4131TIP3   OH233883   6.044   2.158  15.086 -0.0009 -0.1524  0.2070
 4131TIP3    H133884   6.013   2.141  15.174 -0.5229  0.1809  0.0937
 4131TIP3    H233885   6.062   2.253  15.085 -0.9229  0.0268 -0.3216
 4132TIP3   OH233886   1.337   3.755   3.708 -0.4602  0.3220 -0.1229
 4132TIP3    H133887   1.356   3.739   3.801 -1.5458  0.2526  0.1081
 4132TIP3    H233888   1.313   3.848   3.705  2.5914  1.1962 -0.8925
 4133TIP3   OH233889   6.732   1.480   4.606 -0.3328 -0.4683 -0.0652
 4133TIP3    H133890   6.819   1.476   4.646  0.2846 -0.8899 -1.3917
 4133TIP3    H233891   6.696   1.564   4.634  0.6315 -0.1545  0.2533
 4134TIP3   OH233892   2.567   2.710  16.967  0.5926  0.1248 -0.5285
 4134TIP3    H133893   2.624   2.770  16.918  0.2017  2.2514  1.5153
 4134TIP3    H233894   2.581   2.732  17.059 -2.0575 -0.6517  0.1504
 4135TIP3   OH233895   4.157   4.808  15.208 -0.0457  0.2744 -0.0418
 4135TIP3    H133896   4.244   4.780  15.180 -0.0643  0.3545 -0.1788
 4135TIP3    H233897   4.099   4.738  15.181  0.0649 -0.0877  0.6317
 4136TIP3   OH233898   3.412   3.169   4.655  0.1452  0.3592 -0.0929
 4136TIP3    H133899   3.345   3.172   4.724 -1.0280  1.6374 -1.2332
 4136TIP3    H233900   3.371   3.213   4.581  2.0102  0.5115 -1.0659
 4137TIP3   OH233901   1.187   5.636  11.632  0.0147  0.1647 -0.2182
 4137TIP3    H133902   1.165   5.544  11.617 -0.8477  0.2594  0.4051
 4137TIP3    H233903   1.259   5.653  11.571 -0.0324 -0.8276 -0.5772
 4138TIP3   OH233904   5.492   0.702   0.581 -0.2893  0.4501  0.7348
 4138TIP3    H133905   5.429   0.652   0.528  1.9363 -1.9691  0.1137
 4138TIP3    H233906   5.567   0.713   0.522 -0.4849  4.3437  1.0129
 4139TIP3   OH233907   1.778   6.591   5.636  0.0950  0.3392 -0.2261
 4139TIP3    H133908   1.786   6.513   5.581  1.7139  1.0574 -1.0787
 4139TIP3    H233909   1.862   6.597   5.681 -0.2143  1.3024  0.2522
 4140TIP3   OH233910   2.005   1.257   3.206  0.1897  0.2782  0.3510
 4140TIP3    H133911   2.016   1.211   3.122  0.2089  0.4711  0.2481
 4140TIP3    H233912   2.094   1.263   3.241  0.0889 -0.5405  0.7790
 4141TIP3   OH233913   2.515   0.958   4.417 -0.5895  0.1683  0.8521
 4141TIP3    H133914   2.585   0.970   4.481 -1.6148  0.5358  1.9416
 4141TIP3    H233915   2.440   1.003   4.456 -0.9396  1.4581 -1.1714
 4142TIP3   OH233916   6.696   4.117  13.905  0.0121 -0.0563  0.8597
 4142TIP3    H133917   6.601   4.126  13.910  0.0077  0.6718 -0.1733
 4142TIP3    H233918   6.729   4.207  13.902  0.8304 -0.2751  2.3203
 4143TIP3   OH233919   3.248   1.715  17.151 -0.3435 -0.2707  0.1334
 4143TIP3    H133920   3.280   1.628  17.127  0.5556  0.0949 -0.0658
 4143TIP3    H233921   3.154   1.705  17.161 -0.1294 -1.5085  1.1520
 4144TIP3   OH233922   5.744   0.917  15.919 -0.1386  0.4283 -0.0625
 4144TIP3    H133923   5.668   0.931  15.862 -1.0820 -2.1484  0.4231
 4144TIP3    H233924   5.774   0.829  15.897 -0.1582 -0.4337  2.9158
 4145TIP3   OH233925   4.587   6.048  11.817 -0.0394 -0.0965 -0.0200
 4145TIP3    H133926   4.551   5.986  11.879  2.1723 -0.7740  0.6898
 4145TIP3    H233927   4.650   5.997  11.765 -1.5478  0.5152 -2.6497
 4146TIP3   OH233928   0.256   4.596  15.611  0.1948 -0.1716 -0.0098
 4146TIP3    H133929   0.209   4.677  15.589  0.0762 -0.3201 -0.3124
 4146TIP3    H233930   0.326   4.591  15.547  0.7747  0.1710  0.5877
 4147TIP3   OH233931   0.251   0.584   6.204  0.3884 -0.2029  0.2505
 4147TIP3    H133932   0.307   0.571   6.127  2.4239  0.8719  1.4783
 4147TIP3    H233933   0.297   0.539   6.275 -0.5858  0.2477  1.1937
 4148TIP3   OH233934   4.970   6.716   1.125  0.2953 -0.0247 -0.8291
 4148TIP3    H133935   5.053   6.670   1.113  0.5285  0.2289 -0.2263
 4148TIP3    H233936   4.959   6.721   1.220 -0.5980 -0.3947 -0.9006
 4149TIP3   OH233937   6.121   0.110   1.247  0.0071  0.2370 -0.1734
 4149TIP3    H133938   6.212   0.132   1.227  0.0693  2.3430  1.9263
 4149TIP3    H233939   6.069   0.164   1.187  0.1799  0.6814  0.0668
 4150TIP3   OH233940   6.118   2.558   0.587  0.2174  0.1877 -0.1194
 4150TIP3    H133941   6.132   2.509   0.506  1.1075 -1.3120  0.8780
 4150TIP3    H233942   6.048   2.511   0.632  1.1147 -0.2396  0.8783
 4151TIP3   OH233943   4.110   0.515  16.673  0.0222  0.0104 -0.3005
 4151TIP3    H133944   4.144   0.534  16.585  1.1995 -1.3061 -0.1621
 4151TIP3    H233945   4.029   0.466  16.657 -1.0374  1.7684 -0.6257
 4152TIP3   OH233946   4.403   1.851  14.228  0.2461  0.2367  0.1628
 4152TIP3    H133947   4.446   1.883  14.307  1.2463  0.9750 -0.6583
 4152TIP3    H233948   4.315   1.826  14.257  0.8080 -0.1377  1.6327
 4153TIP3   OH233949   2.932   4.945   0.155  0.2392 -0.3422 -0.1207
 4153TIP3    H133950   2.944   4.852   0.174  1.3082 -0.7119 -2.3412
 4153TIP3    H233951   3.004   4.967   0.097 -0.1744  1.8275  0.1248
 4154TIP3   OH233952   4.953   3.162  12.067 -0.2613  0.6808  0.5047
 4154TIP3    H133953   4.951   3.082  12.014 -1.6009  1.1687 -0.2420
 4154TIP3    H233954   4.894   3.222  12.021 -0.4489  1.5746  1.8602
 4155TIP3   OH233955   5.351   6.129   4.572 -0.3510 -0.4898 -0.0036
 4155TIP3    H133956   5.316   6.040   4.561 -0.0575 -0.6236  0.1496
 4155TIP3    H233957   5.330   6.151   4.663 -0.5959 -0.3265 -0.0992
 4156TIP3   OH233958   3.258   2.434   3.565  1.1062  0.4617  0.2415
 4156TIP3    H133959   3.238   2.459   3.475  0.3567 -0.4215  0.1471
 4156TIP3    H233960   3.340   2.384   3.558  0.2824 -0.9030 -0.1873
 4157TIP3   OH233961   1.629   4.887   2.566  0.1621  0.3550 -0.0317
 4157TIP3    H133962   1.685   4.876   2.488 -1.0412 -1.1741 -0.7491
 4157TIP3    H233963   1.560   4.946   2.537  0.2893  0.6275  0.2198
 4158TIP3   OH233964   5.202   4.007  12.526 -0.2991 -0.7385  0.0252
 4158TIP3    H133965   5.115   4.027  12.493 -1.0383 -1.3340  1.4814
 4158TIP3    H233966   5.192   3.922  12.569  0.8874 -0.6037  0.6099
 4159TIP3   OH233967   1.063   6.357  15.675  0.4747 -0.0220  0.3821
 4159TIP3    H133968   1.053   6.405  15.593  0.6507 -0.5633  0.0412
 4159TIP3    H233969   1.073   6.266  15.649 -1.4922 -0.4924  1.0860
 4160TIP3   OH233970   2.646   4.200   0.375  0.2773  0.3723 -0.3789
 4160TIP3    H133971   2.635   4.227   0.284  0.7886  1.4063 -0.1530
 4160TIP3    H233972   2.732   4.159   0.378  0.0090 -0.2125 -0.4717
 4161TIP3   OH233973   4.437   2.078  14.489  0.3531  0.0591  0.5638
 4161TIP3    H133974   4.404   1.993  14.517  0.0977 -0.4559 -1.1760
 4161TIP3    H233975   4.386   2.141  14.539 -0.4938 -0.7805  0.7958
 4162TIP3   OH233976   4.176   6.553  12.543 -0.7837  0.7574  0.0874
 4162TIP3    H133977   4.158   6.518  12.455 -0.6093 -0.6621  0.6016
 4162TIP3    H233978   4.090   6.579  12.576 -0.8904  1.0195 -0.3854
 4163TIP3   OH233979   6.263   6.001   0.279 -0.2268  0.4517  0.0296
 4163TIP3    H133980   6.184   5.947   0.285 -1.0211  1.4637 -0.8826
 4163TIP3    H233981   6.331   5.949   0.322 -1.5343 -0.1252  1.4748
 4164TIP3   OH233982   0.600   6.439  11.566 -0.0797 -0.5191  0.1939
 4164TIP3    H133983   0.615   6.347  11.589 -2.0569 -0.8797  0.2346
 4164TIP3    H233984   0.529   6.436  11.502  0.7121  0.9138 -0.7836
 4165TIP3   OH233985   1.431   5.810   5.122  0.6050 -0.1205 -0.9745
 4165TIP3    H133986   1.393   5.857   5.196  0.0611 -0.3452 -1.1053
 4165TIP3    H233987   1.494   5.749   5.161 -2.4369 -3.0668 -0.2469
 4166TIP3   OH233988   0.272   4.429  16.557  0.9250 -0.2270 -0.5330
 4166TIP3    H133989   0.290   4.522  16.543  2.7149 -0.1434  1.7926
 4166TIP3    H233990   0.237   4.399  16.473 -0.0747  2.5917 -1.2388
 4167TIP3   OH233991   3.730   2.715  12.957  0.0970  0.0768 -0.0950
 4167TIP3    H133992   3.784   2.680  12.886 -0.8047 -0.0831 -0.7226
 4167TIP3    H233993   3.684   2.789  12.918 -0.6610 -0.2158  0.2225
 4168TIP3   OH233994   6.483   2.994  11.123 -0.0506 -0.0110  0.3986
 4168TIP3    H133995   6.390   3.017  11.134  0.6200  2.8322  1.0773
 4168TIP3    H233996   6.525   3.077  11.102  2.4344 -1.1490  0.5773
 4169TIP3   OH233997   6.799   3.346   1.546 -0.3145  0.1272 -0.0972
 4169TIP3    H133998   6.792   3.269   1.602 -1.0848 -0.3312 -0.7934
 4169TIP3    H233999   6.790   3.420   1.605 -0.2553 -0.3287  0.4891
 4170TIP3   OH234000   1.734   2.398  15.430  0.1243 -0.4753  0.1406
 4170TIP3    H134001   1.723   2.431  15.340  1.6091 -0.9302 -0.2442
 4170TIP3    H234002   1.656   2.345  15.446  0.1208 -0.8963 -1.1339
 4171TIP3   OH234003   1.219   3.302   2.771 -0.4254 -0.0161 -0.5116
 4171TIP3    H134004   1.268   3.314   2.689  0.9778  1.0868  0.4398
 4171TIP3    H234005   1.143   3.360   2.761  0.4621  1.1996 -0.5072
 4172TIP3   OH234006   3.020   6.191  11.724  0.3314  0.1840 -1.0037
 4172TIP3    H134007   3.105   6.184  11.766  0.1159  2.4000 -0.0641
 4172TIP3    H234008   3.006   6.285  11.713 -2.0396 -0.0985 -1.0019
 4173TIP3   OH234009   2.872   0.680   2.679  0.4935  0.3630 -0.0810
 4173TIP3    H134010   2.818   0.691   2.758  1.4718  0.1163  0.6379
 4173TIP3    H234011   2.808   0.673   2.608 -0.3895  1.4884  0.5591
 4174TIP3   OH234012   2.345   4.811   1.414  0.3153 -0.5862 -0.3183
 4174TIP3    H134013   2.429   4.769   1.393 -0.4544 -2.0665 -0.5737
 4174TIP3    H234014   2.284   4.738   1.425 -1.6801  0.4701 -3.1811
 4175TIP3   OH234015   4.707   4.692  10.572  0.7100  0.0234 -0.6112
 4175TIP3    H134016   4.776   4.627  10.585 -0.2087 -1.0314 -0.8018
 4175TIP3    H234017   4.751   4.776  10.575  2.2458 -0.6660 -2.2792
 4176TIP3   OH234018   4.345   1.189   1.478 -0.3589  0.2110 -0.4751
 4176TIP3    H134019   4.416   1.191   1.542 -0.9205 -1.1104  0.2217
 4176TIP3    H234020   4.318   1.280   1.469  0.4052  0.5326  0.3985
 4177TIP3   OH234021   1.549   6.499   4.288 -0.1277 -0.0513 -0.3607
 4177TIP3    H134022   1.629   6.507   4.235  0.7394 -1.5148  0.6738
 4177TIP3    H234023   1.482   6.545   4.236  1.2248  0.6755 -1.5461
 4178TIP3   OH234024   2.732   1.290  13.443  0.0295  0.2237 -0.1810
 4178TIP3    H134025   2.814   1.335  13.462  0.1121 -0.2927  0.7496
 4178TIP3    H234026   2.730   1.283  13.347  1.0710  0.2366 -0.2159
 4179TIP3   OH234027   1.102   1.487  14.277 -0.0220 -0.1176 -0.1277
 4179TIP3    H134028   1.014   1.467  14.247 -0.2986  0.6961  0.1008
 4179TIP3    H234029   1.109   1.583  14.269  0.7979 -0.1576 -0.0388
 4180TIP3   OH234030   3.561   1.370  12.663 -0.1234  0.2960 -0.0257
 4180TIP3    H134031   3.555   1.461  12.634  0.9506  0.2746 -0.3710
 4180TIP3    H234032   3.655   1.355  12.676 -0.1672 -1.0692 -1.0482
 4181TIP3   OH234033   6.797   1.302  12.908  0.5488 -0.3726 -0.2465
 4181TIP3    H134034   6.820   1.394  12.923  1.4226 -0.4877 -0.8268
 4181TIP3    H234035   6.875   1.264  12.867  0.6265 -1.6505  1.0142
 4182TIP3   OH234036   3.188   0.977  12.061 -0.2192 -0.2587 -0.7201
 4182TIP3    H134037   3.234   1.027  11.993  0.4072  0.6670  0.3652
 4182TIP3    H234038   3.107   1.026  12.077  1.8636  2.4750  2.7196
 4183TIP3   OH234039   4.146   3.805   5.626 -0.3786  0.5040  0.4037
 4183TIP3    H134040   4.105   3.745   5.563  0.0127  2.3770 -1.7992
 4183TIP3    H234041   4.239   3.783   5.623 -0.3130  0.8172  0.0337
 4184TIP3   OH234042   5.663   1.112   0.241  0.0763  0.0349  0.1801
 4184TIP3    H134043   5.622   1.084   0.323  0.4303 -0.8796  0.0522
 4184TIP3    H234044   5.612   1.188   0.214  0.8790  1.3395  2.0440
 4185TIP3   OH234045   2.439   1.411   6.098 -0.0834  0.2349  0.1291
 4185TIP3    H134046   2.530   1.411   6.129  0.2577  0.1230 -0.8625
 4185TIP3    H234047   2.387   1.420   6.178  0.8491  2.2657  0.5845
 4186TIP3   OH234048   3.643   5.430  11.776 -0.5677 -0.0169  0.3071
 4186TIP3    H134049   3.601   5.354  11.815  0.2441 -0.0890  1.0700
 4186TIP3    H234050   3.648   5.410  11.682  0.2557 -1.2169  0.5860
 4187TIP3   OH234051   5.882   2.612  12.843 -0.1383  0.1573 -0.8381
 4187TIP3    H134052   5.797   2.656  12.846 -0.0417  0.3945 -1.4487
 4187TIP3    H234053   5.921   2.629  12.929 -0.4588  0.5433 -0.7682
 4188TIP3   OH234054   4.699   6.281   5.085  0.1098  0.4254 -0.3417
 4188TIP3    H134055   4.734   6.214   5.143  0.0463  0.3596 -0.3786
 4188TIP3    H234056   4.764   6.351   5.086  0.3801  0.1793 -0.6331
 4189TIP3   OH234057   4.902   1.433   0.491  0.2588  0.3770 -0.5925
 4189TIP3    H134058   4.876   1.397   0.576  1.8110  1.1415  0.2502
 4189TIP3    H234059   4.822   1.431   0.439 -0.4983 -1.0423  0.5488
 4190TIP3   OH234060   4.900   5.816  15.410  0.1863 -0.0210 -0.4692
 4190TIP3    H134061   4.819   5.774  15.439  1.0050 -2.2174 -1.1488
 4190TIP3    H234062   4.960   5.805  15.484  0.3963 -0.0575 -0.6439
 4191TIP3   OH234063   0.374   3.972   2.483  0.1297  0.1019 -0.2824
 4191TIP3    H134064   0.306   3.967   2.551 -0.0921  0.4004 -0.4796
 4191TIP3    H234065   0.423   4.052   2.503 -1.2944  1.4216 -1.7059
 4192TIP3   OH234066   1.321   0.807   6.928  0.5940  0.0043 -0.1335
 4192TIP3    H134067   1.389   0.772   6.870  0.3565 -1.9018  0.6563
 4192TIP3    H234068   1.246   0.821   6.870  0.6452 -1.0139 -0.4767
 4193TIP3   OH234069   5.189   4.651  13.033 -0.1829 -0.6262  0.1157
 4193TIP3    H134070   5.210   4.738  12.998 -0.9477 -0.8076 -0.8492
 4193TIP3    H234071   5.245   4.591  12.985  2.5438 -0.4744  2.8446
 4194TIP3   OH234072   4.114   2.071  15.349  0.2751  0.0890 -0.2751
 4194TIP3    H134073   4.111   2.167  15.339 -2.4000  0.1123 -0.0046
 4194TIP3    H234074   4.040   2.051  15.406 -0.7274 -2.3249 -2.2455
 4195TIP3   OH234075   2.005   5.572   6.243  0.2981  0.4156 -0.0617
 4195TIP3    H134076   2.093   5.587   6.278  0.9194 -0.3564 -1.2226
 4195TIP3    H234077   1.983   5.483   6.270  0.3731  0.1738 -0.7950
 4196TIP3   OH234078   1.918   4.882  13.723  0.3127  0.7339 -0.2229
 4196TIP3    H134079   1.868   4.871  13.642 -0.2280 -0.9983  0.2997
 4196TIP3    H234080   1.909   4.798  13.768  0.4122  1.7258  1.7427
 4197TIP3   OH234081   4.315   6.026   4.754  0.1250 -0.2571 -0.3911
 4197TIP3    H134082   4.402   6.035   4.795 -0.6115  0.6154  1.0833
 4197TIP3    H234083   4.318   6.086   4.680 -0.0730  1.9203  1.2548
 4198TIP3   OH234084   1.517   6.167   2.294  0.0749  0.7787 -0.2582
 4198TIP3    H134085   1.478   6.115   2.365  0.9187 -0.1228 -0.4356
 4198TIP3    H234086   1.467   6.249   2.294 -2.0584 -0.4346 -0.6818
 4199TIP3   OH234087   1.060   4.056   5.350  0.3185  0.5662 -0.1171
 4199TIP3    H134088   1.007   4.064   5.429  0.4433  1.1746 -0.0887
 4199TIP3    H234089   1.035   3.972   5.312 -2.1130  1.6644 -1.1515
 4200TIP3   OH234090   2.096   5.722   0.468  0.1384 -0.0062 -0.3590
 4200TIP3    H134091   2.007   5.711   0.435 -1.1671 -1.9172  3.2975
 4200TIP3    H234092   2.101   5.815   0.491 -1.6770 -0.2073  1.1190
 4201TIP3   OH234093   2.610   1.804  14.270  0.2771 -0.3699 -0.0972
 4201TIP3    H134094   2.524   1.801  14.312  0.7559 -0.1866  0.9258
 4201TIP3    H234095   2.667   1.845  14.335  0.8464  0.8115 -1.3061
 4202TIP3   OH234096   4.420   3.384   5.168  0.3040  0.0605 -0.2732
 4202TIP3    H134097   4.428   3.436   5.248 -1.0184  0.6978 -0.5337
 4202TIP3    H234098   4.429   3.294   5.198 -3.3452  0.0174  1.1730
 4203TIP3   OH234099   0.705   1.804  11.938  0.1792  0.6944 -0.0978
 4203TIP3    H134100   0.652   1.841  12.009 -0.6857 -1.7179  0.6294
 4203TIP3    H234101   0.780   1.765  11.982  1.6974  2.5318 -0.9555
 4204TIP3   OH234102   3.625   4.125   2.336 -0.4991  0.5857 -0.3050
 4204TIP3    H134103   3.705   4.118   2.388 -0.4851 -1.5459 -0.5257
 4204TIP3    H234104   3.554   4.127   2.400 -0.3759  0.0363 -0.1450
 4205TIP3   OH234105   3.014   5.092  11.092  0.1736 -0.4932 -0.1144
 4205TIP3    H134106   3.108   5.076  11.103  0.2844  0.5914  0.7942
 4205TIP3    H234107   2.995   5.066  11.003  1.8047  1.2815 -1.0608
 4206TIP3   OH234108   0.689   4.996  12.372  0.4986  0.6105 -0.5662
 4206TIP3    H134109   0.652   5.062  12.430 -0.2717  0.3293 -0.7307
 4206TIP3    H234110   0.700   4.919  12.427 -0.6706  0.1961 -0.8815
 4207TIP3   OH234111   2.078   3.683  13.637  0.1582  0.1226  0.5646
 4207TIP3    H134112   2.054   3.689  13.729  0.1253 -1.2580  0.6682
 4207TIP3    H234113   1.998   3.704  13.589  0.5393  2.3393  0.7922
 4208TIP3   OH234114   4.207   2.462   0.398 -0.2417 -0.0048 -0.0307
 4208TIP3    H134115   4.142   2.446   0.329 -2.0363 -0.8970  1.7673
 4208TIP3    H234116   4.250   2.378   0.411  1.0142  0.4803 -0.9143
 4209TIP3   OH234117   1.908   3.472   3.274 -0.3782  0.0729 -0.0602
 4209TIP3    H134118   1.837   3.426   3.320  0.3552 -0.4782  0.5466
 4209TIP3    H234119   1.987   3.448   3.323  0.2246  0.6862 -0.7247
 4210TIP3   OH234120   2.909   6.763   3.066  0.2089 -0.0232  0.1063
 4210TIP3    H134121   2.950   6.677   3.080  0.1150 -0.0210  0.3923
 4210TIP3    H234122   2.844   6.747   2.998 -1.8240 -0.8318  2.1131
 4211TIP3   OH234123   1.971   5.439   2.456 -0.7116 -0.1681  0.1633
 4211TIP3    H134124   2.002   5.461   2.544 -1.4994  0.2609  0.3436
 4211TIP3    H234125   1.880   5.467   2.455 -0.8282 -0.5458 -0.6614
 4212TIP3   OH234126   5.148   5.741   4.665 -0.2813 -0.6383 -0.5672
 4212TIP3    H134127   5.146   5.654   4.625  0.3562 -0.7197 -0.4280
 4212TIP3    H234128   5.133   5.725   4.758 -0.2314 -0.5920 -0.5515
 4213TIP3   OH234129   6.323   1.240   3.426  0.1014 -0.0605  0.3891
 4213TIP3    H134130   6.342   1.332   3.446  0.4959 -0.1192  0.2746
 4213TIP3    H234131   6.342   1.231   3.333 -0.4761 -0.1216  0.2713
 4214TIP3   OH234132   2.611   6.672  17.155 -0.2614 -0.3145  0.0457
 4214TIP3    H134133   2.660   6.717  17.086 -1.8461 -2.7962 -2.9629
 4214TIP3    H234134   2.541   6.733  17.178  0.7745  0.8940  0.1440
 4215TIP3   OH234135   0.295   3.036  12.720  0.2626 -0.2154  0.6462
 4215TIP3    H134136   0.297   3.125  12.687 -1.1784 -0.5480 -0.4793
 4215TIP3    H234137   0.245   3.041  12.801  0.1701  0.0070  0.5744
 4216TIP3   OH234138   6.792   1.736   4.323 -1.4201 -0.5925 -0.1355
 4216TIP3    H134139   6.707   1.720   4.282 -1.8008  2.0807 -0.5470
 4216TIP3    H234140   6.779   1.815   4.376  1.0638  0.6194 -1.1591
 4217TIP3   OH234141   0.633   4.687   6.789 -0.4178 -0.5394  0.0396
 4217TIP3    H134142   0.660   4.779   6.789 -0.2413 -0.5663 -1.3993
 4217TIP3    H234143   0.592   4.675   6.703  0.4727 -2.0467 -0.1994
 4218TIP3   OH234144   2.036   6.344  11.882  0.3799  0.5183 -0.0818
 4218TIP3    H134145   1.979   6.420  11.878  0.2372  0.5116  1.2177
 4218TIP3    H234146   2.004   6.294  11.958 -1.7548 -2.6710 -2.7728
 4219TIP3   OH234147   6.511   2.095   2.479 -0.7511  0.0597 -0.2479
 4219TIP3    H134148   6.577   2.160   2.454 -0.8802 -0.0453 -0.8897
 4219TIP3    H234149   6.498   2.043   2.399 -1.5638  0.0452 -0.1132
 4220TIP3   OH234150   2.284   4.137   4.300  0.2065  0.1316  0.4960
 4220TIP3    H134151   2.327   4.221   4.314  1.4332 -0.4268  0.2132
 4220TIP3    H234152   2.338   4.093   4.234 -0.8110 -0.5983  0.1138
 4221TIP3   OH234153   4.680   2.322   3.344 -0.6350  0.1346 -0.0111
 4221TIP3    H134154   4.696   2.343   3.436 -0.7554  1.5473 -0.3009
 4221TIP3    H234155   4.752   2.264   3.320 -0.1891  0.3610  0.7587
 4222TIP3   OH234156   6.391   6.092  11.670  0.0395 -0.1926  0.0049
 4222TIP3    H134157   6.305   6.134  11.666 -0.0529 -0.1369  1.9714
 4222TIP3    H234158   6.374   6.000  11.650 -0.2990  0.0125 -0.6938
 4223TIP3   OH234159   5.034   3.535  11.807  0.0211 -0.6525  0.3545
 4223TIP3    H134160   5.074   3.529  11.720 -0.7782 -1.5013  0.0290
 4223TIP3    H234161   4.939   3.536  11.790 -0.1293  0.0282  1.1716
 4224TIP3   OH234162   6.210   0.312   2.172 -0.1859  0.7290 -0.6844
 4224TIP3    H134163   6.114   0.312   2.178 -0.2826  3.7601 -0.9561
 4224TIP3    H234164   6.237   0.244   2.233 -2.5059 -1.0844 -1.5117
 4225TIP3   OH234165   2.963   5.261   4.398  0.0088  0.2891 -0.2649
 4225TIP3    H134166   2.963   5.306   4.482  0.2588  0.0512 -0.1344
 4225TIP3    H234167   3.053   5.233   4.386 -0.0689  0.1440 -0.5168
 4226TIP3   OH234168   4.317   2.468   3.679  0.3272  0.3623  0.6688
 4226TIP3    H134169   4.284   2.437   3.594  0.5400  3.0626 -0.4748
 4226TIP3    H234170   4.398   2.419   3.692  0.5927  0.3127 -0.9795
 4227TIP3   OH234171   1.085   6.690  11.472  0.1038 -0.2654 -0.4050
 4227TIP3    H134172   0.991   6.689  11.487  0.2625 -0.1873  0.6781
 4227TIP3    H234173   1.098   6.758  11.405 -0.6321 -0.4922 -0.7867
 4228TIP3   OH234174   0.797   1.645  14.838  0.2690 -0.1005  0.4504
 4228TIP3    H134175   0.817   1.729  14.796  0.3018  0.4472  1.5169
 4228TIP3    H234176   0.779   1.586  14.766 -0.0253  0.8987 -0.3194
 4229TIP3   OH234177   4.289   5.511   1.789 -0.2419  0.2748  0.3920
 4229TIP3    H134178   4.250   5.430   1.758 -1.8202  0.8576  0.7806
 4229TIP3    H234179   4.352   5.483   1.856 -0.9422 -0.6140  0.6974
 4230TIP3   OH234180   4.055   3.922  16.941 -0.0651  0.3145 -0.1686
 4230TIP3    H134181   4.009   3.993  16.986 -0.1618 -0.9466  1.8853
 4230TIP3    H234182   4.097   3.873  17.012 -1.5884 -2.7706 -1.2166
 4231TIP3   OH234183   4.143   6.455  15.857  0.3863  0.1753  0.4665
 4231TIP3    H134184   4.112   6.461  15.767 -0.9569  0.3023  0.9098
 4231TIP3    H234185   4.137   6.362  15.878  0.8498  0.1254  0.3677
 4232TIP3   OH234186   1.392   0.568  11.219  0.1038  0.3056  0.3707
 4232TIP3    H134187   1.418   0.525  11.138 -0.1299 -1.3644  1.1514
 4232TIP3    H234188   1.467   0.559  11.277 -0.6145 -0.7519  1.1780
 4233TIP3   OH234189   3.360   3.317  13.271 -0.3387  0.6802 -0.1606
 4233TIP3    H134190   3.421   3.348  13.204 -1.7566 -0.2499 -1.9909
 4233TIP3    H234191   3.415   3.277  13.338  1.0745  0.3284 -1.4852
 4234TIP3   OH234192   3.939   4.800  12.582 -0.0135  0.0924 -0.5203
 4234TIP3    H134193   3.961   4.714  12.546 -0.8340  0.4168 -1.8533
 4234TIP3    H234194   3.845   4.810  12.565  0.0942  1.2923 -0.4758
 4235TIP3   OH234195   3.289   3.907  16.629 -0.3340 -0.4153 -0.1206
 4235TIP3    H134196   3.266   3.995  16.599 -0.1531 -0.5829 -0.7580
 4235TIP3    H234197   3.339   3.921  16.709  1.1638  0.1390 -1.1278
 4236TIP3   OH234198   0.377   5.359   1.915 -0.3020  0.2840 -0.2783
 4236TIP3    H134199   0.344   5.289   1.859 -1.0230 -1.6893  2.4010
 4236TIP3    H234200   0.299   5.407   1.943 -0.3168 -0.5597  1.2376
 4237TIP3   OH234201   5.923   5.215  14.197 -0.2042 -0.7710  0.0214
 4237TIP3    H134202   6.010   5.230  14.159 -0.4230 -0.5288 -0.3792
 4237TIP3    H234203   5.938   5.221  14.292  0.3258 -1.3167 -0.0196
 4238TIP3   OH234204   6.186   0.500  12.495 -0.2281 -0.0789 -0.5918
 4238TIP3    H134205   6.218   0.430  12.551 -1.1355  0.6649  0.9305
 4238TIP3    H234206   6.101   0.524  12.532 -0.7613  0.6249 -2.1540
 4239TIP3   OH234207   5.721   1.358   4.224 -0.4154 -0.7274 -0.0294
 4239TIP3    H134208   5.691   1.365   4.134 -0.1572  2.9748 -0.0124
 4239TIP3    H234209   5.642   1.344   4.275 -0.8721 -0.4993 -0.6682
 4240TIP3   OH234210   5.763   5.253   4.991 -0.3364 -0.1648  0.0911
 4240TIP3    H134211   5.774   5.257   5.086  1.1275  1.9068 -0.1099
 4240TIP3    H234212   5.788   5.164   4.968 -0.1903 -0.5350  1.5889
 4241TIP3   OH234213   3.108   6.248   2.457 -0.7331 -0.3598  0.2267
 4241TIP3    H134214   3.036   6.233   2.518 -2.1386 -1.2879 -1.5587
 4241TIP3    H234215   3.079   6.208   2.375  0.1206  2.5937 -1.7055
 4242TIP3   OH234216   0.009   1.059  14.685 -0.6974 -0.1667  0.2119
 4242TIP3    H134217   0.042   1.091  14.601 -2.3213 -0.4955 -0.5991
 4242TIP3    H234218   0.086   1.051  14.740  0.9889 -2.9859 -2.2271
 4243TIP3   OH234219   3.240   6.367   3.954  0.1434 -0.2496  0.6193
 4243TIP3    H134220   3.237   6.292   3.895  0.0097  1.9563 -2.3874
 4243TIP3    H234221   3.163   6.420   3.930 -0.3943  0.3867  3.3941
 4244TIP3   OH234222   2.036   4.418   0.730  0.1074  0.0563 -0.0538
 4244TIP3    H134223   2.027   4.364   0.651  0.2968  0.5760 -0.4286
 4244TIP3    H234224   1.947   4.448   0.748 -0.1327 -0.9982  0.5986
 4245TIP3   OH234225   3.803   2.584   4.398 -0.0318 -0.1247 -0.2788
 4245TIP3    H134226   3.728   2.636   4.428 -0.0746  0.3101 -1.1216
 4245TIP3    H234227   3.875   2.612   4.454 -0.4464 -0.4177  0.4229
 4246TIP3   OH234228   3.333   3.272   4.417  0.3235  0.1600 -0.3974
 4246TIP3    H134229   3.304   3.361   4.400  3.2454  1.2828 -0.0877
 4246TIP3    H234230   3.361   3.239   4.332 -0.7161 -0.4777 -0.5054
 4247TIP3   OH234231   6.431   6.565  14.051  0.2113  0.3523  0.2492
 4247TIP3    H134232   6.339   6.590  14.057  0.6253  2.3842 -0.7781
 4247TIP3    H234233   6.430   6.470  14.056 -1.7648  0.3815  1.9833
 4248TIP3   OH234234   1.435   2.794  15.453 -0.5848 -0.7609 -0.2787
 4248TIP3    H134235   1.501   2.774  15.386 -0.7433  0.7522 -0.9259
 4248TIP3    H234236   1.368   2.727  15.440 -0.7431 -0.3535 -1.8486
 4249TIP3   OH234237   3.719   2.922  17.277 -0.2413 -0.6019  0.4256
 4249TIP3    H134238   3.786   2.864  17.241 -0.5596 -2.2701  2.3312
 4249TIP3    H234239   3.758   2.956  17.358 -1.8442 -2.1622  1.9593
 4250TIP3   OH234240   1.554   3.842   0.761  0.0282 -0.1267  0.3138
 4250TIP3    H134241   1.593   3.760   0.790  0.5744 -0.6941 -1.8371
 4250TIP3    H234242   1.621   3.881   0.705 -0.4867  1.4930  0.7715
 4251TIP3   OH234243   4.163   5.556   0.974  0.3138  0.1860  0.0950
 4251TIP3    H134244   4.206   5.477   1.008  1.0816 -0.4704 -2.2494
 4251TIP3    H234245   4.166   5.546   0.879 -0.7592  2.4425 -0.2304
 4252TIP3   OH234246   6.072   0.329  14.195  0.0130 -0.6621  0.0498
 4252TIP3    H134247   6.083   0.420  14.225 -1.0891 -0.7470  0.7739
 4252TIP3    H234248   6.137   0.280  14.245 -1.1984 -0.6590  1.7164
 4253TIP3   OH234249   3.131   5.164  12.148 -0.1587  0.1856  0.2452
 4253TIP3    H134250   3.038   5.148  12.135 -1.1178  2.8822  2.7295
 4253TIP3    H234251   3.144   5.151  12.242  1.4285  2.1201  0.3409
 4254TIP3   OH234252   4.315   2.010   1.375 -0.1401  0.4633 -0.8393
 4254TIP3    H134253   4.258   1.956   1.320 -1.3092 -0.0344  0.7699
 4254TIP3    H234254   4.401   2.004   1.335 -0.7785 -0.5530 -2.1133
 4255TIP3   OH234255   3.608   5.964   3.779 -0.2660 -0.7324  0.1885
 4255TIP3    H134256   3.614   6.023   3.704 -1.4893  1.0711  1.4056
 4255TIP3    H234257   3.691   5.975   3.826 -0.7154  0.5492  0.7277
 4256TIP3   OH234258   4.674   6.474   2.059  0.0908  0.1143 -0.1150
 4256TIP3    H134259   4.738   6.404   2.075  0.6583  0.9385  1.3915
 4256TIP3    H234260   4.591   6.437   2.089  0.2592 -0.1727  0.0092
 4257TIP3   OH234261   5.926   0.279  11.698  0.0613 -0.5239 -0.3504
 4257TIP3    H134262   5.964   0.360  11.662 -0.6708  0.1167  0.2815
 4257TIP3    H234263   5.872   0.245  11.627  0.5516 -0.5833 -0.7001
 4258TIP3   OH234264   3.839   4.869   1.768  0.0960 -0.5618 -0.5195
 4258TIP3    H134265   3.880   4.877   1.682  0.6646  2.1081 -0.0792
 4258TIP3    H234266   3.749   4.844   1.750  0.3395 -0.5499 -1.8404
 4259TIP3   OH234267   2.935   1.440  16.032  0.1567 -0.6398  0.2074
 4259TIP3    H134268   2.983   1.440  16.114  2.6740 -1.1333 -1.1567
 4259TIP3    H234269   2.908   1.349  16.020  2.0524 -1.1522 -0.6468
 4260TIP3   OH234270   6.802   1.538   3.720 -0.1052 -0.4199 -0.0162
 4260TIP3    H134271   6.712   1.559   3.694 -0.1515  1.3023  1.3437
 4260TIP3    H234272   6.793   1.488   3.801  0.1597 -0.9295 -0.2938
 4261TIP3   OH234273   4.738   6.761  13.795  0.2813  0.2899  0.0634
 4261TIP3    H134274   4.817   6.793  13.838  0.4353 -0.0989  0.0747
 4261TIP3    H234275   4.680   6.837  13.790  0.2881  0.3579  0.8904
 4262TIP3   OH234276   3.750   1.783  11.678  0.7114 -0.0569 -0.1188
 4262TIP3    H134277   3.760   1.722  11.751  0.2404  1.3123  1.1376
 4262TIP3    H234278   3.657   1.807  11.679  0.7240  0.0750 -1.0968
 4263TIP3   OH234279   3.585   0.063  11.455  0.0358  0.0764  0.6693
 4263TIP3    H134280   3.534  -0.018  11.461 -1.1751  0.8896  1.7036
 4263TIP3    H234281   3.548   0.121  11.521  0.3253  1.7982 -0.5950
 4264TIP3   OH234282   3.307   1.406  16.213  0.4182 -0.0780  0.1637
 4264TIP3    H134283   3.223   1.384  16.252  0.2583 -1.0719 -0.6829
 4264TIP3    H234284   3.358   1.326  16.219  0.5279 -0.1460 -1.2442
 4265TIP3   OH234285   4.921   5.781   2.910 -0.5167  0.0031 -0.7446
 4265TIP3    H134286   4.861   5.820   2.974  1.3386  0.9684  0.5027
 4265TIP3    H234287   4.940   5.852   2.848 -1.4516 -0.6115 -1.7742
 4266TIP3   OH234288   2.491   6.096  16.822  0.3552 -0.1375 -0.7915
 4266TIP3    H134289   2.414   6.118  16.770 -1.6565  1.3917  2.4451
 4266TIP3    H234290   2.472   6.009  16.857  0.2964  0.0363 -0.3832
 4267TIP3   OH234291   4.821   0.298  11.441  0.1608 -0.8518 -0.2242
 4267TIP3    H134292   4.745   0.339  11.400 -1.1902 -0.4080  2.4744
 4267TIP3    H234293   4.807   0.204  11.430 -0.3482 -0.7509 -0.4414
 4268TIP3   OH234294   2.644   6.318   3.114 -0.1413 -0.1645 -0.3927
 4268TIP3    H134295   2.556   6.335   3.146  0.2355 -0.3516  0.8374
 4268TIP3    H234296   2.701   6.360   3.179  0.6941 -1.6673 -0.0994
 4269TIP3   OH234297   1.716   4.180   6.460  0.1379  0.1465 -0.7224
 4269TIP3    H134298   1.711   4.276   6.467 -3.1517  0.1989 -2.2101
 4269TIP3    H234299   1.704   4.149   6.550 -1.2990  1.1386 -0.5392
 4270TIP3   OH234300   5.725   0.367   4.431  0.1460 -0.3441  0.4460
 4270TIP3    H134301   5.654   0.313   4.466 -0.6203  0.6937  0.5526
 4270TIP3    H234302   5.681   0.447   4.401  0.8396 -0.9022 -2.3072
 4271TIP3   OH234303   4.029   4.520  14.095 -0.7053 -0.0706 -0.3258
 4271TIP3    H134304   4.032   4.580  14.169 -1.0514 -0.2277 -0.1850
 4271TIP3    H234305   3.970   4.563  14.033 -1.3261 -0.4877 -0.0293
 4272TIP3   OH234306   2.416   4.926   4.069  0.3253 -0.6972  0.0034
 4272TIP3    H134307   2.507   4.949   4.088  1.0388 -1.3443 -2.2482
 4272TIP3    H234308   2.422   4.841   4.025 -1.5022 -1.3255  0.8864
 4273TIP3   OH234309   5.720   5.629  16.009 -0.1897  0.4383 -0.3718
 4273TIP3    H134310   5.777   5.630  15.933 -1.0232  3.5076 -1.0917
 4273TIP3    H234311   5.672   5.546  16.003  0.3598  0.2363 -2.7296
 4274TIP3   OH234312   3.135   1.970   0.917  0.6124  0.5580 -0.0329
 4274TIP3    H134313   3.111   1.905   0.982 -2.1939 -1.1520 -2.5262
 4274TIP3    H234314   3.064   2.034   0.919  0.5759  0.5797 -1.2539
 4275TIP3   OH234315   6.456   5.029   4.016  0.5829 -0.2384 -0.1279
 4275TIP3    H134316   6.379   4.991   3.974  0.1424  0.9201 -0.4034
 4275TIP3    H234317   6.432   5.034   4.109 -0.2391  1.3464 -0.3859
 4276TIP3   OH234318   5.203   5.921  11.893  0.2160 -0.0705  0.7380
 4276TIP3    H134319   5.155   5.878  11.822 -0.3308  1.4027  0.1714
 4276TIP3    H234320   5.158   5.893  11.973 -1.7596  1.3717  0.2169
 4277TIP3   OH234321   1.345   6.471  13.950  0.0835  0.3605 -0.2727
 4277TIP3    H134322   1.305   6.509  13.872 -0.5351 -0.3337 -0.3027
 4277TIP3    H234323   1.328   6.377  13.942  0.0813  0.2776  0.6601
 4278TIP3   OH234324   4.234   4.017  12.168 -0.5769  0.2580  0.0073
 4278TIP3    H134325   4.244   4.109  12.194 -1.5273  0.1284  0.8892
 4278TIP3    H234326   4.224   4.020  12.073 -3.9056  1.4281  0.2615
 4279TIP3   OH234327   5.025   2.534  13.994 -0.9905  0.0473  0.4789
 4279TIP3    H134328   5.010   2.500  14.083 -1.4774  0.2912  0.4940
 4279TIP3    H234329   5.088   2.604  14.006 -1.6685  0.6279  0.7501
 4280TIP3   OH234330   6.458   2.181   3.410  0.0231 -0.3675 -0.6698
 4280TIP3    H134331   6.471   2.110   3.347 -0.6646  0.5459 -1.8943
 4280TIP3    H234332   6.367   2.209   3.397  0.2123  0.5852 -0.0628
 4281TIP3   OH234333   4.905   0.025  15.195  0.0071 -0.1741 -0.4788
 4281TIP3    H134334   4.913   0.071  15.278 -0.1082  0.7123 -0.9435
 4281TIP3    H234335   4.971  -0.044  15.199  0.5739  0.3884  0.0108
 4282TIP3   OH234336   0.647   5.567   0.903  0.6016 -0.3138  0.0473
 4282TIP3    H134337   0.652   5.647   0.955  0.1478  0.6963 -1.3893
 4282TIP3    H234338   0.729   5.565   0.854  0.0541  0.0424 -0.9341
 4283TIP3   OH234339   3.659   5.103   1.893 -0.0599  0.0773 -0.0633
 4283TIP3    H134340   3.615   5.046   1.830  1.0199 -0.1368 -0.6497
 4283TIP3    H234341   3.598   5.175   1.907 -0.6343 -0.2633 -0.7732
 4284TIP3   OH234342   5.669   1.507  11.636  0.3094 -0.0314 -0.1399
 4284TIP3    H134343   5.650   1.581  11.694 -1.2531 -0.8384  0.4475
 4284TIP3    H234344   5.632   1.534  11.551  0.6841  0.2859 -0.2030
 4285TIP3   OH234345   1.070   4.375  16.319  0.3976 -0.5416 -0.8508
 4285TIP3    H134346   1.114   4.361  16.402  2.7048  1.9044 -1.5135
 4285TIP3    H234347   1.092   4.298  16.266  2.7434 -0.0880 -0.6302
 4286TIP3   OH234348   5.965   1.040  12.821  0.0726  0.8677  0.2933
 4286TIP3    H134349   5.977   1.000  12.907  1.9836  2.2793  0.7406
 4286TIP3    H234350   6.020   0.989  12.762 -1.6518 -0.4402 -0.2689
 4287TIP3   OH234351   2.589   2.702   3.615  0.0503  0.2655  0.2088
 4287TIP3    H134352   2.562   2.698   3.707  0.7406  0.3578  0.4181
 4287TIP3    H234353   2.509   2.680   3.567 -0.2772  0.0404  0.8300
 4288TIP3   OH234354   2.193   4.796  11.755  0.0277  0.6021 -0.9570
 4288TIP3    H134355   2.138   4.718  11.750 -1.0699  1.4368 -3.3469
 4288TIP3    H234356   2.265   4.779  11.695  2.8696 -0.6666  2.4592
 4289TIP3   OH234357   5.322   1.841  14.144  0.1323  0.1683 -0.0648
 4289TIP3    H134358   5.411   1.808  14.150  0.2141 -0.0045 -1.6762
 4289TIP3    H234359   5.272   1.787  14.205  1.0014 -0.1922  0.3401
 4290TIP3   OH234360   2.711   5.372  13.055 -0.1808  0.4511 -0.6940
 4290TIP3    H134361   2.778   5.308  13.079  0.3153  1.2835  0.1857
 4290TIP3    H234362   2.727   5.447  13.112 -1.6261  0.8254 -0.7324
 4291TIP3   OH234363   6.434   2.172   2.727 -0.3663  0.3279  0.0925
 4291TIP3    H134364   6.469   2.148   2.641  1.5198  1.4853  0.4701
 4291TIP3    H234365   6.437   2.267   2.728 -1.2804  0.3561  1.0892
 4292TIP3   OH234366   2.562   2.585  16.134 -0.7053 -0.1190  0.0794
 4292TIP3    H134367   2.564   2.559  16.042  0.3130 -0.6295  0.2364
 4292TIP3    H234368   2.603   2.512  16.181 -2.3363 -0.4400  1.0885
 4293TIP3   OH234369   3.495   5.049  12.467  0.2524 -0.5740 -0.2475
 4293TIP3    H134370   3.403   5.030  12.449 -0.2154  0.5053  0.8470
 4293TIP3    H234371   3.528   5.086  12.385 -0.6701  0.2673 -0.2614
 4294TIP3   OH234372   6.658   4.864  12.185  0.0055  0.1790 -0.3762
 4294TIP3    H134373   6.571   4.865  12.145  0.7246  0.1706 -2.0294
 4294TIP3    H234374   6.700   4.945  12.155  0.8520 -0.2175 -0.3008
 4295TIP3   OH234375   0.414   0.632   5.241  0.3198 -0.2232 -0.2681
 4295TIP3    H134376   0.412   0.551   5.191  0.1476 -2.2957  2.8439
 4295TIP3    H234377   0.326   0.641   5.277  0.4009  1.2715 -0.3613
 4296TIP3   OH234378   0.517   2.436  14.888 -0.0084 -0.0477 -0.5122
 4296TIP3    H134379   0.489   2.442  14.979 -0.2191 -1.0192 -0.4983
 4296TIP3    H234380   0.612   2.428  14.892 -0.0540 -0.5195 -0.3506
 4297TIP3   OH234381   2.137   4.709   1.157 -0.1492  0.5524  0.3364
 4297TIP3    H134382   2.138   4.802   1.180 -0.6421  0.7019 -0.2162
 4297TIP3    H234383   2.213   4.697   1.100 -0.0923  0.6240  0.3978
 4298TIP3   OH234384   3.808   4.003  16.467  0.1184 -0.0064  0.0351
 4298TIP3    H134385   3.758   3.933  16.425 -1.7308 -1.0265  3.6240
 4298TIP3    H234386   3.743   4.057  16.511  1.8626  1.4992  0.9251
 4299TIP3   OH234387   5.661   3.936  15.254 -0.2303  0.2213 -0.2149
 4299TIP3    H134388   5.661   4.021  15.210 -3.4718 -0.1535 -1.1505
 4299TIP3    H234389   5.711   3.879  15.196  1.3571  1.2335  0.0707
 4300TIP3   OH234390   2.974   6.329  10.497 -0.4044  0.2872 -0.7953
 4300TIP3    H134391   3.042   6.383  10.538  0.4006 -0.6246 -0.8892
 4300TIP3    H234392   2.908   6.392  10.468  0.2214  1.1674 -0.3722
 4301TIP3   OH234393   1.630   6.237   0.009 -0.4723 -0.0575 -0.1645
 4301TIP3    H134394   1.577   6.171  -0.035 -1.9290 -0.0073  1.3917
 4301TIP3    H234395   1.595   6.240   0.098  2.0316  0.1597  0.8937
 4302TIP3   OH234396   1.735   6.568  16.257 -0.1960  0.5328  0.4927
 4302TIP3    H134397   1.690   6.570  16.173  0.5167 -0.6575  0.0469
 4302TIP3    H234398   1.808   6.629  16.248  0.9749 -0.9317 -0.4551
 4303TIP3   OH234399   4.962   3.161   4.988  0.5038  0.1701  0.5258
 4303TIP3    H134400   4.886   3.159   5.046 -0.7506  1.9723 -0.9613
 4303TIP3    H234401   5.007   3.242   5.010  1.2253 -0.1881  0.4104
 4304TIP3   OH234402   2.428   2.073  16.810 -0.7362 -0.3198 -0.5847
 4304TIP3    H134403   2.387   2.063  16.724 -0.2872 -0.4741 -0.7856
 4304TIP3    H234404   2.483   2.151  16.801  0.8312 -1.4309 -1.0626
 4305TIP3   OH234405   1.596   5.207  16.828  0.1563  0.5440 -0.1652
 4305TIP3    H134406   1.657   5.137  16.805 -0.9473 -1.3111  2.0854
 4305TIP3    H234407   1.515   5.184  16.781 -1.2862 -1.8164  3.0284
 4306TIP3   OH234408   5.177   0.989   2.395 -0.0312 -0.8312  0.2404
 4306TIP3    H134409   5.253   0.957   2.443 -0.6411 -0.2069  1.7109
 4306TIP3    H234410   5.165   1.079   2.426  0.3478  0.1308 -2.1560
 4307TIP3   OH234411   3.586   1.993  14.697 -0.2681 -0.1782  0.1285
 4307TIP3    H134412   3.554   1.955  14.615  1.7329  0.7814 -1.1849
 4307TIP3    H234413   3.591   2.087  14.679  1.1032 -0.0681  1.0009
 4308TIP3   OH234414   4.878   1.495   2.948  0.2157 -0.1448 -0.0429
 4308TIP3    H134415   4.819   1.567   2.929 -0.5069  0.0592  2.5665
 4308TIP3    H234416   4.966   1.532   2.937 -0.0488 -0.0472 -2.5009
 4309TIP3   OH234417   1.797   1.011   2.688 -0.1966  0.8309 -0.0128
 4309TIP3    H134418   1.813   1.086   2.745  0.4396  0.8404 -0.1945
 4309TIP3    H234419   1.723   0.966   2.728  1.4728 -0.3059  2.0028
 4310TIP3   OH234420   3.102   3.593   3.112 -0.4820 -0.0195  0.3624
 4310TIP3    H134421   3.057   3.551   3.038  1.2004 -2.1053  0.4214
 4310TIP3    H234422   3.110   3.685   3.087 -0.3665 -0.5830 -1.8729
 4311TIP3   OH234423   4.916   0.997   2.613 -0.3667 -0.4033 -0.1797
 4311TIP3    H134424   4.866   1.035   2.541 -0.1137 -0.4797 -0.3991
 4311TIP3    H234425   4.861   0.926   2.646 -1.7734  1.3914  1.5531
 4312TIP3   OH234426   5.286   5.482   5.687 -0.0610  0.0490  0.3397
 4312TIP3    H134427   5.254   5.398   5.722 -1.0107 -0.0936 -0.8028
 4312TIP3    H234428   5.218   5.545   5.711  0.6981  0.5329  1.2812
 4313TIP3   OH234429   4.783   4.812  10.260 -0.3194  0.3260 -0.2286
 4313TIP3    H134430   4.870   4.779  10.237 -0.5754 -1.2150  0.7844
 4313TIP3    H234431   4.799   4.894  10.306  0.5738  0.2212 -0.3411
 4314TIP3   OH234432   3.342   3.198   1.881  0.4258  0.0248  0.6666
 4314TIP3    H134433   3.385   3.219   1.964  2.1813  0.1731 -0.2132
 4314TIP3    H234434   3.406   3.225   1.814 -0.6365 -0.7357 -0.7051
 4315TIP3   OH234435   1.893   5.514   3.864 -0.1280 -0.3525 -0.0678
 4315TIP3    H134436   1.864   5.499   3.774  0.9604  1.4012 -0.7489
 4315TIP3    H234437   1.921   5.427   3.894  2.6145 -0.4884 -2.5938
 4316TIP3   OH234438   5.659   4.451  15.467  0.4469  0.9137 -0.1215
 4316TIP3    H134439   5.612   4.490  15.394  1.5265  0.4134 -1.1337
 4316TIP3    H234440   5.666   4.358  15.444 -1.5988  0.1604  1.9637
 4317TIP3   OH234441   4.198   2.092  13.083  0.6224 -0.0663  0.7209
 4317TIP3    H134442   4.266   2.132  13.029  0.7728 -1.6516 -0.3647
 4317TIP3    H234443   4.233   2.095  13.172  1.9095 -0.3869  0.2509
 4318TIP3   OH234444   4.555   0.220   3.202  0.2543 -0.6778 -0.0338
 4318TIP3    H134445   4.602   0.161   3.260  0.3469 -0.7505 -0.1828
 4318TIP3    H234446   4.465   0.188   3.203 -0.0301  0.0874  1.0791
 4319TIP3   OH234447   4.821   4.334  10.947 -0.2750 -0.0454  0.3702
 4319TIP3    H134448   4.776   4.418  10.938  0.7506  0.4587 -0.3219
 4319TIP3    H234449   4.866   4.321  10.864  1.1488 -0.3197  1.1396
 4320TIP3   OH234450   5.283   1.191   4.243  0.3635  0.4962 -0.2562
 4320TIP3    H134451   5.222   1.142   4.299 -0.9814  0.6648 -1.5186
 4320TIP3    H234452   5.233   1.267   4.215  0.2610 -0.5172 -3.1894
 4321TIP3   OH234453   1.239   6.389   6.081 -0.7057  0.0537 -0.0260
 4321TIP3    H134454   1.306   6.455   6.098 -2.7765  2.0159  0.9770
 4321TIP3    H234455   1.212   6.359   6.168  0.8047 -2.9227 -0.4392
 4322TIP3   OH234456   3.764   5.506   1.199 -0.4295 -0.2389  0.3923
 4322TIP3    H134457   3.758   5.451   1.278 -1.7519 -1.1992 -0.3305
 4322TIP3    H234458   3.849   5.549   1.206 -0.7492  0.1288  2.6065
 4323TIP3   OH234459   4.091   0.033  12.879  0.4700  0.5205 -0.5788
 4323TIP3    H134460   3.997   0.035  12.859  0.0496  1.2547  1.1781
 4323TIP3    H234461   4.119   0.124  12.869  0.8384  0.4233 -0.4444
 4324TIP3   OH234462   6.186   6.539  13.469 -0.3166 -0.1466  0.1593
 4324TIP3    H134463   6.187   6.635  13.477  0.2505 -0.2127  1.0407
 4324TIP3    H234464   6.099   6.519  13.435 -0.2826  0.7075 -0.4767
 4325TIP3   OH234465   1.362   6.746  11.249 -0.5245 -0.0455  0.3703
 4325TIP3    H134466   1.419   6.739  11.173 -1.6799 -1.2655 -0.4121
 4325TIP3    H234467   1.311   6.665  11.249 -1.7494  0.6909  1.4580
 4326TIP3   OH234468   4.952   2.273   0.177  0.1186  0.2754 -0.1044
 4326TIP3    H134469   4.880   2.301   0.119 -1.0457  0.7791  1.5109
 4326TIP3    H234470   4.953   2.178   0.170 -1.1604  0.2078  0.3114
 4327TIP3   OH234471   0.827   2.179   1.415 -0.2101  0.0577  0.1605
 4327TIP3    H134472   0.851   2.268   1.439 -0.0974  0.1051 -0.1393
 4327TIP3    H234473   0.817   2.134   1.500 -2.1995  0.8532  0.4238
 4328TIP3   OH234474   3.846   1.917   6.109 -0.5726 -0.3310  0.3618
 4328TIP3    H134475   3.863   1.950   6.021  2.3254  0.1352  0.9868
 4328TIP3    H234476   3.832   1.996   6.162 -1.7333 -0.5762  0.4389
 4329TIP3   OH234477   2.666   3.047  10.338 -0.3556 -0.5056 -0.2064
 4329TIP3    H134478   2.669   2.996  10.419  4.0676 -0.6078 -0.1959
 4329TIP3    H234479   2.710   2.992  10.273  1.2862  1.7497 -1.1468
 4330TIP3   OH234480   4.402   2.300   1.662 -0.5503 -0.0559  0.6489
 4330TIP3    H134481   4.381   2.209   1.682 -0.2272 -0.4484 -0.7269
 4330TIP3    H234482   4.497   2.307   1.676  0.0359 -0.8236 -2.2979
 4331TIP3   OH234483   1.535   3.438   3.868  0.4353 -0.1172 -0.0519
 4331TIP3    H134484   1.486   3.477   3.940 -0.2799  1.7864 -1.4888
 4331TIP3    H234485   1.620   3.482   3.870  1.1687 -1.4902  0.7870
 4332TIP3   OH234486   4.939   0.834  14.084  0.0860  0.1216 -0.0024
 4332TIP3    H134487   4.865   0.806  14.137  0.2648 -0.0819  0.1390
 4332TIP3    H234488   5.014   0.834  14.144 -0.1969  2.5181  0.4654
 4333TIP3   OH234489   1.929   3.957   3.685  0.2992 -0.7786  0.8542
 4333TIP3    H134490   1.896   3.879   3.730 -0.6947 -1.0118 -0.2295
 4333TIP3    H234491   1.971   3.923   3.606 -1.6868 -0.1665 -0.5453
 4334TIP3   OH234492   2.043   0.601   0.921 -0.2249  0.6559  0.2288
 4334TIP3    H134493   2.015   0.689   0.946 -0.1249  0.9071 -0.5000
 4334TIP3    H234494   2.048   0.604   0.825 -0.6753 -0.2806  0.1652
 4335TIP3   OH234495   3.498   3.136  15.716 -0.0980  0.3743  0.1141
 4335TIP3    H134496   3.476   3.174  15.631  1.3842 -2.2096 -1.5822
 4335TIP3    H234497   3.585   3.171  15.736 -0.0486  0.2601  0.0990
 4336TIP3   OH234498   1.383   0.006   0.636 -0.3049 -0.2795 -0.3708
 4336TIP3    H134499   1.405  -0.072   0.585 -0.0324  0.8188 -2.0282
 4336TIP3    H234500   1.467   0.041   0.665 -0.4896 -1.2171  1.3951
 4337TIP3   OH234501   3.294   0.445  14.349 -0.4688  0.7022 -0.1925
 4337TIP3    H134502   3.307   0.529  14.394  0.8816  0.2592  0.3150
 4337TIP3    H234503   3.247   0.391  14.413  0.1430  0.5484  0.1377
 4338TIP3   OH234504   6.632   0.874   0.925 -0.0449 -0.1459 -0.0804
 4338TIP3    H134505   6.570   0.815   0.967 -0.6295  0.3674 -0.2245
 4338TIP3    H234506   6.639   0.842   0.835  1.8200 -1.7498  0.5461
 4339TIP3   OH234507   2.815   1.256  14.421  0.1976  0.0813 -0.1671
 4339TIP3    H134508   2.803   1.344  14.387 -0.2068  0.5322  1.1100
 4339TIP3    H234509   2.823   1.267  14.515 -0.7944 -1.3289  0.1115
 4340TIP3   OH234510   5.796   3.336   4.109 -0.3176  0.1222  0.0383
 4340TIP3    H134511   5.873   3.279   4.110 -1.3832 -1.3661 -0.2224
 4340TIP3    H234512   5.831   3.423   4.133  1.4395 -0.4797 -0.1623
 4341TIP3   OH234513   5.753   0.150   3.743  0.1067  0.4336 -0.3383
 4341TIP3    H134514   5.719   0.063   3.762 -0.4862  0.7459  0.0515
 4341TIP3    H234515   5.833   0.134   3.692 -0.7661 -0.3106 -1.5230
 4342TIP3   OH234516   2.577   3.187  14.456  0.8803  0.3351 -0.5155
 4342TIP3    H134517   2.541   3.184  14.367 -1.5825 -0.7525  0.4374
 4342TIP3    H234518   2.519   3.246  14.504 -0.5134 -2.2932  1.3392
 4343TIP3   OH234519   5.286   5.891   4.481  0.0655 -0.2375 -0.1268
 4343TIP3    H134520   5.313   5.817   4.428  0.3952  0.0432 -0.3565
 4343TIP3    H234521   5.236   5.853   4.554 -1.1988 -0.5727 -1.1246
 4344TIP3   OH234522   4.125   4.891   4.958  0.1180 -0.0685 -0.4581
 4344TIP3    H134523   4.143   4.876   4.865 -2.9907  3.0038 -1.7823
 4344TIP3    H234524   4.074   4.815   4.985 -0.4753 -0.1905 -1.8182
 4345TIP3   OH234525   4.330   5.915   5.962  0.5612  0.7343  0.1341
 4345TIP3    H134526   4.250   5.958   5.991 -0.4333  0.3531 -1.8774
 4345TIP3    H234527   4.305   5.824   5.949  1.1009  0.7720 -1.2660
 4346TIP3   OH234528   3.960   2.928   1.158 -0.1908 -0.4140  0.2554
 4346TIP3    H134529   3.986   2.856   1.101 -1.1839 -0.2329 -0.4301
 4346TIP3    H234530   3.876   2.957   1.125  0.9758  2.2540 -0.6004
 4347TIP3   OH234531   2.972   1.399  15.294  0.2814  0.2703 -0.1909
 4347TIP3    H134532   2.937   1.487  15.284  1.1574  0.7638  0.9384
 4347TIP3    H234533   2.927   1.363  15.371  0.5794  0.0624 -0.1100
 4348TIP3   OH234534   0.577   4.699   3.854 -0.2089  0.3326 -0.5591
 4348TIP3    H134535   0.586   4.782   3.807  0.0519  0.1781 -0.7898
 4348TIP3    H234536   0.666   4.663   3.855 -0.5034 -0.4726 -1.4600
 4349TIP3   OH234537   1.317   3.292  13.035 -0.4451 -0.0479 -0.0799
 4349TIP3    H134538   1.234   3.256  13.066 -0.3107  0.6355  1.1426
 4349TIP3    H234539   1.304   3.387  13.038  0.1571  0.0523 -0.5263
 4350TIP3   OH234540   2.196   1.008  11.169  0.6203  0.6898  0.6495
 4350TIP3    H134541   2.233   0.977  11.086 -0.4389 -3.1619  1.4090
 4350TIP3    H234542   2.107   0.971  11.170  0.3782  1.1976  3.1831
 4351TIP3   OH234543   3.608   6.456  11.921  0.3196  0.3984  0.3025
 4351TIP3    H134544   3.675   6.521  11.942  0.7669  0.1954 -0.4534
 4351TIP3    H234545   3.611   6.449  11.825  0.8580 -1.3432  0.4086
 4352TIP3   OH234546   0.012   4.027   4.053  0.3313 -0.0053  0.0978
 4352TIP3    H134547   0.021   3.937   4.084  0.6882  0.0001  0.0089
 4352TIP3    H234548  -0.038   4.071   4.122 -1.2629 -0.6514 -0.5769
 4353TIP3   OH234549   2.833   4.442   1.194 -0.2158 -0.5837 -0.1002
 4353TIP3    H134550   2.880   4.472   1.272 -0.7711  0.5252 -0.1787
 4353TIP3    H234551   2.758   4.394   1.228 -0.5590  0.0580  0.0521
 4354TIP3   OH234552   3.345   0.374   5.640  0.1187  0.2926 -0.1706
 4354TIP3    H134553   3.416   0.312   5.621 -0.2090 -0.9073  2.1219
 4354TIP3    H234554   3.267   0.332   5.605  0.2448  0.6089 -0.8330
 4355TIP3   OH234555   2.715   3.298  10.410  0.0624  0.0862 -0.0574
 4355TIP3    H134556   2.639   3.342  10.373  0.3932 -0.6948 -1.7811
 4355TIP3    H234557   2.713   3.210  10.372  1.3931 -0.2067  0.4745
 4356TIP3   OH234558   6.110   3.745  11.879 -0.2311  0.0401  0.1251
 4356TIP3    H134559   6.166   3.735  11.802  1.4498 -1.7133  1.4612
 4356TIP3    H234560   6.060   3.663  11.883  0.2697 -0.2228  1.2971
 4357TIP3   OH234561   5.580   4.197  15.129 -0.4146 -0.1338  0.2999
 4357TIP3    H134562   5.523   4.273  15.118  0.2154  0.2111 -0.6854
 4357TIP3    H234563   5.541   4.129  15.073  0.8685  0.5369 -1.4972
 4358TIP3   OH234564   3.086   6.580   1.685 -0.1082 -0.6698 -0.1903
 4358TIP3    H134565   3.010   6.582   1.742  1.6611  0.0403  2.3363
 4358TIP3    H234566   3.105   6.487   1.672 -0.1158 -0.8661  1.0738
 4359TIP3   OH234567   1.207   5.670   0.315 -0.0892  0.4061 -0.1833
 4359TIP3    H134568   1.221   5.764   0.315  0.7297  0.2990 -1.3178
 4359TIP3    H234569   1.184   5.649   0.224 -2.3071 -0.2208  0.4507
 4360TIP3   OH234570   3.975   4.426  12.669  0.1323  0.1905 -0.4143
 4360TIP3    H134571   4.062   4.458  12.645  0.1095  0.3586 -0.2758
 4360TIP3    H234572   3.990   4.371  12.746  0.3702 -1.3234 -1.4843
 4361TIP3   OH234573   4.502   1.047  16.019  0.1370 -0.1803  0.1756
 4361TIP3    H134574   4.421   1.013  16.057 -1.0965  1.8548 -0.4687
 4361TIP3    H234575   4.571   0.991  16.055 -1.4841 -1.6122  1.2046
 4362TIP3   OH234576   0.447   1.831   2.531  0.0591 -0.1333  0.1562
 4362TIP3    H134577   0.481   1.804   2.446 -2.6293  0.7001 -1.3067
 4362TIP3    H234578   0.453   1.927   2.531 -2.2098  0.0695 -0.2363
 4363TIP3   OH234579   1.298   5.015  14.810 -0.0568 -0.1045  0.3933
 4363TIP3    H134580   1.378   5.065  14.794  0.3247 -0.3670  1.4226
 4363TIP3    H234581   1.328   4.934  14.851 -0.7327 -0.8694 -0.5595
 4364TIP3   OH234582   5.235   3.257  12.161  0.0019 -0.4194  0.1813
 4364TIP3    H134583   5.274   3.285  12.078  0.9057  1.0062  1.0438
 4364TIP3    H234584   5.162   3.200  12.135 -0.0888  0.4403 -1.6110
 4365TIP3   OH234585   6.582   0.555  11.370  0.1848 -0.2379 -0.0448
 4365TIP3    H134586   6.591   0.493  11.443  0.0953 -1.0769 -0.7270
 4365TIP3    H234587   6.526   0.625  11.404 -0.0958 -0.7627  0.5961
 4366TIP3   OH234588   0.057   5.606   0.031 -0.0874 -0.4147 -0.1853
 4366TIP3    H134589   0.150   5.592   0.010  0.5188  3.1838 -0.5944
 4366TIP3    H234590   0.010   5.548  -0.028  1.9030 -0.4440 -1.8456
 4367TIP3   OH234591   3.703   2.622  11.933 -0.7717  0.2716  0.5643
 4367TIP3    H134592   3.750   2.702  11.911 -0.5262 -0.2144 -0.8024
 4367TIP3    H234593   3.763   2.551  11.908 -0.7861 -0.3674  2.1741
 4368TIP3   OH234594   0.685   3.373  13.087  0.0576 -0.0045  0.5807
 4368TIP3    H134595   0.772   3.333  13.079 -0.0660 -0.4086  1.2422
 4368TIP3    H234596   0.698   3.446  13.148  0.5632  1.8340 -1.5680
 4369TIP3   OH234597   6.157   6.686   4.254  0.4134 -0.1684  0.0282
 4369TIP3    H134598   6.082   6.657   4.202  0.9961  0.5856 -1.2643
 4369TIP3    H234599   6.125   6.764   4.301  0.3517  0.0820 -0.4270
 4370TIP3   OH234600   5.441   4.510  10.528  0.4428 -0.1534 -0.2345
 4370TIP3    H134601   5.473   4.467  10.608  1.5554 -2.0787 -1.6276
 4370TIP3    H234602   5.347   4.517  10.542  0.8571  2.3103  2.4396
 4371TIP3   OH234603   1.913   2.630   0.869  0.3002 -0.1574 -0.4287
 4371TIP3    H134604   1.999   2.671   0.880  0.2579 -0.0400 -0.5367
 4371TIP3    H234605   1.869   2.683   0.803 -0.6390  1.0540  1.1009
 4372TIP3   OH234606   2.225   4.967   0.498 -1.2473  0.0139  0.1333
 4372TIP3    H134607   2.208   5.049   0.451 -0.4876  0.3519  0.4357
 4372TIP3    H234608   2.147   4.914   0.481 -0.7812 -0.0787 -1.8942
 4373TIP3   OH234609   0.499   1.812   3.090  0.3289 -0.1380  0.0802
 4373TIP3    H134610   0.546   1.881   3.137  2.2069 -1.2689 -0.0396
 4373TIP3    H234611   0.407   1.827   3.113  1.0326 -0.0404  3.3878
 4374TIP3   OH234612   1.531   1.160  16.408 -0.3064 -0.2475 -0.5224
 4374TIP3    H134613   1.559   1.128  16.323  0.3139  1.2699 -0.9160
 4374TIP3    H234614   1.588   1.235  16.426 -0.3533 -0.5929  1.2760
 4375TIP3   OH234615   1.306   1.707   1.724 -0.1928 -0.2358  0.7617
 4375TIP3    H134616   1.393   1.669   1.714  1.0601  2.5216  0.2253
 4375TIP3    H234617   1.294   1.760   1.645 -0.3480  3.0405  2.8022
 4376TIP3   OH234618   1.969   1.765   2.829  0.3350 -0.0802 -0.6853
 4376TIP3    H134619   1.936   1.676   2.842  0.3994 -0.2126 -1.4192
 4376TIP3    H234620   2.059   1.753   2.799  0.5924  0.2540 -0.0807
 4377TIP3   OH234621   0.780   2.663   3.272 -0.5350 -0.0728 -0.0080
 4377TIP3    H134622   0.691   2.632   3.259 -0.9027  0.9319  0.0013
 4377TIP3    H234623   0.809   2.691   3.185 -0.3269 -0.1372  0.0383
 4378TIP3   OH234624   6.473   2.322   5.144  0.0842 -0.5367  0.1107
 4378TIP3    H134625   6.431   2.246   5.184  0.7466 -0.4545  0.9825
 4378TIP3    H234626   6.538   2.350   5.208  1.1348 -0.3638 -0.9949
 4379TIP3   OH234627   4.824   4.305  17.081  0.8458 -0.5805  0.1201
 4379TIP3    H134628   4.864   4.253  17.150  0.0905  0.8809  1.7350
 4379TIP3    H234629   4.730   4.302  17.099  0.3075 -2.1725 -2.3315
 4380TIP3   OH234630   0.660   4.652   3.199 -0.2280  0.1675  0.2382
 4380TIP3    H134631   0.722   4.579   3.206  0.6702  0.8391 -0.4823
 4380TIP3    H234632   0.700   4.723   3.248  0.9738  1.4927 -2.4785
 4381TIP3   OH234633   5.249   3.371  15.300 -0.1666 -0.2780 -0.0164
 4381TIP3    H134634   5.344   3.368  15.311 -0.2349  0.5738  0.9703
 4381TIP3    H234635   5.220   3.281  15.315  0.3618 -0.2945  0.9583
 4382TIP3   OH234636   0.174   4.684   3.987  0.6229 -0.4227  0.0743
 4382TIP3    H134637   0.205   4.773   3.974  1.2763 -0.4976  1.0244
 4382TIP3    H234638   0.253   4.632   4.001  0.2066 -1.0167  0.2890
 4383TIP3   OH234639   0.567   6.287   2.125 -0.3960 -0.0123 -0.2549
 4383TIP3    H134640   0.639   6.252   2.073  1.8116 -2.2672  3.8685
 4383TIP3    H234641   0.595   6.374   2.151 -0.1412 -0.0650 -0.3555
 4384TIP3   OH234642   2.576   4.006  17.256 -0.2416  0.1640  0.4805
 4384TIP3    H134643   2.612   3.978  17.340  0.6699  1.0942  0.4088
 4384TIP3    H234644   2.617   3.947  17.192  0.0973  0.3240  0.5474
 4385TIP3   OH234645   4.381   4.140  16.939  0.0191 -0.7989  0.3931
 4385TIP3    H134646   4.395   4.066  16.999 -3.9628 -0.1434  2.4655
 4385TIP3    H234647   4.390   4.101  16.852  1.9804 -2.7417  1.3494
 4386TIP3   OH234648   2.965   2.211  14.074 -0.7523  0.3174 -0.7141
 4386TIP3    H134649   2.914   2.156  14.134  0.6642 -1.6997 -1.2744
 4386TIP3    H234650   2.937   2.184  13.987  0.0834  0.3584 -1.0027
 4387TIP3   OH234651   6.295   5.459  16.664 -0.6631 -0.0482  0.6380
 4387TIP3    H134652   6.292   5.472  16.569  0.0420 -0.8735  0.4946
 4387TIP3    H234653   6.205   5.439  16.688 -0.9599  0.7639  0.2368
 4388TIP3   OH234654   6.427   6.262  16.176 -0.0403  0.7089 -0.0833
 4388TIP3    H134655   6.366   6.250  16.249 -0.8851  1.3189 -0.6641
 4388TIP3    H234656   6.508   6.222  16.206 -1.1921 -1.7310  0.0518
 4389TIP3   OH234657   5.561   3.150  12.954  0.8322 -0.0346  0.2345
 4389TIP3    H134658   5.556   3.188  12.867  0.7455  0.7607  0.5800
 4389TIP3    H234659   5.653   3.130  12.967  1.1024  1.3280  0.5702
 4390TIP3   OH234660   5.904   4.237  13.927  0.3622  0.0036  0.8635
 4390TIP3    H134661   5.950   4.164  13.885 -2.7738 -2.6012  1.4821
 4390TIP3    H234662   5.851   4.276  13.858 -3.3277 -3.0603  1.5970
 4391TIP3   OH234663   3.425   4.022   5.845  0.3615 -0.9535 -0.6467
 4391TIP3    H134664   3.372   4.072   5.907  1.0076 -1.5416  0.4166
 4391TIP3    H234665   3.430   4.078   5.767  1.8926  1.1269  0.8394
 4392TIP3   OH234666   3.538   2.609  15.200 -0.3710 -0.0324  0.4318
 4392TIP3    H134667   3.611   2.648  15.247 -0.4095 -1.0475  1.3615
 4392TIP3    H234668   3.570   2.523  15.171 -0.7806  0.0369 -0.2680
 4393TIP3   OH234669   1.945   0.340   4.967  0.0067 -0.4549  0.0425
 4393TIP3    H134670   1.875   0.308   4.910 -0.6215  0.1790  0.4428
 4393TIP3    H234671   1.922   0.309   5.054  0.6316 -0.8878  0.0560
 4394TIP3   OH234672   3.580   5.049   1.293  0.4120 -0.2520 -0.1876
 4394TIP3    H134673   3.514   5.119   1.303  1.5303  0.8657 -0.4114
 4394TIP3    H234674   3.612   5.059   1.204  1.3056 -0.4152  0.1125
 4395TIP3   OH234675   6.159   0.461   6.424  0.0762 -0.2697  0.0850
 4395TIP3    H134676   6.250   0.483   6.405 -0.5073  2.2703 -0.0683
 4395TIP3    H234677   6.144   0.379   6.378  2.0522 -0.3110 -0.5572
 4396TIP3   OH234678   5.153   4.972   1.506  0.4199 -0.0459 -0.0893
 4396TIP3    H134679   5.228   5.030   1.502  0.8799 -0.5897  0.4567
 4396TIP3    H234680   5.190   4.884   1.495 -0.1655 -0.3016 -0.0612
 4397TIP3   OH234681   2.475   5.323   5.501 -0.2770 -0.7184 -0.0057
 4397TIP3    H134682   2.445   5.409   5.530  1.5145 -0.1136  0.1979
 4397TIP3    H234683   2.544   5.300   5.563  2.9903  0.1367 -2.9795
 4398TIP3   OH234684   3.745   0.986   1.084 -0.6469  0.3668  0.7126
 4398TIP3    H134685   3.720   0.911   1.030 -0.5632  1.2800 -0.6668
 4398TIP3    H234686   3.841   0.979   1.092 -0.5589  0.6769  0.0117
 4399TIP3   OH234687   1.895   3.707  13.427 -0.0153 -0.0119  0.3897
 4399TIP3    H134688   1.831   3.641  13.401 -0.3581 -0.5165  2.3483
 4399TIP3    H234689   1.960   3.706  13.357 -1.7604  0.0448 -1.3502
 4400TIP3   OH234690   0.424   5.979  12.122 -0.1914  0.1222 -0.6119
 4400TIP3    H134691   0.465   5.975  12.035  3.9325  0.9207  1.0437
 4400TIP3    H234692   0.412   5.887  12.147 -1.4485 -0.1155 -1.9580
 4401TIP3   OH234693   1.489   4.205   0.581  0.5895 -1.0121  0.4398
 4401TIP3    H134694   1.412   4.260   0.592  0.3440 -1.0861 -0.8129
 4401TIP3    H234695   1.554   4.243   0.639 -0.0262 -0.2605  0.6503
 4402TIP3   OH234696   1.688   0.372   0.893 -0.4638  0.4380  0.7780
 4402TIP3    H134697   1.657   0.457   0.923 -0.0222  0.6289  0.7002
 4402TIP3    H234698   1.723   0.388   0.805  0.4167  0.3669  1.0968
 4403TIP3   OH234699   6.079   2.602  15.292 -0.4410  0.4957 -0.1626
 4403TIP3    H134700   6.153   2.661  15.306  0.1449 -0.0201 -1.0289
 4403TIP3    H234701   6.064   2.561  15.378 -0.6388  1.6265  0.3668
 4404TIP3   OH234702   5.473   0.430  14.296 -0.1397 -0.4075  0.0685
 4404TIP3    H134703   5.472   0.526  14.302  1.4002 -0.3939  0.4169
 4404TIP3    H234704   5.387   0.404  14.328 -0.2260  0.8109  0.9143
 4405TIP3   OH234705   6.287   2.595   2.068 -0.3706 -0.4635 -0.1247
 4405TIP3    H134706   6.369   2.557   2.034 -0.5394 -1.1705  0.2394
 4405TIP3    H234707   6.246   2.635   1.991  0.7033  0.6344 -0.1627
 4406TIP3   OH234708   3.127   4.770  12.338 -0.3122 -0.0124  0.1605
 4406TIP3    H134709   3.166   4.742  12.256  0.2018  0.8200  0.1179
 4406TIP3    H234710   3.194   4.751  12.404 -0.6117 -0.4116  0.3567
 4407TIP3   OH234711   3.705   4.286   4.798  0.3813 -0.4956  0.1888
 4407TIP3    H134712   3.799   4.300   4.784  0.0899  1.7882  0.1321
 4407TIP3    H234713   3.665   4.371   4.781 -2.0275 -1.9376 -2.2964
 4408TIP3   OH234714   3.589   4.782  16.731  0.2584 -0.0245 -0.1425
 4408TIP3    H134715   3.581   4.727  16.808  0.6471 -0.4534 -0.4030
 4408TIP3    H234716   3.607   4.870  16.766  1.7142 -0.4392  0.2467
 4409TIP3   OH234717   4.401   1.480   2.344 -0.2193 -0.0075 -0.1907
 4409TIP3    H134718   4.399   1.464   2.250 -0.3785  0.6694 -0.3107
 4409TIP3    H234719   4.310   1.469   2.373 -0.3916  0.9267 -0.3302
 4410TIP3   OH234720   3.824   5.486   1.716 -0.3030 -0.0907 -0.7004
 4410TIP3    H134721   3.829   5.392   1.734  2.8123 -0.1126 -0.9868
 4410TIP3    H234722   3.771   5.493   1.637  0.2103 -1.7422 -1.2298
 4411TIP3   OH234723   1.288   0.829  14.552 -0.2778  0.0809 -0.0641
 4411TIP3    H134724   1.293   0.893  14.480 -0.2566  1.7808  1.3885
 4411TIP3    H234725   1.220   0.768  14.525  0.2626  0.2212 -1.8731
 4412TIP3   OH234726   3.845   0.212  14.364  0.6411  0.5440  1.2262
 4412TIP3    H134727   3.752   0.190  14.351  1.0134  0.3783 -1.9952
 4412TIP3    H234728   3.889   0.127  14.373  0.6625  0.5285  0.9915
 4413TIP3   OH234729   6.078   2.660   5.808 -0.9169 -0.4632  0.1098
 4413TIP3    H134730   6.032   2.691   5.886  0.7445  0.2905  0.8356
 4413TIP3    H234731   6.008   2.631   5.749 -2.3407  1.1429  0.9283
 4414TIP3   OH234732   6.595   5.761  15.231 -0.0659  0.4204 -0.0265
 4414TIP3    H134733   6.574   5.775  15.139  1.6834  2.3360 -0.1977
 4414TIP3    H234734   6.510   5.763  15.276 -0.8537  0.4097 -1.4765
 4415TIP3   OH234735   5.036   0.224  14.696 -0.2839  0.3883  0.1214
 4415TIP3    H134736   5.034   0.319  14.709 -0.5613  0.5213 -0.7870
 4415TIP3    H234737   5.018   0.187  14.782  0.4615  1.1524  0.6185
 4416TIP3   OH234738   1.852   0.530   1.474  0.5405  0.4753 -0.7160
 4416TIP3    H134739   1.846   0.585   1.552  2.0089 -0.0188 -0.2285
 4416TIP3    H234740   1.762   0.527   1.440  0.0185  1.3088  0.5278
 4417TIP3   OH234741   0.059   4.297  16.024  0.0563  0.4381 -0.3780
 4417TIP3    H134742   0.099   4.287  15.937  3.1400 -0.7633  1.0286
 4417TIP3    H234743   0.062   4.209  16.062 -1.3113  0.9249  0.9649
 4418TIP3   OH234744   2.321   3.294   4.224  0.5113 -0.7620  0.6802
 4418TIP3    H134745   2.334   3.215   4.276 -0.6108 -1.4616 -0.0449
 4418TIP3    H234746   2.231   3.286   4.191  0.7643  0.2556 -0.3362
 4419TIP3   OH234747   1.427   4.190   2.017  0.1991  0.8549  0.0840
 4419TIP3    H134748   1.375   4.128   2.069  0.4717  0.5033 -0.0570
 4419TIP3    H234749   1.423   4.155   1.928 -0.5113  1.6142 -0.1969
 4420TIP3   OH234750   2.016   1.469  13.452 -0.3091 -1.0741 -0.1407
 4420TIP3    H134751   1.967   1.416  13.515 -1.4817 -0.3258 -0.3983
 4420TIP3    H234752   2.086   1.509  13.504 -0.8760 -0.9718  0.5495
 4421TIP3   OH234753   0.930   5.632   0.973  0.5235 -0.0346 -0.0476
 4421TIP3    H134754   0.948   5.666   0.886 -2.1753  0.8899 -0.3522
 4421TIP3    H234755   0.886   5.704   1.019 -1.0311 -1.5194  0.9336
 4422TIP3   OH234756   6.820   2.097   0.207  0.4825  0.4921  0.0799
 4422TIP3    H134757   6.870   2.028   0.164 -0.0891  0.7823 -1.0939
 4422TIP3    H234758   6.873   2.176   0.196  0.7103  0.4173  0.6217
 4423TIP3   OH234759   3.081   6.313  14.299 -0.1443 -0.2126  0.0693
 4423TIP3    H134760   3.023   6.269  14.361 -1.1537 -0.2177 -0.8535
 4423TIP3    H234761   3.026   6.379  14.256  0.7601  0.3927 -0.2044
 4424TIP3   OH234762   3.168   6.583  14.011 -0.1358  0.2943  0.1769
 4424TIP3    H134763   3.134   6.659  13.962 -0.2565  0.3292  0.3146
 4424TIP3    H234764   3.092   6.550  14.059  0.2591  1.0666  1.3957
 4425TIP3   OH234765   1.775   5.011  16.701  0.4973 -0.4578 -0.1347
 4425TIP3    H134766   1.818   4.956  16.766  1.9226 -0.4330 -1.0123
 4425TIP3    H234767   1.830   5.090  16.695 -0.8776  0.5800  0.2705
 4426TIP3   OH234768   0.566   2.704   1.471 -0.1846 -0.2147  0.0159
 4426TIP3    H134769   0.554   2.626   1.417 -1.0634  0.2731 -0.5254
 4426TIP3    H234770   0.478   2.726   1.501 -0.1938  1.3994 -1.0415
 4427TIP3   OH234771   6.007   0.972   5.446 -0.4379  0.2200 -0.4767
 4427TIP3    H134772   6.096   0.942   5.466 -0.4546  0.4211 -0.1089
 4427TIP3    H234773   5.950   0.903   5.481 -0.5183  1.0895  1.1767
 4428TIP3   OH234774   4.171   5.160   3.830 -0.1126  0.1652 -0.2435
 4428TIP3    H134775   4.141   5.251   3.831 -0.5948  0.0049  0.7581
 4428TIP3    H234776   4.223   5.153   3.750  0.4548  1.4985 -0.0244
 4429TIP3   OH234777   1.267   5.388   6.175  0.1238  0.2957  0.2612
 4429TIP3    H134778   1.324   5.355   6.244  0.2017  1.7533  0.9238
 4429TIP3    H234779   1.282   5.328   6.102  3.1419  1.0576  0.1011
 4430TIP3   OH234780   2.037   6.227   0.109 -0.0681  0.0121  0.1821
 4430TIP3    H134781   1.977   6.296   0.138  1.3426  0.6401  1.7359
 4430TIP3    H234782   2.098   6.272   0.050  0.4640 -0.0166  0.6973
 4431TIP3   OH234783   1.050   3.775   0.896  0.5254  0.1872  0.5648
 4431TIP3    H134784   0.992   3.749   0.967  1.5340 -0.8180  1.0662
 4431TIP3    H234785   0.992   3.808   0.828 -0.6669 -1.1663  0.8705
 4432TIP3   OH234786   5.596   2.017   1.043 -0.7653  0.3572  0.5396
 4432TIP3    H134787   5.576   1.945   0.982 -0.8696 -0.4736  1.5204
 4432TIP3    H234788   5.584   1.978   1.129  1.8135  0.7717  1.1647
 4433TIP3   OH234789   1.194   2.307  10.851  0.1233  0.3366 -0.2027
 4433TIP3    H134790   1.271   2.251  10.839  0.4863  0.3644  1.6031
 4433TIP3    H234791   1.120   2.247  10.848  0.3476  0.0679 -0.3949
 4434TIP3   OH234792   4.379   1.920  12.683  0.4722 -0.5388  0.5760
 4434TIP3    H134793   4.420   2.002  12.657 -1.6121  0.1458 -0.7306
 4434TIP3    H234794   4.286   1.933  12.667  0.0809 -3.1640  0.2985
 4435TIP3   OH234795   4.897   5.581  16.735  0.6939  0.2636  0.1275
 4435TIP3    H134796   4.983   5.585  16.693  1.0777  0.9148  0.9377
 4435TIP3    H234797   4.870   5.673  16.743 -1.1721  0.0082 -2.2343
 4436TIP3   OH234798   3.095   0.564  16.207 -0.3220  0.6446 -0.4078
 4436TIP3    H134799   3.142   0.619  16.143 -1.8605  1.0368 -1.2468
 4436TIP3    H234800   3.105   0.611  16.290 -1.4062  2.1210 -1.0643
 4437TIP3   OH234801   2.948   6.162   2.194  0.3654  0.1284 -0.8661
 4437TIP3    H134802   2.916   6.086   2.243  1.3211  0.2588 -0.0108
 4437TIP3    H234803   2.953   6.132   2.104 -2.3666  0.1605 -1.1191
 4438TIP3   OH234804   2.891   3.287   4.152  0.5111 -0.1028  0.0732
 4438TIP3    H134805   2.801   3.311   4.128  0.0770 -0.9820  0.7738
 4438TIP3    H234806   2.946   3.347   4.102 -0.4326 -0.1966 -1.1040
 4439TIP3   OH234807   2.913   3.431  16.871  0.6375  1.0497  0.4984
 4439TIP3    H134808   2.929   3.426  16.777 -0.6561  0.7096  0.2648
 4439TIP3    H234809   2.817   3.436  16.878  0.7760  2.8967  1.7320
 4440TIP3   OH234810   1.294   6.178  12.871  0.3233 -0.0110  0.1554
 4440TIP3    H134811   1.226   6.149  12.811 -1.0931  1.2192  1.0970
 4440TIP3    H234812   1.283   6.124  12.949 -0.4602  1.0558  0.8096
 4441TIP3   OH234813   3.855   3.777  13.046  0.1393  0.2241  0.6760
 4441TIP3    H134814   3.768   3.786  13.084 -0.3158  0.3300 -0.3538
 4441TIP3    H234815   3.856   3.688  13.010  0.1002  0.5454 -0.1444
 4442TIP3   OH234816   2.660   5.979   5.310 -0.3222 -0.2560  0.0647
 4442TIP3    H134817   2.667   5.907   5.248  0.2414 -1.1170  1.0937
 4442TIP3    H234818   2.566   5.999   5.314 -0.5383 -1.2641  0.1404
 4443TIP3   OH234819   5.028   5.052  16.155  0.3233 -0.9328  0.2044
 4443TIP3    H134820   5.017   5.138  16.114  1.0164 -1.4764 -1.1823
 4443TIP3    H234821   5.068   5.070  16.240 -0.5017  0.1830  0.3678
 4444TIP3   OH234822   3.933   4.302   4.614 -0.5180 -0.1371  0.2743
 4444TIP3    H134823   3.968   4.384   4.579  2.7954 -1.2387  0.6390
 4444TIP3    H234824   3.900   4.255   4.537 -0.3638  0.6023 -0.2561
 4445TIP3   OH234825   4.016   4.716   0.471 -0.8084 -0.4219  0.2715
 4445TIP3    H134826   3.955   4.753   0.407 -1.5779 -0.6778  0.8485
 4445TIP3    H234827   4.100   4.757   0.450 -1.2793  0.3240 -0.2049
 4446TIP3   OH234828   2.709   6.326  13.800  0.1487  0.0929 -0.3034
 4446TIP3    H134829   2.631   6.377  13.820  0.9821  2.5540 -2.8478
 4446TIP3    H234830   2.691   6.285  13.716  1.6249  0.8404 -1.0163
 4447TIP3   OH234831   2.647   0.640  15.750 -0.0208 -0.0436  0.5508
 4447TIP3    H134832   2.667   0.580  15.678  0.2568 -0.4452  0.9540
 4447TIP3    H234833   2.637   0.583  15.826 -0.5424  0.3562  0.7880
 4448TIP3   OH234834   2.737   3.758  11.104  0.0920 -0.4846  0.1003
 4448TIP3    H134835   2.682   3.832  11.131 -0.3376 -0.9580  0.5245
 4448TIP3    H234836   2.701   3.683  11.149 -0.0910 -1.1475 -1.1092
 4449TIP3   OH234837   0.468   1.989  17.070  0.3148  0.2395 -0.4780
 4449TIP3    H134838   0.520   2.060  17.031 -1.2952  1.9219  0.2733
 4449TIP3    H234839   0.503   1.909  17.031  1.5721  1.5142 -2.1171
 4450TIP3   OH234840   4.254   5.165  14.987  0.0523  0.1575 -0.4150
 4450TIP3    H134841   4.189   5.097  15.004  1.3225 -0.8219  0.7485
 4450TIP3    H234842   4.278   5.152  14.895 -0.3790 -0.3555 -0.4621
 4451TIP3   OH234843   2.234   4.602   2.088 -0.1271  0.1740  0.2155
 4451TIP3    H134844   2.313   4.643   2.123  0.1166 -0.6763  0.7002
 4451TIP3    H234845   2.265   4.543   2.020 -0.3340 -0.2072  0.4465
 4452TIP3   OH234846   0.957   0.583  13.044 -0.2611  0.0296 -0.0094
 4452TIP3    H134847   0.963   0.511  13.106 -0.1733  1.2337  1.4429
 4452TIP3    H234848   0.893   0.554  12.979 -0.3978 -1.2491  0.6740
 4453TIP3   OH234849   3.069   0.937  13.802 -0.1529  0.2280  0.0416
 4453TIP3    H134850   3.161   0.927  13.828  0.9462  0.3129 -3.3566
 4453TIP3    H234851   3.027   0.856  13.829  0.8990  0.1603  1.5977
 4454TIP3   OH234852   0.327   1.384  14.718  0.2289 -0.4196  0.5727
 4454TIP3    H134853   0.332   1.479  14.707 -0.8337 -0.3358  0.7212
 4454TIP3    H234854   0.397   1.363  14.780  0.6674  0.2233  0.3016
 4455TIP3   OH234855   3.084   5.712   5.287  0.3930 -0.7157 -0.3189
 4455TIP3    H134856   3.112   5.742   5.201  1.7612  0.5407  0.5104
 4455TIP3    H234857   3.149   5.748   5.347 -1.0211 -0.7846  1.3394
 4456TIP3   OH234858   0.193   6.133  11.922 -0.3900  0.1458 -0.0470
 4456TIP3    H134859   0.264   6.197  11.912  1.4247 -1.6949  0.2807
 4456TIP3    H234860   0.227   6.070  11.985 -2.4829 -0.6759  0.3434
 4457TIP3   OH234861   3.946   3.171   4.143 -0.2572  0.3864 -0.1316
 4457TIP3    H134862   4.010   3.184   4.212 -1.7224 -0.7353  1.5416
 4457TIP3    H234863   3.953   3.249   4.088  2.7561  0.1164 -0.2943
 4458TIP3   OH234864   4.668   3.593   0.412  0.1999  0.1700 -0.5124
 4458TIP3    H134865   4.659   3.520   0.350 -0.9743  1.9754 -2.6446
 4458TIP3    H234866   4.652   3.553   0.498 -0.4886 -2.0551 -1.5780
 4459TIP3   OH234867   4.718   5.950   4.244  0.3446  0.2659 -0.4575
 4459TIP3    H134868   4.640   5.896   4.254 -0.9511  1.8054 -1.7035
 4459TIP3    H234869   4.685   6.036   4.216  2.4356  1.1713 -0.3499
 4460TIP3   OH234870   1.637   5.996  12.379 -0.3972 -0.1118 -0.3335
 4460TIP3    H134871   1.729   6.022  12.383  0.0729 -1.7812  0.8708
 4460TIP3    H234872   1.620   5.952  12.463 -1.7046 -1.6521 -1.3326
 4461TIP3   OH234873   1.451   0.493   4.210  0.0634 -0.3110 -0.8356
 4461TIP3    H134874   1.371   0.492   4.157  0.0650 -0.5791 -0.8350
 4461TIP3    H234875   1.521   0.513   4.148  0.3142 -2.3570 -1.3027
 4462TIP3   OH234876   6.065   1.358   1.135 -0.1323 -0.4637  0.5912
 4462TIP3    H134877   6.139   1.320   1.087  0.8751 -2.1095  3.2621
 4462TIP3    H234878   5.989   1.307   1.107 -0.1818  0.5959 -1.4244
 4463TIP3   OH234879   0.330   1.917   1.666  0.7952  0.0008 -0.1173
 4463TIP3    H134880   0.417   1.912   1.626  0.9257 -0.0499  0.1694
 4463TIP3    H234881   0.285   1.838   1.637  1.6388 -1.1529  1.5648
 4464TIP3   OH234882   3.493   1.581  13.025  0.0770 -0.8931 -0.0842
 4464TIP3    H134883   3.438   1.507  12.997 -0.5967 -0.6364  0.5232
 4464TIP3    H234884   3.515   1.562  13.116 -1.3776  0.3734  0.5770
 4465TIP3   OH234885   3.532   2.956   5.327 -0.2775  0.1139  0.1897
 4465TIP3    H134886   3.584   3.029   5.359 -1.0663  1.7934 -2.1418
 4465TIP3    H234887   3.441   2.983   5.342 -0.5685 -0.9134  0.3553
 4466TIP3   OH234888   6.216   4.148   3.630  0.1180  0.3759  0.0952
 4466TIP3    H134889   6.302   4.173   3.663 -0.2098  2.6919 -0.5801
 4466TIP3    H234890   6.235   4.105   3.546  0.6879 -1.0706  0.9349
 4467TIP3   OH234891   1.139   0.423   0.614 -0.3259  0.0137  0.1558
 4467TIP3    H134892   1.127   0.391   0.525  0.3871 -2.3192  0.8315
 4467TIP3    H234893   1.053   0.413   0.655 -0.2863 -0.3285  0.1534
 4468TIP3   OH234894   3.184   2.554   3.331  0.0121  0.5245  0.7877
 4468TIP3    H134895   3.113   2.509   3.287  0.5638 -0.1281  0.5410
 4468TIP3    H234896   3.177   2.645   3.303  1.2296 -0.0962 -1.8759
 4469TIP3   OH234897   5.262   5.501  16.755  0.1990  0.1062 -1.0929
 4469TIP3    H134898   5.340   5.552  16.732  1.1623 -1.1744 -0.7601
 4469TIP3    H234899   5.217   5.487  16.672  1.0882 -0.3606 -1.5015
 4470TIP3   OH234900   2.611   1.941  16.279  0.1233 -0.6777 -0.1745
 4470TIP3    H134901   2.662   1.978  16.351 -2.1531 -0.6414  1.5263
 4470TIP3    H234902   2.661   1.865  16.251  1.1848 -0.5748  1.3018
 4471TIP3   OH234903   1.651   5.714   1.683 -0.0713  0.0536 -0.1329
 4471TIP3    H134904   1.559   5.734   1.666  0.1897  1.9462  0.4780
 4471TIP3    H234905   1.649   5.649   1.753 -0.9382 -0.8494 -0.9621
 4472TIP3   OH234906   1.672   4.058  12.942  0.3712  0.4564 -0.2507
 4472TIP3    H134907   1.594   4.014  12.975  0.2255 -0.1652 -1.4027
 4472TIP3    H234908   1.684   4.131  13.002  1.0607 -1.5235  2.2162
 4473TIP3   OH234909   5.329   4.797   3.492  0.4940  0.3364 -0.2071
 4473TIP3    H134910   5.391   4.737   3.533  1.9173  1.2696 -0.9274
 4473TIP3    H234911   5.361   4.884   3.515 -0.6372  0.8487 -0.4808
 4474TIP3   OH234912   6.336   2.245  15.634  0.4594 -0.4797  0.1190
 4474TIP3    H134913   6.345   2.178  15.701  0.6494 -0.6839 -0.1080
 4474TIP3    H234914   6.412   2.301  15.645  0.0091  0.0356  0.6769
 4475TIP3   OH234915   0.870   5.971   0.456  0.9307 -0.3079  0.1439
 4475TIP3    H134916   0.798   5.998   0.398 -0.3081 -0.1488  1.6805
 4475TIP3    H234917   0.865   5.876   0.458  0.0161 -0.2613  1.0969
 4476TIP3   OH234918   1.678   2.008   5.964 -0.6176 -0.3685 -0.2759
 4476TIP3    H134919   1.603   1.952   5.945 -1.0711  0.4170 -0.8385
 4476TIP3    H234920   1.680   2.071   5.893  0.7544 -0.5456 -0.4265
 4477TIP3   OH234921   3.384   6.411   3.628 -0.1229  0.7064 -0.3837
 4477TIP3    H134922   3.408   6.365   3.709 -0.4374 -0.3122 -0.8491
 4477TIP3    H234923   3.374   6.502   3.655  0.5489  0.5178  0.5659
 4478TIP3   OH234924   4.938   2.204  13.362  0.8310  0.0788  0.3091
 4478TIP3    H134925   4.871   2.137  13.349  0.7311  0.0720  0.8621
 4478TIP3    H234926   4.981   2.211  13.276 -0.3444  0.6160 -0.2573
 4479TIP3   OH234927   2.001   0.548   4.212 -0.2571  0.0965  0.2796
 4479TIP3    H134928   2.003   0.532   4.118 -0.7024 -2.1796  0.6107
 4479TIP3    H234929   2.084   0.513   4.244 -0.1100  0.8520  0.7608
 4480TIP3   OH234930   6.082   5.671  10.503  0.2563 -0.7209 -0.0217
 4480TIP3    H134931   6.088   5.667  10.599 -0.5462 -1.9412 -0.0027
 4480TIP3    H234932   6.014   5.736  10.486 -1.3547 -2.2723  0.3246
 4481TIP3   OH234933   1.754   0.786  15.164  0.6890  0.5336 -0.2195
 4481TIP3    H134934   1.736   0.818  15.076  2.8718  1.8755 -0.2391
 4481TIP3    H234935   1.823   0.721  15.152 -1.1763 -1.6684  0.2290
 4482TIP3   OH234936   4.337   5.098  17.267  0.4772 -0.2124 -0.5025
 4482TIP3    H134937   4.431   5.107  17.278  0.7629 -3.1270  0.4069
 4482TIP3    H234938   4.299   5.159  17.330  1.7580  0.5576 -0.4484
 4483TIP3   OH234939   2.561   6.566   4.087  0.0428  0.3660 -1.0430
 4483TIP3    H134940   2.616   6.577   4.010  0.2493  0.6214 -0.8594
 4483TIP3    H234941   2.490   6.508   4.058  1.3934 -1.4987 -0.8077
 4484TIP3   OH234942   1.310   2.465   4.211 -0.3985 -0.3351 -0.3603
 4484TIP3    H134943   1.392   2.512   4.201 -1.4305  1.6117 -0.2042
 4484TIP3    H234944   1.243   2.534   4.214 -1.9290 -1.7767  0.6133
 4485TIP3   OH234945   5.313   1.775   1.386 -0.0325 -0.1679 -0.3396
 4485TIP3    H134946   5.284   1.828   1.312 -0.5690  0.7908  0.5187
 4485TIP3    H234947   5.376   1.713   1.349 -0.7263 -0.0944 -1.6797
 4486TIP3   OH234948   5.800   2.210   2.168 -0.2968  0.2340 -0.2139
 4486TIP3    H134949   5.879   2.206   2.221 -1.1153 -0.4468  1.0019
 4486TIP3    H234950   5.831   2.206   2.077  1.2200  2.6384  0.1151
 4487TIP3   OH234951   0.909   4.381   5.896 -0.1275 -0.2243  0.1405
 4487TIP3    H134952   0.956   4.424   5.968  2.5899 -1.3454 -0.8475
 4487TIP3    H234953   0.975   4.328   5.852 -1.7222  0.1903 -3.0395
 4488TIP3   OH234954   4.728   4.457  16.668 -0.0404  0.1863 -0.0637
 4488TIP3    H134955   4.791   4.430  16.734  0.5901 -0.1023 -0.7760
 4488TIP3    H234956   4.643   4.450  16.712  0.2344 -1.4394  0.2580
 4489TIP3   OH234957   2.848   3.191  16.632  0.1883  0.3537  0.3607
 4489TIP3    H134958   2.935   3.186  16.593  0.0679  1.7779 -0.1396
 4489TIP3    H234959   2.794   3.232  16.564 -1.0929 -1.2797  0.3252
 4490TIP3   OH234960   4.952   6.415   0.300 -0.1818  0.0307  0.0912
 4490TIP3    H134961   5.040   6.449   0.284 -0.2522 -0.1431 -0.6954
 4490TIP3    H234962   4.895   6.466   0.242 -0.4415 -0.6247 -0.2479
 4491TIP3   OH234963   5.571   1.528  16.838  0.2795  0.0850  0.3226
 4491TIP3    H134964   5.657   1.500  16.807 -0.1031  0.0983 -0.7868
 4491TIP3    H234965   5.572   1.506  16.932  0.9933 -1.1323  0.0585
 4492TIP3   OH234966   1.041   5.635  13.676  0.1239 -0.3413 -0.4079
 4492TIP3    H134967   0.981   5.563  13.653 -1.4160  0.4926  0.7780
 4492TIP3    H234968   1.080   5.661  13.593 -1.6373 -0.5344 -1.3534
 4493TIP3   OH234969   3.557   3.636  13.752 -0.2536  0.2403  0.4979
 4493TIP3    H134970   3.622   3.660  13.686 -0.9633  0.6440 -0.0605
 4493TIP3    H234971   3.495   3.580  13.706 -0.4573  0.0863  0.9550
 4494TIP3   OH234972   6.346   2.029   4.374 -0.2816 -0.6032  0.4808
 4494TIP3    H134973   6.401   2.107   4.365  0.9570 -1.4434  0.5378
 4494TIP3    H234974   6.329   2.001   4.284  0.1140 -0.8334  0.4758
 4495TIP3   OH234975   5.651   4.419  16.923  0.1836  0.2732 -0.6781
 4495TIP3    H134976   5.556   4.411  16.921  0.1480  0.8223 -1.1318
 4495TIP3    H234977   5.676   4.377  17.005 -0.3735 -0.6382 -0.9627
 4496TIP3   OH234978   3.954   5.925  14.601  0.2223  0.0435  0.5787
 4496TIP3    H134979   3.890   5.934  14.530 -0.3629 -1.2862  0.8902
 4496TIP3    H234980   3.936   5.838  14.637  0.8425  0.4980  2.0334
 4497TIP3   OH234981   5.311   0.838   5.543  0.1655  0.0694 -0.4492
 4497TIP3    H134982   5.293   0.881   5.459  0.0506 -0.3575 -0.6431
 4497TIP3    H234983   5.299   0.908   5.608 -1.1408  0.0778 -0.6568
 4498TIP3   OH234984   3.734   6.327  12.465 -0.1245 -0.3782 -0.0882
 4498TIP3    H134985   3.733   6.389  12.537 -1.1182  0.1728 -0.5539
 4498TIP3    H234986   3.787   6.254  12.496  0.6265  0.4746  0.6592
 4499TIP3   OH234987   4.866   2.381   2.294 -0.1697 -0.5236  0.1791
 4499TIP3    H134988   4.866   2.471   2.327  2.0618 -0.7797  0.9944
 4499TIP3    H234989   4.864   2.326   2.372 -2.8047 -1.2950 -0.3064
 4500TIP3   OH234990   5.255   2.433  16.901  0.1592 -0.3025  0.1219
 4500TIP3    H134991   5.252   2.431  16.997 -1.2299 -2.0791  0.0965
 4500TIP3    H234992   5.342   2.399  16.879  0.6688  0.5643  0.7265
 4501TIP3   OH234993   2.030   5.095   2.605 -0.0409  0.0117 -0.3387
 4501TIP3    H134994   1.987   5.065   2.685 -1.6492 -0.3675 -1.3183
 4501TIP3    H234995   2.051   5.187   2.622 -1.8430  0.4089 -0.0463
 4502TIP3   OH234996   0.582   2.839   0.344  0.0592  0.2414  0.0046
 4502TIP3    H134997   0.567   2.756   0.298  0.5263  0.7788 -1.1655
 4502TIP3    H234998   0.665   2.871   0.308  0.7456  0.4240  1.6568
 4503TIP3   OH234999   0.156   2.783   0.659 -0.2672 -0.0118 -0.0727
 4503TIP3    H135000   0.226   2.837   0.696 -0.9273  1.5877 -1.0446
 4503TIP3    H235001   0.196   2.742   0.582 -0.3661  0.8925 -0.6225
 4504TIP3   OH235002   4.331   1.030   5.338  0.0512 -0.5950  0.8628
 4504TIP3    H135003   4.330   1.115   5.296 -2.2268  0.2271  2.3753
 4504TIP3    H235004   4.415   0.991   5.313  0.5807  1.5223 -0.9174
 4505TIP3   OH235005   0.728   1.135   2.587  0.7450 -0.0096  0.2891
 4505TIP3    H135006   0.661   1.168   2.647 -2.8451 -1.2423 -2.6647
 4505TIP3    H235007   0.754   1.211   2.536  0.2678  0.1761  0.3196
 4506TIP3   OH235008   2.037   5.710  13.599 -0.0954  0.2521  0.2048
 4506TIP3    H135009   2.073   5.677  13.516  1.5024 -0.9531  1.3247
 4506TIP3    H235010   2.108   5.761  13.637 -0.6309  0.3451  1.0938
 4507TIP3   OH235011   0.355   3.782   0.249 -0.9371 -0.1279 -0.6030
 4507TIP3    H135012   0.328   3.715   0.186 -1.9956  1.1649 -1.5767
 4507TIP3    H235013   0.278   3.797   0.303 -0.7537  0.4380 -0.4966
 4508TIP3   OH235014   5.043   1.799   5.665  0.0259 -0.1306 -0.5074
 4508TIP3    H135015   4.970   1.852   5.695 -1.6974 -2.2274 -0.7372
 4508TIP3    H235016   5.101   1.792   5.741  0.7518  2.6048 -0.6890
 4509TIP3   OH235017   5.599   6.243  15.454  0.2438  0.4835 -0.3920
 4509TIP3    H135018   5.539   6.223  15.381 -0.1900  0.5215 -0.0510
 4509TIP3    H235019   5.618   6.336  15.443 -1.8475  1.1528  0.9818
 4510TIP3   OH235020   2.179   1.062  16.836 -0.7341 -0.7930  0.0257
 4510TIP3    H135021   2.248   1.068  16.902  0.5013  0.9987 -1.3286
 4510TIP3    H235022   2.213   1.001  16.771  0.8812  2.0195 -1.9573
 4511TIP3   OH235023   1.092   1.841   3.447 -0.0058 -0.3088  0.2720
 4511TIP3    H135024   1.028   1.773   3.469 -1.0487  0.8510  0.9426
 4511TIP3    H235025   1.095   1.897   3.525  0.0276  1.0098 -0.6485
 4512TIP3   OH235026   3.594   3.744  16.961 -0.2982  0.0758  0.1908
 4512TIP3    H135027   3.662   3.775  16.902 -1.3119  1.3818 -0.3645
 4512TIP3    H235028   3.525   3.812  16.956 -0.1635  0.6365  3.3438
 4513TIP3   OH235029   3.039   1.681  15.941 -0.4488 -0.3694 -0.2875
 4513TIP3    H135030   3.000   1.596  15.963 -0.4451 -0.4588 -0.6096
 4513TIP3    H235031   2.968   1.729  15.897 -0.7163  0.1285  0.6626
 4514TIP3   OH235032   4.132   1.464   2.358 -0.2002  0.2586  0.3624
 4514TIP3    H135033   4.053   1.422   2.392  0.4409  0.7238  2.6447
 4514TIP3    H235034   4.101   1.546   2.319 -1.1384 -0.9560 -1.5654
 4515TIP3   OH235035   4.092   0.136   4.679 -0.3875 -0.2093  0.4356
 4515TIP3    H135036   4.132   0.156   4.594 -0.6152  0.0736  0.3934
 4515TIP3    H235037   4.064   0.221   4.713 -2.0424 -0.5357 -0.0671
 4516TIP3   OH235038   0.444   4.969   3.432 -0.2547  0.1045  0.1370
 4516TIP3    H135039   0.462   5.049   3.483 -1.5257 -0.0434  0.8522
 4516TIP3    H235040   0.479   4.988   3.345  2.0305  0.3492  1.0434
 4517TIP3   OH235041   6.700   4.600   5.470  0.1740  0.0117 -0.0785
 4517TIP3    H135042   6.656   4.682   5.451 -0.8877 -0.8199 -1.4626
 4517TIP3    H235043   6.756   4.584   5.394  0.5425 -0.4305  0.2756
 4518TIP3   OH235044   6.796   0.286  16.293  0.0187 -0.3006  0.3887
 4518TIP3    H135045   6.787   0.334  16.211 -1.9065 -1.4569 -0.1476
 4518TIP3    H235046   6.773   0.350  16.361  0.2066  0.2666 -0.0772
 4519TIP3   OH235047   3.689   5.052   4.335 -0.3131 -0.0399 -0.2721
 4519TIP3    H135048   3.698   5.138   4.376 -2.7399 -0.2820  0.9541
 4519TIP3    H235049   3.680   4.991   4.408 -0.1309 -1.1352 -1.1367
 4520TIP3   OH235050   0.137   0.847  13.551  0.3712  0.0334 -0.2261
 4520TIP3    H135051   0.140   0.783  13.622  0.6508  1.1207  0.7912
 4520TIP3    H235052   0.225   0.885  13.551  0.5481 -0.3545 -1.5521
 4521TIP3   OH235053   2.042   4.789   2.180 -0.1112 -0.5682 -0.3198
 4521TIP3    H135054   2.100   4.863   2.165  0.3260 -0.8118  0.1207
 4521TIP3    H235055   2.092   4.713   2.149 -0.2899 -0.7523 -0.1600
 4522TIP3   OH235056   2.462   2.100  10.909  0.1453 -0.0370 -0.6070
 4522TIP3    H135057   2.427   2.094  10.821  1.6373 -0.6901 -1.1893
 4522TIP3    H235058   2.524   2.027  10.916  0.6093  0.4421  0.7159
 4523TIP3   OH235059   4.600   2.848   3.385 -0.1630  0.3932 -0.4552
 4523TIP3    H135060   4.553   2.765   3.397  0.0329  0.2711 -0.5407
 4523TIP3    H235061   4.588   2.894   3.468  0.3744 -0.0435 -0.1336
 4524TIP3   OH235062   6.077   0.614  16.252 -0.0622  0.6613 -0.2528
 4524TIP3    H135063   6.126   0.536  16.225 -2.0641  0.0306 -2.3988
 4524TIP3    H235064   6.090   0.677  16.181 -1.6671  0.7543 -0.5064
 4525TIP3   OH235065   6.356   1.964   6.553 -0.0480  0.1624  0.2586
 4525TIP3    H135066   6.450   1.953   6.567 -0.1570  0.8301  1.6675
 4525TIP3    H235067   6.347   2.054   6.521 -0.1288 -0.2205 -0.8176
 4526TIP3   OH235068   6.047   6.168   4.458  0.3108 -0.3952  0.1561
 4526TIP3    H135069   6.070   6.154   4.550 -1.6101 -1.6514  0.4939
 4526TIP3    H235070   6.000   6.252   4.457 -1.9994 -1.6007  0.8364
 4527TIP3   OH235071   0.278   3.314   1.219  0.4316 -0.4626 -0.1248
 4527TIP3    H135072   0.241   3.345   1.301 -0.9208  0.8576 -1.1648
 4527TIP3    H235073   0.361   3.360   1.210  1.5677 -2.0747  1.3664
 4528TIP3   OH235074   0.533   5.905  14.675 -0.3206  0.0240 -0.1448
 4528TIP3    H135075   0.475   5.832  14.652  1.1779 -1.8209  1.5352
 4528TIP3    H235076   0.555   5.946  14.592 -0.0347 -2.4010 -1.3407
 4529TIP3   OH235077   0.713   5.688  11.728  0.1814 -0.3272  0.2784
 4529TIP3    H135078   0.800   5.721  11.708  0.0276 -0.5868 -0.9320
 4529TIP3    H235079   0.654   5.751  11.686 -0.1492 -1.2758 -0.7075
 4530TIP3   OH235080   5.057   1.175  16.886  0.2893  0.0272  0.1823
 4530TIP3    H135081   5.079   1.114  16.957  2.4727 -1.0665 -1.3218
 4530TIP3    H235082   5.079   1.261  16.921 -2.0098 -0.0425  2.0340
 4531TIP3   OH235083   4.815   1.536  16.367  0.5201  0.2138 -0.0708
 4531TIP3    H135084   4.825   1.620  16.321 -0.5345 -0.5879 -1.9083
 4531TIP3    H235085   4.827   1.470  16.298  0.2065 -1.1095  1.0939
 4532TIP3   OH235086   2.894   3.053  17.029 -0.0278  0.2175  0.0059
 4532TIP3    H135087   2.941   3.136  17.034  0.8675 -0.2918  0.3301
 4532TIP3    H235088   2.942   2.994  17.087 -1.8894  0.0488  1.4782
 4533TIP3   OH235089   4.275   0.704  13.180  0.3727 -0.2915  0.3182
 4533TIP3    H135090   4.206   0.716  13.245  0.1761 -1.9369  0.4636
 4533TIP3    H235091   4.337   0.776  13.196 -0.7344  0.5465  0.9109
 4534TIP3   OH235092   2.591   2.909  16.323 -0.7030  0.0379  0.0544
 4534TIP3    H135093   2.517   2.848  16.320 -0.3298 -0.4884  1.0762
 4534TIP3    H235094   2.668   2.854  16.314 -0.3956  0.4944 -0.1584
 4535TIP3   OH235095   2.345   1.474  16.585 -0.6438  0.6174 -0.1612
 4535TIP3    H135096   2.309   1.492  16.673 -0.0286 -0.3384  0.2962
 4535TIP3    H235097   2.391   1.391  16.594  0.7213  1.2479 -1.0272
 4536TIP3   OH235098   3.761   6.818  16.598  0.3724  0.8037  0.1293
 4536TIP3    H135099   3.812   6.812  16.518 -0.7678 -0.6411 -0.5377
 4536TIP3    H235100   3.695   6.885  16.579  0.5350  0.9647  0.1278
 4537TIP3   OH235101   3.643   2.862   3.933 -0.7268 -0.3691 -0.8305
 4537TIP3    H135102   3.670   2.954   3.932 -0.1978 -0.4759  0.7302
 4537TIP3    H235103   3.553   2.864   3.899 -0.3137  0.5454 -1.9710
 4538TIP3   OH235104   5.179   5.025   4.136  0.3675 -0.2822 -0.0715
 4538TIP3    H135105   5.224   5.004   4.218 -0.8242 -2.1138  0.1661
 4538TIP3    H235106   5.131   4.946   4.114 -1.7136  1.1531 -0.9967
 4539TIP3   OH235107   6.478   5.645   0.658  0.1012  0.5856 -0.2322
 4539TIP3    H135108   6.569   5.671   0.671  0.3295  0.5266 -1.5932
 4539TIP3    H235109   6.483   5.553   0.632 -0.3620  0.5405 -0.1742
 4540TIP3   OH235110   6.709   5.392   3.066  1.0158 -0.5162 -0.2567
 4540TIP3    H135111   6.734   5.335   3.139  0.5971  0.1691  0.4421
 4540TIP3    H235112   6.618   5.416   3.085  1.8164  2.1722  0.7134
 4541TIP3   OH235113   4.722   3.026   4.205 -1.0227  0.4091  0.0636
 4541TIP3    H135114   4.756   2.987   4.286 -0.6929  0.2087 -0.1700
 4541TIP3    H235115   4.629   3.042   4.224 -1.8315 -2.7026 -0.6012
 4542TIP3   OH235116   3.744   4.315  13.105 -0.0721  0.0718 -0.1153
 4542TIP3    H135117   3.769   4.305  13.197 -0.7838 -0.3975  0.0362
 4542TIP3    H235118   3.778   4.236  13.063 -2.7060 -1.4591  0.4224
 4543TIP3   OH235119   0.120   6.508   0.272 -0.1862  0.3170  0.0011
 4543TIP3    H135120   0.214   6.505   0.254  0.0459 -2.5190  1.1352
 4543TIP3    H235121   0.114   6.514   0.367 -1.0437 -1.7225  0.1320
 4544TIP3   OH235122   0.550   6.403  16.830 -0.8985  0.0654 -0.8080
 4544TIP3    H135123   0.457   6.406  16.853 -0.8283  0.6595 -0.6003
 4544TIP3    H235124   0.578   6.315  16.857 -1.3902 -0.1049 -0.8455
 4545TIP3   OH235125   3.665   3.401   4.329 -0.4086 -0.5843  0.2207
 4545TIP3    H135126   3.671   3.380   4.422 -2.2953 -1.0491  0.2842
 4545TIP3    H235127   3.582   3.362   4.301  0.0545 -0.3273 -1.6256
 4546TIP3   OH235128   0.734   3.566   3.466  0.2221  0.0126 -0.1375
 4546TIP3    H135129   0.652   3.554   3.514 -1.0123 -1.6480 -2.4396
 4546TIP3    H235130   0.798   3.512   3.512 -0.6550 -0.7235  0.2519
 4547TIP3   OH235131   5.839   4.870   1.939 -0.1707 -0.0184  0.1112
 4547TIP3    H135132   5.908   4.921   1.980  1.1162  0.9102 -2.9183
 4547TIP3    H235133   5.767   4.932   1.927 -0.5309 -0.2787  0.8634
 4548TIP3   OH235134   0.102   4.873   2.292  0.0717 -0.4577  0.7769
 4548TIP3    H135135   0.047   4.943   2.328 -0.5376 -0.8998  0.7212
 4548TIP3    H235136   0.147   4.836   2.368 -0.3274 -0.6277  0.9326
 4549TIP3   OH235137   1.143   3.099   1.368 -0.3885 -0.2086 -0.3715
 4549TIP3    H135138   1.178   3.081   1.281  0.2486  0.4471 -0.2567
 4549TIP3    H235139   1.132   3.013   1.408 -1.2484 -0.5587 -1.3073
 4550TIP3   OH235140   4.553   3.841  15.549  0.3767 -0.8015 -0.5442
 4550TIP3    H135141   4.464   3.869  15.529  0.8946 -0.3985 -2.5049
 4550TIP3    H235142   4.563   3.858  15.642 -1.4592 -0.4809 -0.3679
 4551TIP3   OH235143   0.778   4.766   3.569 -0.1233  0.4126 -0.2568
 4551TIP3    H135144   0.757   4.846   3.618 -1.5526 -0.4806  0.6620
 4551TIP3    H235145   0.777   4.794   3.477  3.5760  2.3392  0.0875
 4552TIP3   OH235146   4.777   5.232   3.871  0.0828  0.5261 -0.0569
 4552TIP3    H135147   4.867   5.226   3.905 -0.1397 -1.0731  0.3429
 4552TIP3    H235148   4.784   5.202   3.781  0.0514  1.0390 -0.2306
 4553TIP3   OH235149   1.911   3.919  15.785  0.9829  0.4275 -0.3272
 4553TIP3    H135150   1.989   3.971  15.763  2.7039 -1.7037  0.4041
 4553TIP3    H235151   1.933   3.830  15.758 -0.8574 -0.4020  0.7359
 4554TIP3   OH235152   5.040   2.793  12.616  0.1567 -0.3575 -0.0827
 4554TIP3    H135153   5.131   2.766  12.606 -0.4736 -2.9583  0.2934
 4554TIP3    H235154   5.016   2.829  12.530  1.6678  0.9872  0.0135
 4555TIP3   OH235155   6.575   3.016  17.036 -0.7988  0.2273 -0.2534
 4555TIP3    H135156   6.642   3.003  16.969  0.5087  1.1917  0.8199
 4555TIP3    H235157   6.572   2.933  17.084  0.6953  0.6110  0.5858
 4556TIP3   OH235158   6.412   5.849   3.258  0.5473 -0.8721 -0.0144
 4556TIP3    H135159   6.343   5.904   3.294 -0.7553 -1.4347 -1.5188
 4556TIP3    H235160   6.393   5.761   3.291 -0.7654 -1.4301 -2.0226
 4557TIP3   OH235161   6.707   6.596  17.095  0.2322 -0.1509  0.0857
 4557TIP3    H135162   6.684   6.612  17.187  0.7124  0.2661  0.1343
 4557TIP3    H235163   6.795   6.560  17.098 -0.0422 -0.8819 -0.1687
 4558TIP3   OH235164   1.155   1.932  11.393  0.0199 -0.4558 -0.0057
 4558TIP3    H135165   1.069   1.896  11.371  0.1708 -0.7247 -0.1664
 4558TIP3    H235166   1.217   1.871  11.353  0.2738  0.5753 -1.2559
 4559TIP3   OH235167   0.641   1.205  13.189  0.7794 -0.0806  0.0426
 4559TIP3    H135168   0.660   1.298  13.197  1.3801 -0.1633 -0.3123
 4559TIP3    H235169   0.691   1.177  13.111 -0.9315 -0.2943 -1.0258
 4560TIP3   OH235170   2.174   2.298   4.353 -0.2928  0.7221  0.2452
 4560TIP3    H135171   2.164   2.211   4.314 -0.1891  1.2347 -0.9647
 4560TIP3    H235172   2.251   2.335   4.311  0.1732  1.0921  1.3688
 4561TIP3   OH235173   1.797   2.128  13.274 -0.4930  0.2538 -0.7357
 4561TIP3    H135174   1.834   2.173  13.197  0.0726 -0.6097 -0.9887
 4561TIP3    H235175   1.826   2.181  13.348  2.4515 -1.0639 -0.8037
 4562TIP3   OH235176   6.614   5.521   4.033  0.2347  0.3428  0.0505
 4562TIP3    H135177   6.621   5.431   4.001 -1.6285  0.7952 -1.8932
 4562TIP3    H235178   6.523   5.529   4.062  0.8224  1.1553  1.8183
 4563TIP3   OH235179   6.003   3.252   2.425  0.0542  0.2066 -0.3705
 4563TIP3    H135180   5.962   3.263   2.510  1.4141 -2.0970  0.6817
 4563TIP3    H235181   6.024   3.341   2.397  0.9391  0.9860  2.4402
 4564TIP3   OH235182   2.727   5.873   2.739 -0.8338 -0.1210  0.2657
 4564TIP3    H135183   2.708   5.791   2.693  0.5762  0.3970 -1.3430
 4564TIP3    H235184   2.641   5.910   2.760 -1.6852  0.3993 -3.4730
 4565TIP3   OH235185   1.031   5.192  14.425 -0.2936  0.1145  0.4482
 4565TIP3    H135186   1.084   5.226  14.498  0.1905  0.1988  0.0666
 4565TIP3    H235187   0.944   5.181  14.462  0.1428 -0.6751  1.2921
 4566TIP3   OH235188   0.777   2.083   1.853  0.6745 -0.1316 -0.1541
 4566TIP3    H135189   0.816   1.996   1.843 -1.2689 -1.5113  2.8718
 4566TIP3    H235190   0.684   2.066   1.870  0.1684  2.5757  0.2412
 4567TIP3   OH235191   5.340   1.760  15.946  0.4211  0.1676 -0.0487
 4567TIP3    H135192   5.250   1.778  15.919 -0.4453 -2.0440  1.0556
 4567TIP3    H235193   5.335   1.752  16.042  1.6885 -0.4055 -0.0072
 4568TIP3   OH235194   5.654   4.382   2.045  0.2196 -0.2034  0.2632
 4568TIP3    H135195   5.677   4.312   2.106 -2.5835 -0.9729  0.6041
 4568TIP3    H235196   5.737   4.418   2.016  1.7001 -1.9811  2.0526
 4569TIP3   OH235197   5.296   0.994   4.616 -0.1575 -0.1664 -0.5505
 4569TIP3    H135198   5.380   0.982   4.659 -1.1404 -1.9984  0.9858
 4569TIP3    H235199   5.280   1.089   4.620  0.3135 -0.1239  2.2173
 4570TIP3   OH235200   5.621   6.644  12.045  0.3238  0.1402  0.4982
 4570TIP3    H135201   5.531   6.642  12.077 -0.0213  1.0322 -0.3634
 4570TIP3    H235202   5.670   6.688  12.114 -0.3921  1.9664 -0.1065
 4571TIP3   OH235203   6.707   5.429  11.993  0.0163  0.1390 -0.0049
 4571TIP3    H135204   6.644   5.502  11.991 -0.1666 -0.0237 -0.5342
 4571TIP3    H235205   6.671   5.366  11.930 -0.8144 -1.2341  1.7643
 4572TIP3   OH235206   2.904   4.094  10.724  0.7481  0.3666 -0.0662
 4572TIP3    H135207   2.880   4.007  10.757  0.1345 -0.1811 -1.8309
 4572TIP3    H235208   2.991   4.083  10.686  0.3514  0.3007 -0.9902
 4573TIP3   OH235209   3.390   2.232  13.510  0.1296  0.1639 -0.0441
 4573TIP3    H135210   3.475   2.229  13.465 -1.1951  1.6240 -3.0068
 4573TIP3    H235211   3.353   2.145  13.499  1.5104 -0.7333  2.0010
 4574TIP3   OH235212   5.626   2.236  13.576  0.5282 -0.6216 -0.0770
 4574TIP3    H135213   5.595   2.146  13.564  0.1306 -0.7916  1.9287
 4574TIP3    H235214   5.547   2.288  13.591  0.5202  0.5551 -3.4661
 4575TIP3   OH235215   5.910   3.859  15.193 -0.1357 -0.4200  0.0092
 4575TIP3    H135216   5.968   3.933  15.211 -1.9892  1.8383 -2.4795
 4575TIP3    H235217   5.950   3.815  15.118  0.6879 -1.7326  1.1636
 4576TIP3   OH235218   6.227   4.752   5.230  0.5928 -0.1834 -0.1091
 4576TIP3    H135219   6.257   4.835   5.192 -1.1322  0.0104 -1.1955
 4576TIP3    H235220   6.143   4.774   5.272  0.1818 -1.3274 -0.2911
 4577TIP3   OH235221   1.781   2.354  13.844  0.5240  0.6758 -0.3595
 4577TIP3    H135222   1.840   2.329  13.916  0.8018  0.6005 -0.6104
 4577TIP3    H235223   1.798   2.447  13.831 -0.6506  1.0606  0.7048
 4578TIP3   OH235224   6.299   0.144   0.356 -0.2787 -0.0340  0.6210
 4578TIP3    H135225   6.301   0.059   0.311 -0.0408  0.4771 -0.3696
 4578TIP3    H235226   6.366   0.136   0.424 -1.3583 -1.1800  1.5934
 4579TIP3   OH235227   4.480   1.934  14.872  0.1941 -0.1385 -0.4737
 4579TIP3    H135228   4.536   2.011  14.868 -0.1272  0.0579 -1.4406
 4579TIP3    H235229   4.505   1.882  14.797 -0.5069 -0.3302 -0.5819
 4580TIP3   OH235230   6.383   4.984  14.126 -0.1030  0.3150 -0.3607
 4580TIP3    H135231   6.332   4.988  14.207 -1.8125  1.1260 -1.4134
 4580TIP3    H235232   6.336   5.042  14.066  2.5182  1.7261 -1.1778
 4581TIP3   OH235233   4.770   1.234   2.922  0.2961 -0.2988  0.2450
 4581TIP3    H135234   4.851   1.183   2.915  1.1401  1.0740 -0.4485
 4581TIP3    H235235   4.800   1.324   2.937 -1.1411  0.0281  1.4317
 4582TIP3   OH235236   2.917   1.682  15.320 -0.1532 -0.3595  0.0380
 4582TIP3    H135237   3.002   1.724  15.309  0.4305 -1.2035  1.1936
 4582TIP3    H235238   2.856   1.738  15.270  0.8008  1.1149  0.4593
 4583TIP3   OH235239   1.112   5.785  15.263  0.0916 -0.4688  0.1762
 4583TIP3    H135240   1.121   5.773  15.358 -0.9772  0.3504  0.4124
 4583TIP3    H235241   1.017   5.796  15.250  0.3387  0.7314 -0.8106
 4584TIP3   OH235242   2.148   0.853  11.887 -0.1938  0.3382  0.0678
 4584TIP3    H135243   2.174   0.897  11.806 -0.7426  0.6076  0.0327
 4584TIP3    H235244   2.147   0.760  11.865  1.0057  0.2932  0.1504
 4585TIP3   OH235245   0.364   0.104  14.973 -0.2471 -0.0983  0.3187
 4585TIP3    H135246   0.286   0.096  15.028  0.1858  0.1343  0.9804
 4585TIP3    H235247   0.353   0.190  14.930 -0.1545  0.1213  0.7303
 4586TIP3   OH235248   4.339   2.692   0.761  0.0108 -0.2459  0.0072
 4586TIP3    H135249   4.259   2.648   0.733 -0.3409 -0.1884  0.8931
 4586TIP3    H235250   4.399   2.621   0.784 -0.5278 -0.3014  1.3577
 4587TIP3   OH235251   2.969   6.345   5.903 -0.0410 -0.4866  0.2919
 4587TIP3    H135252   3.024   6.375   5.976 -0.7778  2.9368 -0.3843
 4587TIP3    H235253   2.882   6.379   5.924 -0.4762 -0.2795 -1.7187
 4588TIP3   OH235254   1.142   5.178  13.027 -0.6052 -0.0384  0.5717
 4588TIP3    H135255   1.105   5.179  13.116 -1.7190 -1.2991  0.1596
 4588TIP3    H235256   1.236   5.192  13.040 -0.5518 -1.4434  2.0676
 4589TIP3   OH235257   4.263   3.005  14.688 -0.6809  0.1734  0.3925
 4589TIP3    H135258   4.293   2.945  14.621 -1.1459  0.1399  0.2088
 4589TIP3    H235259   4.168   2.992  14.691 -0.6129 -0.1955  1.4097
 4590TIP3   OH235260   2.004   3.973  14.005 -0.6047  0.0335 -0.0386
 4590TIP3    H135261   2.074   3.969  13.940  0.5394 -1.7054  1.2302
 4590TIP3    H235262   2.048   3.973  14.089 -2.1177 -0.2457  0.7937
 4591TIP3   OH235263   6.585   3.820  14.622  0.3811 -0.1421 -0.1491
 4591TIP3    H135264   6.568   3.744  14.567  1.3589  0.6116 -1.5497
 4591TIP3    H235265   6.506   3.829  14.676 -0.7440 -0.7533 -1.6169
 4592TIP3   OH235266   3.779   4.685  15.072  0.4593  0.6413 -0.3764
 4592TIP3    H135267   3.766   4.775  15.043 -0.9979  0.2816 -0.9001
 4592TIP3    H235268   3.732   4.680  15.156  0.0475  0.2254 -0.6269
 4593TIP3   OH235269   2.256   3.595   0.321  0.4335  0.0078  0.0260
 4593TIP3    H135270   2.230   3.584   0.230 -1.2451  0.5970  0.3864
 4593TIP3    H235271   2.338   3.644   0.318  1.7563 -2.1598 -1.2020
 4594TIP3   OH235272   4.369   0.360   1.917 -0.1996 -0.4006  0.0806
 4594TIP3    H135273   4.313   0.355   1.995 -0.0950  0.1037  0.1925
 4594TIP3    H235274   4.334   0.433   1.867  1.6965  1.3983  1.2333
 4595TIP3   OH235275   0.316   5.004   2.921 -0.1231 -0.0855  0.0816
 4595TIP3    H135276   0.225   5.030   2.903 -0.0744 -0.6264 -1.0741
 4595TIP3    H235277   0.367   5.050   2.854  0.1747 -1.5596 -0.7631
 4596TIP3   OH235278   5.726   5.728   1.264 -0.5491  0.7281  0.5817
 4596TIP3    H135279   5.706   5.634   1.269  1.8179  0.0698 -0.6037
 4596TIP3    H235280   5.768   5.748   1.348  0.0974  0.3840  0.3490
 4597TIP3   OH235281   3.968   3.583   2.962  0.2906 -0.0399 -0.9515
 4597TIP3    H135282   3.935   3.497   2.986 -0.8474  0.0070 -2.2621
 4597TIP3    H235283   4.040   3.599   3.024  1.2816 -2.3938 -1.3942
 4598TIP3   OH235284   6.375   2.762  12.926  0.4969 -0.5116 -0.1326
 4598TIP3    H135285   6.303   2.745  12.988  0.3607  1.9118  0.4794
 4598TIP3    H235286   6.399   2.675  12.893 -1.9203 -1.5255  0.5199
 4599TIP3   OH235287   4.622   6.040  13.252 -0.1327 -0.3509 -0.8618
 4599TIP3    H135288   4.659   6.005  13.171  1.6475 -0.2466 -0.1315
 4599TIP3    H235289   4.696   6.047  13.312 -1.0430  1.4406  0.1455
 4600TIP3   OH235290   2.558   4.636   0.759 -0.2231  0.0204  0.7522
 4600TIP3    H135291   2.627   4.683   0.712 -0.2670 -0.4849  0.1711
 4600TIP3    H235292   2.490   4.701   0.775 -1.5600 -0.4257 -2.5324
 4601TIP3   OH235293   3.849   0.324   3.851  0.1820 -0.0762  0.0578
 4601TIP3    H135294   3.832   0.401   3.797 -0.0984 -0.4571 -0.4067
 4601TIP3    H235295   3.896   0.358   3.927  2.3154  0.2053 -1.3182
 4602TIP3   OH235296   2.277   3.482  14.695  0.3492 -0.1385 -0.3198
 4602TIP3    H135297   2.199   3.438  14.661 -1.0095  2.2536 -0.5181
 4602TIP3    H235298   2.244   3.541  14.762  2.2969 -0.5129  1.0465
 4603TIP3   OH235299   0.339   4.942  15.705 -0.4584 -0.1489 -0.3185
 4603TIP3    H135300   0.349   4.888  15.784 -0.9475 -0.9493 -0.7938
 4603TIP3    H235301   0.395   5.017  15.721 -0.8297 -0.1096  0.9636
 4604TIP3   OH235302   4.978   5.119  15.747 -0.4011  0.4706  0.4861
 4604TIP3    H135303   5.045   5.072  15.796 -0.0147  2.5289  2.0523
 4604TIP3    H235304   5.012   5.125  15.658 -0.2181 -1.6370  0.3664
 4605TIP3   OH235305   1.066   4.217   3.550 -0.6695  0.2421  0.0902
 4605TIP3    H135306   1.059   4.286   3.617 -0.9440  1.3197 -1.0227
 4605TIP3    H235307   0.988   4.163   3.564 -1.1078  0.8860  0.1735
 4606TIP3   OH235308   0.861   0.909  15.810 -0.3215 -0.1215  0.1218
 4606TIP3    H135309   0.939   0.881  15.859 -0.9305  0.9502  1.8065
 4606TIP3    H235310   0.799   0.837  15.822  0.1722 -0.7122 -0.7250
 4607TIP3   OH235311   0.814   0.835  15.312  0.1407  0.0177  0.0505
 4607TIP3    H135312   0.784   0.749  15.283 -0.3723  0.2672 -0.1702
 4607TIP3    H235313   0.839   0.880  15.232  0.6882 -0.0297  0.1935
 4608TIP3   OH235314   5.849   2.171  13.700  0.2569  0.1847  0.1533
 4608TIP3    H135315   5.765   2.199  13.662 -0.1732 -0.0397  0.9115
 4608TIP3    H235316   5.852   2.076  13.683  0.9125  0.3868 -0.9054
 4609TIP3   OH235317   3.395   3.559   0.932 -0.7384 -0.3930  0.0956
 4609TIP3    H135318   3.310   3.552   0.888 -0.7004  1.6355 -0.3833
 4609TIP3    H235319   3.415   3.653   0.932  2.4530 -0.9061 -1.6842
 4610TIP3   OH235320   1.385   3.274   2.543 -0.0226  0.3427 -0.4890
 4610TIP3    H135321   1.362   3.185   2.515  1.1347  0.2886 -1.3481
 4610TIP3    H235322   1.479   3.270   2.559  0.0584  1.4405 -0.6286
 4611TIP3   OH235323   6.765   1.445   2.000 -0.1816 -0.3299  0.8397
 4611TIP3    H135324   6.768   1.464   2.094  0.7769  0.0680  0.7427
 4611TIP3    H235325   6.856   1.451   1.972 -0.7663  3.1215 -0.7871
 4612TIP3   OH235326   3.119   0.976  12.383 -0.7903  0.3062 -0.0067
 4612TIP3    H135327   3.143   0.934  12.300 -1.4905  0.7844 -0.4629
 4612TIP3    H235328   3.172   1.055  12.386  0.4145 -0.5169  0.7782
 4613TIP3   OH235329   3.018   0.108  11.920  0.5019 -0.0089 -0.1287
 4613TIP3    H135330   2.979   0.183  11.875 -1.1282 -0.4145  0.5279
 4613TIP3    H235331   3.086   0.147  11.976  1.0721  0.7250 -1.2872
 4614TIP3   OH235332   3.387   4.646  13.144 -0.0073 -0.3431  0.5258
 4614TIP3    H135333   3.476   4.623  13.171 -0.4207 -1.2102  1.1881
 4614TIP3    H235334   3.345   4.563  13.123 -0.1907  0.1778 -1.3675
 4615TIP3   OH235335   6.558   2.805   4.737 -0.2250 -0.2122 -0.7243
 4615TIP3    H135336   6.468   2.811   4.769  0.6611  0.9886  1.8538
 4615TIP3    H235337   6.554   2.842   4.648 -1.9479  1.8822  0.1276
 4616TIP3   OH235338   0.793   2.273  12.256  0.4294 -0.0535 -0.0091
 4616TIP3    H135339   0.715   2.272  12.311  0.9517  3.3052  1.0498
 4616TIP3    H235340   0.866   2.285  12.317  1.5366 -0.8330 -1.1238
 4617TIP3   OH235341   6.804   6.120   1.428  0.2547  0.4673 -0.3414
 4617TIP3    H135342   6.765   6.066   1.496 -2.1324  1.7230 -0.6019
 4617TIP3    H235343   6.873   6.065   1.390  2.0668 -0.1003  3.3379
 4618TIP3   OH235344   0.140   2.120  14.635 -0.1746 -0.4414 -0.7658
 4618TIP3    H135345   0.172   2.201  14.595 -0.1763  0.7561  1.4924
 4618TIP3    H235346   0.188   2.051  14.590 -0.6118  0.7215 -3.1905
 4619TIP3   OH235347   3.690   1.485  15.895 -0.7593 -0.0912 -0.5763
 4619TIP3    H135348   3.630   1.501  15.969  0.5004 -0.2506  0.5265
 4619TIP3    H235349   3.774   1.467  15.937 -0.0635 -0.4294 -2.0728
 4620TIP3   OH235350   3.507   2.906   2.155  0.0891  0.3049 -0.3324
 4620TIP3    H135351   3.429   2.939   2.110  0.2870  0.6021 -0.4591
 4620TIP3    H235352   3.534   2.978   2.211 -0.2245 -0.1073  0.3577
 4621TIP3   OH235353   5.421   1.218   1.696 -0.0655  0.4583  0.2828
 4621TIP3    H135354   5.511   1.242   1.716  0.4368 -1.2422  0.1795
 4621TIP3    H235355   5.368   1.285   1.739  1.2278  1.2795  0.6376
 4622TIP3   OH235356   6.221   3.465  12.760  0.0484  0.2123  0.1437
 4622TIP3    H135357   6.187   3.510  12.683  1.5313  0.0837 -0.6179
 4622TIP3    H235358   6.268   3.389  12.725 -0.8353 -0.9166  1.2963
 4623TIP3   OH235359   2.840   3.736  13.794 -0.4534 -0.0684 -0.3522
 4623TIP3    H135360   2.836   3.646  13.761  1.9442 -0.2724 -0.2649
 4623TIP3    H235361   2.892   3.783  13.729 -1.8735  1.3487 -0.5207
 4624TIP3   OH235362   4.722   2.557  12.728  0.8349  0.1524 -0.0057
 4624TIP3    H135363   4.670   2.566  12.648  0.6310  0.0544  0.1128
 4624TIP3    H235364   4.710   2.639  12.774 -0.0235 -0.2324  0.4890
 4625TIP3   OH235365   6.051   5.377  16.785 -0.7116  0.1624  0.1896
 4625TIP3    H135366   6.041   5.441  16.856  1.6741  0.5126  0.3135
 4625TIP3    H235367   6.023   5.294  16.823 -1.6291  0.7210  0.7864
 4626TIP3   OH235368   3.707   4.002  13.218  0.0751 -0.3124 -0.2477
 4626TIP3    H135369   3.773   3.990  13.150  0.4094 -0.5573  0.1146
 4626TIP3    H235370   3.642   4.061  13.179 -0.8110 -2.0314 -1.5286
 4627TIP3   OH235371   3.784   5.682   3.521 -0.7841  0.3639 -0.0402
 4627TIP3    H135372   3.735   5.749   3.474  1.0522  2.2303  0.5631
 4627TIP3    H235373   3.803   5.615   3.455 -2.5677  0.4435 -0.6774
 4628TIP3   OH235374   6.276   1.089   2.971 -0.3178  0.0195 -0.0451
 4628TIP3    H135375   6.239   1.034   3.039 -0.8060 -0.1285 -0.4304
 4628TIP3    H235376   6.234   1.060   2.890  2.1234 -1.6054 -0.8569
 4629TIP3   OH235377   1.032   3.850  13.777 -0.9121  0.1302 -0.0200
 4629TIP3    H135378   1.091   3.923  13.797 -2.5633  1.7446 -0.8505
 4629TIP3    H235379   0.986   3.877  13.698 -1.2905 -2.0078 -0.5753
 4630TIP3   OH235380   1.726   0.553   5.582 -0.1458 -0.5595  0.0999
 4630TIP3    H135381   1.678   0.471   5.596 -1.6524  0.1562 -0.6094
 4630TIP3    H235382   1.660   0.621   5.595  0.8774  0.5130 -0.1743
 4631TIP3   OH235383   5.130   6.592   1.485 -0.1401 -0.2875 -0.5892
 4631TIP3    H135384   5.164   6.527   1.423  1.5645  2.1857 -2.4134
 4631TIP3    H235385   5.196   6.597   1.553 -0.6389 -0.9365 -0.0354
 4632TIP3   OH235386   0.578   0.017   1.296 -0.3194  0.0502 -0.5693
 4632TIP3    H135387   0.641  -0.055   1.300  0.7175  0.9812  0.6762
 4632TIP3    H235388   0.544   0.024   1.386 -0.2051  1.2554 -0.6010
 4633TIP3   OH235389   5.459   6.340   1.516 -0.1321  0.2566  0.0172
 4633TIP3    H135390   5.536   6.374   1.472  0.4900  0.8104  1.4830
 4633TIP3    H235391   5.465   6.245   1.505  1.5405  0.1743  1.3060
 4634TIP3   OH235392   6.075   0.102  12.856 -0.2942 -0.8908  0.1400
 4634TIP3    H135393   6.060   0.148  12.773 -0.2483 -1.7223 -0.3414
 4634TIP3    H235394   5.991   0.106  12.902  0.1755  1.2923  0.9690
 4635TIP3   OH235395   1.412   5.256   4.689  0.0541  0.1226 -0.4246
 4635TIP3    H135396   1.454   5.254   4.604  0.6686  0.2857 -0.1281
 4635TIP3    H235397   1.341   5.320   4.680  1.1563  1.3887 -0.3453
 4636TIP3   OH235398   6.381   1.745  11.465 -0.1249 -0.0598  0.2111
 4636TIP3    H135399   6.328   1.685  11.412  0.2895 -0.2368 -0.0066
 4636TIP3    H235400   6.340   1.831  11.452 -1.7976 -0.5326  1.8974
 4637TIP3   OH235401   3.255   1.230  12.412 -0.2729  0.6012  0.2738
 4637TIP3    H135402   3.248   1.291  12.486  1.1878  2.6518 -1.1693
 4637TIP3    H235403   3.226   1.281  12.336  1.6566 -0.2124 -1.0969
 4638TIP3   OH235404   6.795   4.034   0.620 -0.0030 -0.4279 -0.1415
 4638TIP3    H135405   6.804   4.098   0.549  2.9062 -0.9948 -0.4078
 4638TIP3    H235406   6.795   4.087   0.700  0.0803  0.0214 -0.4346
 4639TIP3   OH235407   6.785   4.552  11.989 -0.3739  0.2335 -0.1570
 4639TIP3    H135408   6.733   4.588  12.060 -2.1493 -0.4336 -1.0590
 4639TIP3    H235409   6.784   4.620  11.922  3.0906  1.7777  1.1429
 4640TIP3   OH235410   5.746   4.002   6.668 -0.4376  0.3527  0.2968
 4640TIP3    H135411   5.770   3.992   6.760 -0.5753  0.7052  0.3728
 4640TIP3    H235412   5.723   3.913   6.640  2.2084 -0.2567 -0.1632
 4641TIP3   OH235413   4.125   5.977   3.339  0.3979 -0.1509  0.0304
 4641TIP3    H135414   4.180   5.900   3.326 -0.9936 -1.1650 -0.0870
 4641TIP3    H235415   4.120   6.017   3.252 -0.3934 -1.0178 -0.3439
 4642TIP3   OH235416   1.295   2.497  16.456  0.2354 -0.4633 -0.1599
 4642TIP3    H135417   1.372   2.440  16.458 -0.0551 -0.8515  0.2564
 4642TIP3    H235418   1.305   2.548  16.375  0.2820 -1.4296 -0.7872
 4643TIP3   OH235419   5.747   3.687   1.838 -0.0194 -0.7951 -0.2751
 4643TIP3    H135420   5.675   3.729   1.790  0.3208  1.1495  0.8101
 4643TIP3    H235421   5.723   3.594   1.840 -2.9782 -0.1183  0.8154
 4644TIP3   OH235422   3.966   3.551   0.007  0.4274  0.0076 -0.2690
 4644TIP3    H135423   3.962   3.471  -0.045 -2.1222  0.6033 -1.1558
 4644TIP3    H235424   3.940   3.524   0.095 -1.7210 -0.0502 -0.8417
 4645TIP3   OH235425   6.693   5.690  11.781 -0.0101 -0.0491 -0.2015
 4645TIP3    H135426   6.767   5.640  11.815 -0.0095 -0.0787 -0.2467
 4645TIP3    H235427   6.721   5.781  11.788  0.6472 -0.1173 -1.6563
 4646TIP3   OH235428   2.291   6.284  14.416  0.1703  0.5115  0.1912
 4646TIP3    H135429   2.247   6.318  14.338 -3.1505  0.8762  2.0179
 4646TIP3    H235430   2.362   6.230  14.382 -0.6966  1.1903 -3.0346
 4647TIP3   OH235431   6.084   3.208  15.419 -0.6355 -0.2010  0.6831
 4647TIP3    H135432   6.123   3.245  15.339  0.7425 -0.4156  1.2267
 4647TIP3    H235433   5.997   3.179  15.392 -0.6388  0.8003 -0.4542
 4648TIP3   OH235434   2.101   3.106  11.603  0.0226  0.1157  0.0679
 4648TIP3    H135435   2.188   3.080  11.634 -0.0564  0.9712  1.0752
 4648TIP3    H235436   2.104   3.201  11.601 -1.4545  0.2772  1.9536
 4649TIP3   OH235437   0.301   3.889  13.227  0.6295  0.5627  0.0998
 4649TIP3    H135438   0.230   3.846  13.274  2.0374 -2.0666  0.0130
 4649TIP3    H235439   0.366   3.909  13.294  0.2813  2.0122  0.0323
 4650TIP3   OH235440   6.686   2.469  12.199 -0.0708  0.1627  0.2226
 4650TIP3    H135441   6.751   2.409  12.164 -0.7891 -0.9924  0.7824
 4650TIP3    H235442   6.620   2.476  12.130  0.0059  0.2864  0.1627
 4651TIP3   OH235443   4.233   6.635   5.650  0.8301 -0.7097 -0.0911
 4651TIP3    H135444   4.234   6.726   5.620  1.6635 -0.4376  0.7005
 4651TIP3    H235445   4.271   6.585   5.578 -1.0585 -0.6790 -1.1789
 4652TIP3   OH235446   3.450   0.199  11.657  0.1914  0.3468  0.5799
 4652TIP3    H135447   3.487   0.170  11.740 -0.5977  1.9759  1.5536
 4652TIP3    H235448   3.414   0.286  11.675 -1.7912 -0.0631 -0.9653
 4653TIP3   OH235449   0.605   3.538  12.378  0.0566  0.0721  0.5224
 4653TIP3    H135450   0.683   3.584  12.347 -0.4740 -0.1169 -1.1939
 4653TIP3    H235451   0.639   3.455  12.412  0.6465  0.1498  0.1437
 4654TIP3   OH235452   2.211   5.425  15.624 -0.2031 -0.2612  0.2158
 4654TIP3    H135453   2.236   5.379  15.704 -0.4864  0.8228  0.9542
 4654TIP3    H235454   2.274   5.497  15.616 -0.2612 -0.2801 -0.4578
 4655TIP3   OH235455   6.342   5.734   5.538 -0.0384 -0.6112 -0.0472
 4655TIP3    H135456   6.262   5.747   5.487  0.0379  1.5371  0.2743
 4655TIP3    H235457   6.311   5.712   5.626 -0.2568 -0.7499 -0.1595
 4656TIP3   OH235458   1.005   6.445   3.421 -0.0478 -0.1949 -0.0441
 4656TIP3    H135459   1.018   6.429   3.515 -0.0910  0.1440  0.0207
 4656TIP3    H235460   0.912   6.466   3.413  0.3678  1.9565  0.1630
 4657TIP3   OH235461   2.600   3.472  15.071 -0.4182 -0.1612  0.6898
 4657TIP3    H135462   2.620   3.379  15.076 -1.0285 -0.2681  1.2834
 4657TIP3    H235463   2.550   3.483  14.990 -0.8122 -0.4437  0.8930
 4658TIP3   OH235464   5.191   1.409  14.636 -0.2002 -0.0305 -0.3492
 4658TIP3    H135465   5.261   1.463  14.674 -0.5976  0.9220 -0.9229
 4658TIP3    H235466   5.237   1.333  14.599  0.6300  0.8543 -1.2214
 4659TIP3   OH235467   2.578   6.551  12.381  0.0231 -0.4663  0.3190
 4659TIP3    H135468   2.625   6.610  12.441 -0.1563 -0.1829  0.1834
 4659TIP3    H235469   2.590   6.590  12.295 -1.3233  0.1885  0.4035
 4660TIP3   OH235470   2.472   2.809  13.293 -0.0557  0.6388 -0.0591
 4660TIP3    H135471   2.492   2.730  13.243  2.9043  1.2778 -0.0427
 4660TIP3    H235472   2.415   2.860  13.234  0.5392 -0.1319 -1.3498
 4661TIP3   OH235473   2.696   4.322  12.656  0.2192 -0.7674 -0.2918
 4661TIP3    H135474   2.660   4.351  12.740 -1.8245 -0.7998 -1.1057
 4661TIP3    H235475   2.768   4.263  12.680  0.2332 -0.1188  1.4062
 4662TIP3   OH235476   6.194   2.250   0.161  0.0416 -0.6794  0.4661
 4662TIP3    H135477   6.259   2.319   0.151 -0.9069  0.1700 -0.0393
 4662TIP3    H235478   6.242   2.169   0.146  0.9010 -0.0480 -0.2701
 4663TIP3   OH235479   6.186   6.116   1.633 -0.4529  0.3910 -0.2474
 4663TIP3    H135480   6.102   6.089   1.669  0.5316  0.6274  2.4223
 4663TIP3    H235481   6.245   6.042   1.650  0.0411  0.4543 -1.5529
 4664TIP3   OH235482   4.830   4.042  13.918 -0.1101 -0.4006  0.3984
 4664TIP3    H135483   4.795   4.130  13.932 -0.4609 -0.4572 -0.0998
 4664TIP3    H235484   4.916   4.044  13.960 -0.0494  0.2323  0.2605
 4665TIP3   OH235485   4.132   1.130  13.135 -1.2410  0.3003  0.3312
 4665TIP3    H135486   4.043   1.102  13.116 -1.3591  0.5628  0.4984
 4665TIP3    H235487   4.165   1.165  13.053 -1.0847 -0.3373  0.1121
 4666TIP3   OH235488   4.689   3.130  13.832  0.1811 -0.4454  0.3164
 4666TIP3    H135489   4.727   3.157  13.749 -0.6279  1.5447  0.5352
 4666TIP3    H235490   4.599   3.106  13.810  0.0994 -0.3472  0.5406
 4667TIP3   OH235491   3.503   5.473  14.426  0.0137  0.0740 -0.2172
 4667TIP3    H135492   3.486   5.379  14.435  0.2340  0.1193  0.8429
 4667TIP3    H235493   3.520   5.486  14.333 -0.3341 -0.8816 -0.4255
 4668TIP3   OH235494   3.331   6.039  10.660  0.0750  0.2719  0.3525
 4668TIP3    H135495   3.352   6.132  10.666  0.7036  0.1107  0.7369
 4668TIP3    H235496   3.271   6.033  10.586  0.2492  0.9428  0.1455
 4669TIP3   OH235497   2.286   0.925  16.145 -0.1515 -0.0676 -0.2681
 4669TIP3    H135498   2.304   0.831  16.146  1.7564  0.2634  0.6052
 4669TIP3    H235499   2.253   0.944  16.233  2.5549  0.5573  0.6989
 4670TIP3   OH235500   5.402   2.549   2.373  0.5581 -0.3507 -0.3554
 4670TIP3    H135501   5.373   2.508   2.454  1.6439 -0.8206 -0.1838
 4670TIP3    H235502   5.384   2.642   2.385  0.5756 -0.4357  0.3740
 4671TIP3   OH235503   0.035   5.510   5.247  0.9090  0.2443  0.0756
 4671TIP3    H135504   0.037   5.503   5.342  1.0540  0.7958  0.1186
 4671TIP3    H235505   0.119   5.476   5.218 -0.1223 -2.4498 -0.0638
 4672TIP3   OH235506   4.149   4.384   5.959 -0.0097  0.0767 -0.5765
 4672TIP3    H135507   4.192   4.446   5.901 -1.1683  0.9370 -0.5409
 4672TIP3    H235508   4.145   4.428   6.044  0.2780 -0.5527 -0.2277
 4673TIP3   OH235509   3.134   1.979  14.898  0.0190  0.6488  0.4465
 4673TIP3    H135510   3.227   1.960  14.907  0.1637  0.1012 -1.6527
 4673TIP3    H235511   3.104   1.997  14.987  2.1799  1.1370  1.1301
 4674TIP3   OH235512   6.528   2.974  13.630  0.1493  0.2531  0.6077
 4674TIP3    H135513   6.570   3.032  13.693  1.7137 -1.2523  1.0499
 4674TIP3    H235514   6.600   2.937  13.580 -0.9042 -0.2739 -0.5795
 4675TIP3   OH235515   5.130   1.312   5.081 -0.1813 -0.4094 -0.2791
 4675TIP3    H135516   5.111   1.406   5.075 -0.0302 -0.4202 -1.0121
 4675TIP3    H235517   5.058   1.276   5.132 -1.2705 -0.1961 -1.6109
 4676TIP3   OH235518   5.067   2.069   2.286  0.0939 -0.1648  0.0979
 4676TIP3    H135519   5.067   2.129   2.212 -1.5615  1.3183  1.2162
 4676TIP3    H235520   5.028   1.988   2.252  1.1310 -0.2021 -1.0879
 4677TIP3   OH235521   2.197   1.985  12.239  0.3613  0.2268  0.0119
 4677TIP3    H135522   2.139   1.949  12.306 -0.4271  0.0662 -0.7427
 4677TIP3    H235523   2.250   2.051  12.286  0.6333 -0.6812  1.0303
 4678TIP3   OH235524   3.312   4.380  13.233 -0.2380  0.0350 -0.5321
 4678TIP3    H135525   3.316   4.437  13.310 -0.5109 -0.1065 -0.4131
 4678TIP3    H235526   3.397   4.336  13.232 -1.4588 -2.6353  1.7313
 4679TIP3   OH235527   6.444   4.417   1.360 -0.0321  0.5694 -0.0862
 4679TIP3    H135528   6.512   4.384   1.300 -0.0978 -0.7417  0.5381
 4679TIP3    H235529   6.372   4.355   1.351  0.4779 -0.4985  2.3424
 4680TIP3   OH235530   4.493   5.874   6.216  0.3497 -0.2443 -0.4966
 4680TIP3    H135531   4.415   5.852   6.267 -0.9037 -0.1760 -2.2846
 4680TIP3    H235532   4.468   5.857   6.125  1.3598  2.6798 -1.4328
 4681TIP3   OH235533   5.546   1.085   2.193  0.0328  0.2884 -0.3942
 4681TIP3    H135534   5.543   1.125   2.106  3.1638  0.3320 -0.5880
 4681TIP3    H235535   5.507   0.999   2.180 -3.5457  1.7896 -0.7571
 4682TIP3   OH235536   5.581   3.655   4.150  0.2049  0.0663 -0.1043
 4682TIP3    H135537   5.572   3.656   4.246  0.4594 -1.1381 -0.0574
 4682TIP3    H235538   5.617   3.741   4.129 -2.9288  1.7135  0.5447
 4683TIP3   OH235539   5.108   0.268  16.420  0.2107  0.5184  0.1621
 4683TIP3    H135540   5.104   0.328  16.345 -0.0047 -0.9624 -1.0580
 4683TIP3    H235541   5.056   0.310  16.488 -0.5095  1.3851 -0.9012
 4684TIP3   OH235542   2.434   4.138   0.757 -0.1801 -0.4075  0.3111
 4684TIP3    H135543   2.477   4.127   0.842 -0.5914 -2.6957  0.2820
 4684TIP3    H235544   2.482   4.210   0.715  1.5829 -0.8092  1.5103
 4685TIP3   OH235545   2.288   1.614   2.497  0.0663 -0.1493  0.0814
 4685TIP3    H135546   2.358   1.549   2.508  0.0868 -0.3210 -0.9617
 4685TIP3    H235547   2.313   1.662   2.418 -0.7230  0.1555  0.0152
 4686TIP3   OH235548   2.976   3.644  11.218  0.3163 -0.0323 -0.3399
 4686TIP3    H135549   2.895   3.642  11.167 -0.7108 -0.0217  1.2308
 4686TIP3    H235550   3.002   3.552  11.225  2.4534  0.1132 -3.7723
 4687TIP3   OH235551   4.486   2.279   4.627 -0.3778 -0.2233 -0.2231
 4687TIP3    H135552   4.401   2.243   4.603 -0.5111 -0.5316  0.6635
 4687TIP3    H235553   4.530   2.208   4.673 -0.4404  0.5553  1.0984
 4688TIP3   OH235554   1.394   2.601   1.479 -0.0672  0.2854 -0.2908
 4688TIP3    H135555   1.299   2.593   1.486  0.1898 -2.0399  1.9682
 4688TIP3    H235556   1.416   2.674   1.536 -0.3901 -0.3586  0.6854
 4689TIP3   OH235557   4.367   4.923  12.188  0.3785 -0.0989  0.0930
 4689TIP3    H135558   4.435   4.859  12.211 -1.5856 -1.9336  1.1110
 4689TIP3    H235559   4.407   5.008  12.206  1.7793 -1.1842  2.4956
 4690TIP3   OH235560   5.883   3.017   5.671  0.1157 -0.3950  0.0327
 4690TIP3    H135561   5.896   2.923   5.677  1.0022 -0.2631  0.2590
 4690TIP3    H235562   5.958   3.048   5.619 -0.5183  0.1037 -0.6062
 4691TIP3   OH235563   6.132   2.339   6.092 -0.4581 -0.1238 -0.5597
 4691TIP3    H135564   6.167   2.254   6.119  1.1433  1.0303  1.3191
 4691TIP3    H235565   6.200   2.376   6.036 -0.6838  0.3312 -0.5378
 4692TIP3   OH235566   1.382   4.367   5.318  0.1334  0.8420  0.1119
 4692TIP3    H135567   1.330   4.317   5.255  0.6336  1.8313 -1.1349
 4692TIP3    H235568   1.420   4.301   5.376  1.9806 -0.4326 -2.3634
 4693TIP3   OH235569   2.233   0.311   4.990  0.4734 -0.6773  0.0607
 4693TIP3    H135570   2.147   0.333   5.026  0.5763 -0.5492  0.2278
 4693TIP3    H235571   2.231   0.216   4.981  0.6303 -0.7715  0.8909
 4694TIP3   OH235572   4.986   2.316   3.128 -0.0343 -0.2957 -0.2556
 4694TIP3    H135573   4.962   2.329   3.036 -2.7307 -0.5065  0.3327
 4694TIP3    H235574   5.079   2.335   3.131 -0.0958  0.8775 -2.8147
 4695TIP3   OH235575   3.360   0.596  15.054 -0.6511  0.0255 -0.0640
 4695TIP3    H135576   3.442   0.584  15.102  0.2906  2.6446 -0.8302
 4695TIP3    H235577   3.292   0.575  15.118  0.5794  1.5670  1.8942
 4696TIP3   OH235578   4.997   2.494  14.653  0.3684  0.0313 -0.4168
 4696TIP3    H135579   5.040   2.572  14.690  0.1315 -0.7281  1.5208
 4696TIP3    H235580   5.058   2.465  14.584 -0.1962  2.6855 -2.1995
 4697TIP3   OH235581   4.997   2.930  13.523 -0.0207 -0.1587 -0.3913
 4697TIP3    H135582   5.075   2.986  13.515  1.2855 -1.9289 -0.6051
 4697TIP3    H235583   5.031   2.841  13.523 -1.9580 -0.9692  0.8615
 4698TIP3   OH235584   2.613   3.901   1.918 -0.2152  0.0025  0.0284
 4698TIP3    H135585   2.675   3.946   1.861 -0.0429  0.1456  0.3214
 4698TIP3    H235586   2.663   3.827   1.955  0.1312  0.7541  1.1187
 4699TIP3   OH235587   3.936   3.857   5.186 -0.0242 -0.8680  0.2039
 4699TIP3    H135588   3.846   3.829   5.203 -0.1839  0.3495  1.5572
 4699TIP3    H235589   3.990   3.790   5.228 -0.3064 -1.4001 -0.2782
 4700TIP3   OH235590   2.453   5.464   4.855 -0.1165  0.0766  0.1629
 4700TIP3    H135591   2.434   5.521   4.780 -2.2259 -0.5011  0.1988
 4700TIP3    H235592   2.400   5.500   4.926  1.5482  0.3652  1.3057
 4701TIP3   OH235593   0.573   6.564  13.623 -0.3651  0.6021  0.4583
 4701TIP3    H135594   0.503   6.499  13.636 -0.4604  0.8326  1.1764
 4701TIP3    H235595   0.616   6.538  13.542 -1.0857  0.2663  0.1727
 4702TIP3   OH235596   0.248   0.266  11.581  0.2287  0.1677 -0.0909
 4702TIP3    H135597   0.312   0.306  11.640  0.3839  0.2966 -0.3488
 4702TIP3    H235598   0.299   0.232  11.508 -0.1101  1.4062 -0.9399
 4703TIP3   OH235599   3.503   6.538  12.741 -0.2621  0.0267  0.7362
 4703TIP3    H135600   3.428   6.566  12.689  0.0272  0.9235  0.7690
 4703TIP3    H235601   3.516   6.609  12.804 -0.5711 -1.0171  2.0096
 4704TIP3   OH235602   0.828   2.342   3.665 -0.1314  0.1431  0.6765
 4704TIP3    H135603   0.897   2.335   3.599 -0.3865 -2.7049  0.5608
 4704TIP3    H235604   0.750   2.367   3.616 -0.1687 -1.2879 -0.0560
 4705TIP3   OH235605   5.992   0.363   1.853 -0.0383 -0.4159 -0.0851
 4705TIP3    H135606   6.035   0.290   1.897 -0.0837 -0.6436 -0.4126
 4705TIP3    H235607   5.956   0.325   1.773 -0.6276 -0.1760  0.0559
 4706TIP3   OH235608   2.670   1.553   0.050 -0.5012 -0.6052 -0.1991
 4706TIP3    H135609   2.596   1.556  -0.010 -2.7640 -0.6738  2.4188
 4706TIP3    H235610   2.721   1.631   0.028 -2.3004  0.4296 -0.9194
 4707TIP3   OH235611   0.984   0.260  14.677 -0.2426  0.6804  0.5633
 4707TIP3    H135612   1.041   0.220  14.611 -2.0396  0.8398 -1.1947
 4707TIP3    H235613   1.043   0.291  14.745  1.5651 -1.1135 -0.0819
 4708TIP3   OH235614   3.186   0.604   2.398  0.2676 -0.0518 -0.4000
 4708TIP3    H135615   3.114   0.617   2.336 -0.9696  0.0686  1.0227
 4708TIP3    H235616   3.174   0.673   2.464  1.2450 -0.4988  0.2729
 4709TIP3   OH235617   4.269   1.023  16.701  0.0516  0.2965  0.2673
 4709TIP3    H135618   4.260   0.935  16.737 -0.2005  0.4209  0.5068
 4709TIP3    H235619   4.361   1.027  16.673 -0.4372 -0.7879 -1.6895
 4710TIP3   OH235620   0.897   4.986   2.045 -0.0232 -0.2999 -0.1111
 4710TIP3    H135621   0.973   4.930   2.060 -1.0326 -2.0701 -1.2135
 4710TIP3    H235622   0.883   5.030   2.129  0.5099 -2.1174  0.9999
 4711TIP3   OH235623   0.847   2.241   3.173  0.4103 -0.3608  0.0782
 4711TIP3    H135624   0.760   2.261   3.138  0.8830  0.1206 -0.8580
 4711TIP3    H235625   0.857   2.147   3.164  0.6630 -0.2016 -1.4455
 4712TIP3   OH235626   5.103   6.424  16.836  0.1614  0.0688 -0.3592
 4712TIP3    H135627   5.167   6.494  16.829 -0.9699  1.2119  0.3124
 4712TIP3    H235628   5.065   6.417  16.748  0.6715 -0.1121 -0.5699
 4713TIP3   OH235629   3.365   1.577  11.514  0.1147 -0.0288  0.1098
 4713TIP3    H135630   3.359   1.642  11.584  1.1101 -0.9353  1.0842
 4713TIP3    H235631   3.283   1.586  11.465 -1.4779 -0.5947  2.5148
 4714TIP3   OH235632   0.013   5.129  16.165 -0.4739  0.0205  0.2301
 4714TIP3    H135633   0.021   5.058  16.102 -0.1778  0.3178 -0.0672
 4714TIP3    H235634   0.032   5.208  16.115 -2.7539  0.5387  0.0784
 4715TIP3   OH235635   6.521   5.699  17.167  0.0462 -0.7464 -0.3586
 4715TIP3    H135636   6.561   5.687  17.253 -1.5051 -2.1010  0.2321
 4715TIP3    H235637   6.565   5.637  17.110 -0.4310 -1.4428  0.0175
 4716TIP3   OH235638   4.683   5.037  14.995 -0.0775  0.5099  0.0408
 4716TIP3    H135639   4.709   4.952  15.031 -0.5294  0.5478  0.4604
 4716TIP3    H235640   4.752   5.058  14.932  0.1752 -0.0443  0.1260
 4717TIP3   OH235641   6.745   6.591   3.515  0.0415  0.2679  0.2137
 4717TIP3    H135642   6.817   6.550   3.469  0.7016  0.6431  0.8929
 4717TIP3    H235643   6.705   6.649   3.450 -1.6842 -2.2635 -1.1518
 4718TIP3   OH235644   1.524   6.017   3.591 -0.0966 -0.1832  0.0819
 4718TIP3    H135645   1.447   5.961   3.600 -1.5952  1.7878  0.0703
 4718TIP3    H235646   1.511   6.063   3.508  1.8730 -0.8889 -0.6859
 4719TIP3   OH235647   5.136   3.163  17.268 -0.1457  0.8225  0.5085
 4719TIP3    H135648   5.130   3.257  17.252 -0.8131  0.7653  0.3930
 4719TIP3    H235649   5.224   3.150  17.304  0.1996  1.3939 -0.1028
 4720TIP3   OH235650   1.973   6.144   5.444 -0.4702  0.1580 -0.5202
 4720TIP3    H135651   1.937   6.102   5.366  0.3969 -0.9729 -0.3408
 4720TIP3    H235652   2.061   6.172   5.418 -1.1645  2.3291 -0.7674
 4721TIP3   OH235653   4.605   5.575   3.444 -0.7153  0.0993 -0.2351
 4721TIP3    H135654   4.528   5.577   3.388 -1.9135 -0.4449  1.3085
 4721TIP3    H235655   4.626   5.483   3.454 -0.8820  0.1487  0.6573
 4722TIP3   OH235656   1.547   3.695  12.153  0.5019  0.2324  0.5677
 4722TIP3    H135657   1.537   3.609  12.112 -2.0851  0.8899 -0.3903
 4722TIP3    H235658   1.590   3.749  12.087  2.8078 -0.4184  1.4354
 4723TIP3   OH235659   4.281   6.262   1.609  0.0043  0.3480 -0.2303
 4723TIP3    H135660   4.352   6.199   1.597 -1.5334 -1.0376 -2.9695
 4723TIP3    H235661   4.203   6.208   1.624 -0.7208  1.7865  1.5368
 4724TIP3   OH235662   0.885   1.355  11.277  0.5104  0.7160 -0.3880
 4724TIP3    H135663   0.838   1.438  11.285  0.4161  0.5308  1.3730
 4724TIP3    H235664   0.822   1.296  11.234  0.3593  1.3653 -1.0804
 4725TIP3   OH235665   3.260   3.708   5.573 -0.3002 -0.6618  0.1181
 4725TIP3    H135666   3.242   3.634   5.515 -0.2070 -1.3894  0.9912
 4725TIP3    H235667   3.197   3.697   5.645  1.3982 -1.4072  1.5705
 4726TIP3   OH235668   1.259   2.226   2.118  0.4468  0.1441 -0.2374
 4726TIP3    H135669   1.257   2.199   2.026  1.3294  0.1624 -0.2644
 4726TIP3    H235670   1.288   2.317   2.116 -0.8838  0.6089 -0.0213
 4727TIP3   OH235671   5.046   3.402   5.064  0.4515 -0.2491 -0.1857
 4727TIP3    H135672   4.966   3.445   5.095 -1.2433 -1.7181 -2.2126
 4727TIP3    H235673   5.101   3.473   5.032  0.6453  0.9218  2.5183
 4728TIP3   OH235674   1.287   0.567  11.841 -0.0768 -0.0950  0.4269
 4728TIP3    H135675   1.376   0.571  11.807  0.0110  1.4421  0.7706
 4728TIP3    H235676   1.234   0.544  11.765  0.1130  3.3580 -0.9564
 4729TIP3   OH235677   1.775   4.560   1.714 -0.4681  0.0495 -0.1220
 4729TIP3    H135678   1.726   4.515   1.782 -0.8243  0.8296  0.1519
 4729TIP3    H235679   1.836   4.617   1.761 -0.4547  0.3132 -0.4509
 4730TIP3   OH235680   0.304   1.069   0.952  0.4928  0.1905  1.0708
 4730TIP3    H135681   0.212   1.052   0.972  0.2707  1.9091  1.6505
 4730TIP3    H235682   0.331   0.994   0.899 -2.3871  1.5189 -2.6942
 4731TIP3   OH235683   4.179   2.915   4.935 -0.6638 -0.3141  0.3120
 4731TIP3    H135684   4.264   2.944   4.968  0.3986 -0.3169 -2.2379
 4731TIP3    H235685   4.128   2.995   4.926 -0.0855 -0.0194 -0.3910
 4732TIP3   OH235686   4.763   3.964  11.630 -0.3254  0.0426 -0.7805
 4732TIP3    H135687   4.857   3.956  11.614 -0.1420  0.4801  0.0437
 4732TIP3    H235688   4.755   3.984  11.723 -1.1979  0.6672 -0.9714
 4733TIP3   OH235689   5.779   3.282  11.589 -0.2690  0.4113 -0.6849
 4733TIP3    H135690   5.743   3.328  11.513 -0.7756 -0.2460 -0.8449
 4733TIP3    H235691   5.824   3.206  11.553 -2.6661 -1.3590 -0.2389
 4734TIP3   OH235692   1.640   5.451   1.579 -0.1566  0.5975 -0.4794
 4734TIP3    H135693   1.658   5.514   1.648  1.6127  0.3122 -0.6289
 4734TIP3    H235694   1.690   5.483   1.504  1.0025 -1.0846 -0.4762
 4735TIP3   OH235695   2.635   0.183   3.144  0.5365 -0.2654 -0.2821
 4735TIP3    H135696   2.554   0.204   3.190  1.1596 -0.0221  0.7329
 4735TIP3    H235697   2.700   0.174   3.213  1.7295  1.0760 -1.1749
 4736TIP3   OH235698   4.798   1.483   5.770  0.0105 -0.3952  0.1405
 4736TIP3    H135699   4.817   1.541   5.696  1.1142  1.1523  1.5718
 4736TIP3    H235700   4.881   1.439   5.787  0.1126  0.2123  1.2503
 4737TIP3   OH235701   0.582   0.530   3.743  0.0541  0.2249  0.6971
 4737TIP3    H135702   0.600   0.624   3.732  0.8201  0.2564  1.9665
 4737TIP3    H235703   0.645   0.487   3.685  0.7888  0.4713  1.2929
 4738TIP3   OH235704   1.446   6.578   3.296  0.2352  0.0229 -0.0822
 4738TIP3    H135705   1.380   6.561   3.362  0.1078  0.3338 -0.1287
 4738TIP3    H235706   1.421   6.662   3.258  1.2583  0.6673  0.6326
 4739TIP3   OH235707   2.763   5.008   3.264 -0.3567  0.9528 -0.1157
 4739TIP3    H135708   2.796   5.045   3.346 -0.4143  3.3385 -1.0941
 4739TIP3    H235709   2.801   5.063   3.196 -1.9061  0.3050 -1.5816
 4740TIP3   OH235710   5.099   2.564  11.439  0.5783  0.1678 -0.0576
 4740TIP3    H135711   5.045   2.487  11.426 -0.7841  1.0820  0.0238
 4740TIP3    H235712   5.103   2.606  11.353  0.9315  0.2601 -0.0004
 4741TIP3   OH235713   4.550   3.423  14.360 -0.0641  0.2823 -0.4472
 4741TIP3    H135714   4.611   3.430  14.434 -0.3866  0.5325 -0.2044
 4741TIP3    H235715   4.499   3.344  14.378  1.6415 -1.2103 -1.7452
 4742TIP3   OH235716   4.491   5.737  16.926 -0.3594  0.2438  0.3098
 4742TIP3    H135717   4.467   5.829  16.911 -0.2927 -0.0104 -1.5964
 4742TIP3    H235718   4.545   5.740  17.005 -0.7250  1.7884  0.5461
 4743TIP3   OH235719   6.664   5.638  12.225 -0.4200 -0.1903 -0.2404
 4743TIP3    H135720   6.745   5.629  12.275  0.8014  1.6722 -1.7187
 4743TIP3    H235721   6.602   5.580  12.269  0.9134  0.3384  2.5793
 4744TIP3   OH235722   2.273   3.953   5.812 -0.3647 -0.6443 -0.1181
 4744TIP3    H135723   2.271   3.938   5.906  0.3860  0.3834  0.0663
 4744TIP3    H235724   2.182   3.970   5.789 -0.6153 -1.3164  0.3422
 4745TIP3   OH235725   6.567   1.268  15.268  0.2741  0.3280 -0.0705
 4745TIP3    H135726   6.563   1.196  15.331 -1.2038 -0.8588 -1.4318
 4745TIP3    H235727   6.631   1.328  15.305  4.0751 -3.1238 -0.3760
 4746TIP3   OH235728   0.759   1.178  14.900 -0.2445  0.0974  0.2815
 4746TIP3    H135729   0.681   1.224  14.930 -1.5111 -2.2222  0.8058
 4746TIP3    H235730   0.757   1.186  14.805 -1.1077  0.0977  0.2969
 4747TIP3   OH235731   5.064   6.397   4.437 -0.6139  0.2016 -0.1583
 4747TIP3    H135732   5.011   6.474   4.418  0.7479  0.7914 -1.9601
 4747TIP3    H235733   5.153   6.424   4.415  0.6667 -0.4390  3.6070
 4748TIP3   OH235734   1.527   4.062   3.016  0.2129 -0.0165 -0.1923
 4748TIP3    H135735   1.593   4.003   3.054  1.3744  1.6765  0.5196
 4748TIP3    H235736   1.576   4.117   2.956 -0.7823  0.5046 -0.5469
 4749TIP3   OH235737   3.251   4.125  14.639 -0.0385  0.5244  0.5619
 4749TIP3    H135738   3.167   4.088  14.668 -0.5287  0.6580 -0.5798
 4749TIP3    H235739   3.257   4.099  14.547  1.4437  0.0758  0.7653
 4750TIP3   OH235740   3.478   5.510   2.085 -1.4076 -0.1784 -0.8020
 4750TIP3    H135741   3.423   5.586   2.065 -2.1146 -0.6047 -0.5129
 4750TIP3    H235742   3.564   5.547   2.104 -1.1299  0.3844 -2.9072
 4751TIP3   OH235743   3.727   0.360   2.148 -0.0379  0.1777  0.0696
 4751TIP3    H135744   3.718   0.328   2.058 -1.2176  0.5948  0.0246
 4751TIP3    H235745   3.676   0.441   2.150  1.8283  1.4007  0.5306
 4752TIP3   OH235746   4.850   0.864   3.285  0.1882  0.3976 -0.1051
 4752TIP3    H135747   4.798   0.944   3.293 -2.4649 -1.2614  0.8889
 4752TIP3    H235748   4.839   0.838   3.193  0.9890  1.1074 -0.4100
 4753TIP3   OH235749   3.064   1.974  12.070 -0.1662  0.3086 -0.8164
 4753TIP3    H135750   3.040   1.923  12.147 -0.0646 -0.3564 -1.2197
 4753TIP3    H235751   3.113   2.048  12.105 -0.1346  0.0240 -0.2429
 4754TIP3   OH235752   0.029   2.529  15.340  0.3798 -0.4621 -0.0746
 4754TIP3    H135753   0.003   2.510  15.250  0.4071  1.9467 -0.6706
 4754TIP3    H235754   0.104   2.473  15.356 -0.8980 -2.4661 -0.7795
 4755TIP3   OH235755   2.813   1.936   3.838 -0.1888  0.1490  0.7730
 4755TIP3    H135756   2.824   1.842   3.821 -1.3199 -0.1731  1.7126
 4755TIP3    H235757   2.811   1.976   3.751  0.7288 -0.6364  0.3723
 4756TIP3   OH235758   1.260   0.240  11.669  0.2032  0.4702  0.0163
 4756TIP3    H135759   1.288   0.259  11.758  0.5475 -1.1406  0.2882
 4756TIP3    H235760   1.264   0.144  11.663 -0.5007  0.5115 -1.5026
 4757TIP3   OH235761   2.575   1.905   6.598 -0.4991  0.1762 -0.3902
 4757TIP3    H135762   2.650   1.963   6.608  0.0170 -0.3048 -1.3814
 4757TIP3    H235763   2.507   1.944   6.654 -0.2352  1.8303 -1.1740
 4758TIP3   OH235764   4.750   0.878  12.099 -0.0107  0.1853 -0.1269
 4758TIP3    H135765   4.743   0.840  12.012  0.4897  0.3844 -0.2562
 4758TIP3    H235766   4.801   0.814  12.149  0.9848  0.7527 -0.3910
 4759TIP3   OH235767   5.299   4.609  15.058 -0.0599  0.0660 -0.1560
 4759TIP3    H135768   5.225   4.573  15.108 -1.0281  0.3842 -1.3009
 4759TIP3    H235769   5.290   4.704  15.069  0.9663  0.0649  0.7658
 4760TIP3   OH235770   5.778   5.435  14.087  0.4039  0.0862  0.1832
 4760TIP3    H135771   5.719   5.448  14.162  0.7586 -0.9394  0.6525
 4760TIP3    H235772   5.842   5.370  14.118  0.6473 -0.2331 -0.9666
 4761TIP3   OH235773   1.572   0.535  12.957 -0.2096  0.3512  0.1061
 4761TIP3    H135774   1.568   0.504  12.867 -0.5065  1.9298 -0.4532
 4761TIP3    H235775   1.627   0.613  12.953  2.0485 -1.0452  1.7644
 4762TIP3   OH235776   2.354   6.732  11.242  0.1451 -0.4683  0.9752
 4762TIP3    H135777   2.292   6.694  11.179  1.2581 -0.5695 -0.0969
 4762TIP3    H235778   2.326   6.823  11.252  0.1128 -0.3705  0.0967
 4763TIP3   OH235779   3.520   1.208   3.697  0.0007  0.5378 -0.8374
 4763TIP3    H135780   3.486   1.283   3.747 -0.2373  0.9732 -1.6350
 4763TIP3    H235781   3.604   1.238   3.663  0.3195  0.1227 -0.4218
 4764TIP3   OH235782   1.585   3.683  14.911  0.1743 -0.3090 -0.3846
 4764TIP3    H135783   1.589   3.777  14.932  1.0030 -0.1048 -1.3287
 4764TIP3    H235784   1.503   3.653  14.948  1.0258  0.2307  2.1263
 4765TIP3   OH235785   1.720   3.820   2.408  0.4638  0.5034  0.1847
 4765TIP3    H135786   1.779   3.767   2.354  1.1710  0.9079  0.5486
 4765TIP3    H235787   1.686   3.758   2.473 -0.6406 -0.0606 -0.8878
 4766TIP3   OH235788   5.698   3.601   3.575  0.3693  0.3834  0.2106
 4766TIP3    H135789   5.758   3.587   3.648 -1.5281 -0.7341  1.6533
 4766TIP3    H235790   5.728   3.540   3.507  0.5836 -0.5418  1.1117
 4767TIP3   OH235791   2.971   2.791   2.641  0.3782 -0.1512 -0.8335
 4767TIP3    H135792   2.977   2.818   2.733 -0.0613  1.1802 -1.1739
 4767TIP3    H235793   2.880   2.767   2.629  0.3665 -0.0159 -1.0087
 4768TIP3   OH235794   4.131   4.712   3.035 -0.1188 -0.2114  0.6200
 4768TIP3    H135795   4.205   4.766   3.006 -0.9081  0.7249  0.3278
 4768TIP3    H235796   4.129   4.724   3.130 -0.5993  0.6857  0.5043
 4769TIP3   OH235797   3.278   5.203  12.692  0.3774  0.1773  0.2158
 4769TIP3    H135798   3.319   5.278  12.648 -0.5785  0.3725 -0.3540
 4769TIP3    H235799   3.270   5.136  12.624 -1.1601  0.4995  0.0441
 4770TIP3   OH235800   3.837   1.133   5.417 -1.0797  0.1335  0.5467
 4770TIP3    H135801   3.864   1.138   5.325 -1.8101 -1.4310  0.1992
 4770TIP3    H235802   3.883   1.056   5.451 -0.2724  1.1025  1.7080
 4771TIP3   OH235803   1.527   4.133  17.098  0.1099  0.4355  0.6708
 4771TIP3    H135804   1.488   4.173  17.021  1.9172  1.1703  0.0996
 4771TIP3    H235805   1.537   4.205  17.160 -0.0748  0.1156  1.0762
 4772TIP3   OH235806   0.801   4.257   6.502  0.5953  0.0219  0.4741
 4772TIP3    H135807   0.790   4.333   6.558  0.5485 -1.1352  2.1121
 4772TIP3    H235808   0.893   4.261   6.473  0.1363  1.5938 -0.8996
 4773TIP3   OH235809   0.863   2.342   2.737  0.2973  0.8681 -0.1829
 4773TIP3    H135810   0.930   2.290   2.780  0.4827  2.1669  1.2057
 4773TIP3    H235811   0.887   2.433   2.756 -1.2587  1.3926 -0.5477
 4774TIP3   OH235812   3.347   3.960  11.588  0.2725  0.6257 -0.0240
 4774TIP3    H135813   3.253   3.976  11.596  0.0725 -0.0146 -0.9437
 4774TIP3    H235814   3.356   3.904  11.511  1.4105  0.6618  0.0559
 4775TIP3   OH235815   3.801   3.941   1.340 -0.3044 -0.5245 -0.3414
 4775TIP3    H135816   3.817   3.906   1.427  0.2492  0.8818  0.1542
 4775TIP3    H235817   3.705   3.944   1.331 -0.3607 -0.6497  0.2340
 4776TIP3   OH235818   0.982   5.579   2.941 -0.0706 -0.1375 -0.9271
 4776TIP3    H135819   1.074   5.602   2.927 -0.1460 -1.2370 -3.9514
 4776TIP3    H235820   0.973   5.569   3.036  1.8893  3.9767 -0.0941
 4777TIP3   OH235821   6.806   6.760  12.674 -0.3162 -0.1805 -0.0349
 4777TIP3    H135822   6.770   6.765  12.586  0.8351 -0.6472 -0.5560
 4777TIP3    H235823   6.794   6.669  12.700 -0.7239 -0.0265  0.3255
 4778TIP3   OH235824   3.761   0.221  17.277 -0.2366  0.0617  0.1791
 4778TIP3    H135825   3.702   0.253  17.209 -1.0511  0.3063  0.9765
 4778TIP3    H235826   3.752   0.126  17.275  1.5340 -0.1316 -1.6142
 4779TIP3   OH235827   0.877   6.674   3.135  0.1387  0.0283 -0.7755
 4779TIP3    H135828   0.813   6.642   3.199  1.3346 -1.8726 -0.4411
 4779TIP3    H235829   0.938   6.727   3.186  2.8721 -3.9081  0.5161
 4780TIP3   OH235830   1.336   4.091   1.443  0.9842 -0.8922  0.0293
 4780TIP3    H135831   1.329   4.026   1.373  1.6260  0.3835 -1.2769
 4780TIP3    H235832   1.298   4.048   1.519 -0.2650 -2.1385 -1.2255
 4781TIP3   OH235833   3.458   1.041  12.399  0.1515  0.0537  0.5229
 4781TIP3    H135834   3.387   1.103  12.380 -0.0101  0.0312  1.0514
 4781TIP3    H235835   3.535   1.078  12.356 -0.6777 -1.1475 -2.2220
 4782TIP3   OH235836   0.190   2.040   2.867  0.5216 -0.2929  0.3849
 4782TIP3    H135837   0.184   2.013   2.775  0.2769 -2.6898  1.0532
 4782TIP3    H235838   0.281   2.066   2.878  0.0978  2.1034 -1.0074
 4783TIP3   OH235839   3.445   6.314   4.496 -0.0225  0.7757  0.0712
 4783TIP3    H135840   3.500   6.388   4.522 -1.3034  1.3992  1.0518
 4783TIP3    H235841   3.427   6.330   4.403 -0.4869  1.8306  0.3303
 4784TIP3   OH235842   5.841   0.737   0.472  0.4045  0.4270 -0.5449
 4784TIP3    H135843   5.755   0.760   0.437  0.6940  2.1854 -0.2191
 4784TIP3    H235844   5.886   0.693   0.399 -1.5132 -2.7139 -0.0111
 4785TIP3   OH235845   6.611   2.874  14.568 -0.2147  0.6105 -0.2126
 4785TIP3    H135846   6.560   2.944  14.608  1.1582  0.8361  1.2429
 4785TIP3    H235847   6.660   2.835  14.641  3.2986  1.7679 -1.7041
 4786TIP3   OH235848   3.755   6.297   3.711  0.0898 -0.0217  0.6342
 4786TIP3    H135849   3.673   6.310   3.759  0.1451 -0.0208  0.7283
 4786TIP3    H235850   3.795   6.220   3.753 -0.2189 -0.4765  0.1056
 4787TIP3   OH235851   6.231   5.123  13.596 -0.1106  1.1067 -0.4546
 4787TIP3    H135852   6.299   5.118  13.662  0.4978 -1.5277 -1.1800
 4787TIP3    H235853   6.152   5.150  13.643  0.4921  0.0773  1.1987
 4788TIP3   OH235854   3.642   1.515   3.689 -0.5967 -0.4085  0.4453
 4788TIP3    H135855   3.706   1.450   3.718  0.1624 -0.4493 -1.1900
 4788TIP3    H235856   3.589   1.534   3.767  1.2062 -0.5884  1.7666
 4789TIP3   OH235857   5.477   4.725  14.478  0.2946  0.0888  0.4061
 4789TIP3    H135858   5.533   4.689  14.409  2.1318  0.7037  1.5176
 4789TIP3    H235859   5.488   4.666  14.552 -1.2601 -0.2786  0.3894
 4790TIP3   OH235860   6.575   5.421  10.842 -0.1443 -0.3052  0.4349
 4790TIP3    H135861   6.500   5.478  10.825 -1.6583 -1.9027  1.4083
 4790TIP3    H235862   6.560   5.386  10.930  2.3422  0.1524  1.1308
 4791TIP3   OH235863   0.645   5.755   2.634 -0.1672  0.4801 -1.2994
 4791TIP3    H135864   0.710   5.708   2.687 -2.1907  1.0706  1.9416
 4791TIP3    H235865   0.694   5.828   2.597  1.2067  0.6224  0.6271
 4792TIP3   OH235866   2.925   2.336  16.407 -0.2494  0.5506 -0.0519
 4792TIP3    H135867   3.018   2.322  16.389 -0.0455  1.0186  0.6150
 4792TIP3    H235868   2.900   2.263  16.462  0.4244  1.8603  2.0975
 4793TIP3   OH235869   0.527   5.875  13.684 -0.3344  0.0386 -0.3121
 4793TIP3    H135870   0.458   5.886  13.749 -0.6948 -1.2594 -0.4501
 4793TIP3    H235871   0.481   5.853  13.603  0.2304 -0.6521 -0.4534
 4794TIP3   OH235872   2.841   2.083  12.511 -0.4467 -0.1690 -0.5766
 4794TIP3    H135873   2.801   2.107  12.594  0.6356 -0.5353  0.0701
 4794TIP3    H235874   2.924   2.131  12.510  0.0145 -0.9529 -0.9841
 4795TIP3   OH235875   3.603   6.529   3.328  0.4024 -0.5587 -0.1676
 4795TIP3    H135876   3.574   6.463   3.265  0.2154 -1.5497  0.9286
 4795TIP3    H235877   3.688   6.498   3.358 -0.3813 -1.1692  1.5262
 4796TIP3   OH235878   3.961   3.813  14.115 -0.3377  0.0953  0.5988
 4796TIP3    H135879   4.050   3.803  14.148 -0.4916  0.7137  1.2450
 4796TIP3    H235880   3.907   3.812  14.194 -0.9012 -0.1962  0.2171
 4797TIP3   OH235881   2.150   5.744  15.120  0.3528 -0.4777  0.1274
 4797TIP3    H135882   2.087   5.806  15.157 -0.7325 -0.5041 -1.5845
 4797TIP3    H235883   2.215   5.800  15.077  0.2499 -0.4839 -0.0384
 4798TIP3   OH235884   3.082   5.055   2.504  0.7808  0.0488  0.1294
 4798TIP3    H135885   3.124   5.140   2.489  0.1382  0.5566  1.0603
 4798TIP3    H235886   3.143   5.009   2.562  0.7915  0.1629  0.2108
 4799TIP3   OH235887   0.296   4.935  12.833  0.3806 -0.0174 -0.2247
 4799TIP3    H135888   0.236   5.000  12.870  1.0403 -0.6874  2.1918
 4799TIP3    H235889   0.370   4.986  12.801 -0.0111  0.5628 -0.2225
 4800TIP3   OH235890   1.588   3.961  15.011  0.0705  0.0682 -0.0151
 4800TIP3    H135891   1.533   4.011  14.952  1.1113 -0.0807 -1.1407
 4800TIP3    H235892   1.542   3.964  15.095 -1.7881 -0.2808 -0.9674
 4801TIP3   OH235893   1.584   5.636  10.611 -0.0435 -0.3166  0.2433
 4801TIP3    H135894   1.644   5.639  10.537  0.5954  1.2093  0.7960
 4801TIP3    H235895   1.620   5.698  10.675 -0.4095 -1.7813  1.9805
 4802TIP3   OH235896   3.087   3.038   4.804  0.2150  0.6034 -0.5465
 4802TIP3    H135897   3.061   3.062   4.715 -0.9360 -0.1456 -0.4242
 4802TIP3    H235898   3.145   2.963   4.792 -0.8886 -0.2526 -0.6158
 4803TIP3   OH235899   5.943   5.635   4.371 -0.4023  0.7901 -0.1827
 4803TIP3    H135900   5.869   5.696   4.380 -2.4516 -1.5876  0.2452
 4803TIP3    H235901   5.933   5.576   4.446  4.0542  2.3452  1.9537
 4804TIP3   OH235902   3.237   6.416  15.533  0.3458 -0.2040  0.5696
 4804TIP3    H135903   3.190   6.343  15.572 -2.3414  1.1862  0.1937
 4804TIP3    H235904   3.281   6.379  15.456 -3.2949 -1.0391 -1.3337
 4805TIP3   OH235905   2.305   3.937   0.620 -0.2596  0.0010  0.2937
 4805TIP3    H135906   2.373   3.913   0.557 -0.3915  0.7655 -0.1528
 4805TIP3    H235907   2.344   4.004   0.674 -0.2420 -0.4594  0.8603
 4806TIP3   OH235908   3.941   1.476  16.016 -0.0623  0.5490 -0.0665
 4806TIP3    H135909   4.017   1.418  16.016 -0.8730 -0.5498 -0.4021
 4806TIP3    H235910   3.911   1.476  16.107 -0.9473 -0.8085 -0.3232
 4807TIP3   OH235911   3.892   1.784  15.711 -0.9227  0.8461 -0.2050
 4807TIP3    H135912   3.933   1.771  15.625 -0.6213 -0.7225  0.1469
 4807TIP3    H235913   3.948   1.848  15.755  0.4632 -0.2990 -0.2167
 4808TIP3   OH235914   6.551   2.442  15.637 -0.1453  0.3481  0.2391
 4808TIP3    H135915   6.616   2.421  15.704  1.1810 -1.4827 -1.5054
 4808TIP3    H235916   6.591   2.413  15.554 -2.6643  0.3018 -1.0660
 4809TIP3   OH235917   1.056   4.999  16.563  0.1191 -0.2485  0.0955
 4809TIP3    H135918   1.007   4.924  16.527 -1.5181  1.4654 -1.4659
 4809TIP3    H235919   1.136   5.002  16.511  0.8314 -1.6214  1.0314
 4810TIP3   OH235920   5.058   3.446  17.238 -0.2054 -0.0148  1.0551
 4810TIP3    H135921   5.089   3.490  17.159 -1.2475  0.3936  0.8620
 4810TIP3    H235922   5.111   3.484  17.309  0.7995 -0.4560  0.5673
 4811TIP3   OH235923   5.073   5.734   4.031 -0.6188  0.3813  0.2048
 4811TIP3    H135924   5.004   5.677   4.064 -0.3076  0.0466  0.2920
 4811TIP3    H235925   5.048   5.821   4.059 -1.8336  0.4960 -1.1297
 4812TIP3   OH235926   2.419   2.218  11.965 -0.0771 -0.3751  0.2598
 4812TIP3    H135927   2.385   2.297  12.007  0.2676  0.1828 -0.4887
 4812TIP3    H235928   2.401   2.230  11.872 -0.3644 -1.3624  0.1813
 4813TIP3   OH235929   1.813   3.493  14.134  0.2985  0.1319  0.4751
 4813TIP3    H135930   1.801   3.577  14.178  1.1508  0.4627  0.1076
 4813TIP3    H235931   1.772   3.429  14.192  1.2476  0.5689  1.6774
 4814TIP3   OH235932   4.910   3.616  16.402 -0.0555  0.0744  0.0568
 4814TIP3    H135933   4.977   3.586  16.341  1.4428  0.4696  1.4301
 4814TIP3    H235934   4.904   3.710  16.387 -1.4511 -0.1566 -1.0970
 4815TIP3   OH235935   3.154   0.758  11.416  0.2256  0.3740 -0.1118
 4815TIP3    H135936   3.128   0.724  11.330  4.9022 -1.6553 -1.0858
 4815TIP3    H235937   3.173   0.851  11.400  0.9337  0.0506 -1.3142
 4816TIP3   OH235938   4.734   3.799   2.123  0.0307  0.6665 -0.0945
 4816TIP3    H135939   4.794   3.729   2.100  1.2899  1.9392 -0.8272
 4816TIP3    H235940   4.665   3.795   2.057  1.0290  1.2009 -1.1949
 4817TIP3   OH235941   2.461   5.844   2.864  0.1328 -0.0847  0.4478
 4817TIP3    H135942   2.457   5.921   2.921 -1.5530  0.9046 -0.9148
 4817TIP3    H235943   2.516   5.782   2.912 -1.8315  0.3623  3.5566
 4818TIP3   OH235944   6.312   5.654   1.826  0.0997 -0.6560 -0.8326
 4818TIP3    H135945   6.222   5.626   1.840  0.1625 -0.4946 -0.0523
 4818TIP3    H235946   6.346   5.671   1.914 -0.0423  2.2153 -1.2557
 4819TIP3   OH235947   2.327   2.607   1.098 -0.3651 -0.5170 -0.7935
 4819TIP3    H135948   2.402   2.621   1.040 -1.2247  1.5188 -1.5130
 4819TIP3    H235949   2.252   2.639   1.048 -1.1837  1.0981  1.3002
 4820TIP3   OH235950   6.119   4.649   5.002  0.0933  0.0110  0.1883
 4820TIP3    H135951   6.163   4.628   4.920 -1.4029  0.0632 -0.6510
 4820TIP3    H235952   6.190   4.662   5.065  1.4006  2.4726 -1.6501
 4821TIP3   OH235953   6.263   1.743  16.730 -0.2770  0.0729 -0.4895
 4821TIP3    H135954   6.357   1.756  16.739 -0.3196  0.7873 -0.9331
 4821TIP3    H235955   6.232   1.729  16.819  0.0960  1.0122 -0.1991
 4822TIP3   OH235956   5.615   0.088  13.396  0.6045  0.1925 -0.0885
 4822TIP3    H135957   5.586   0.155  13.334  0.1506  0.4537  0.3981
 4822TIP3    H235958   5.600   0.127  13.482 -1.4217 -1.2246  0.2792
 4823TIP3   OH235959   2.590   2.130  11.597  0.0394 -0.3379  0.0977
 4823TIP3    H135960   2.575   2.223  11.610  0.3638 -0.2596 -0.0912
 4823TIP3    H235961   2.637   2.102  11.676 -0.9511 -0.5588  0.6353
 4824TIP3   OH235962   3.524   2.792   3.219  0.7401 -0.2717 -0.7000
 4824TIP3    H135963   3.526   2.829   3.307  0.5783  0.4273 -0.9869
 4824TIP3    H235964   3.523   2.697   3.233  1.6965 -0.1887  0.0318
 4825TIP3   OH235965   6.111   1.647   3.550  0.1815 -0.3979  0.1255
 4825TIP3    H135966   6.100   1.557   3.583  1.1980 -0.6702 -0.2620
 4825TIP3    H235967   6.194   1.676   3.586  0.9811 -0.4454 -1.5913
 4826TIP3   OH235968   1.612   5.799   4.147  0.1893  0.2221 -0.3661
 4826TIP3    H135969   1.671   5.835   4.213 -0.2147  1.5092 -0.6875
 4826TIP3    H235970   1.645   5.710   4.133  1.1052  0.3836  0.5780
 4827TIP3   OH235971   0.537   6.183   2.389 -0.5985 -0.1069  0.2859
 4827TIP3    H135972   0.448   6.217   2.404 -0.9077 -0.4022 -0.7961
 4827TIP3    H235973   0.569   6.231   2.313  0.8720  1.2449  1.6751
 4828TIP3   OH235974   4.232   6.547   2.527 -0.1058 -0.6772 -0.0318
 4828TIP3    H135975   4.320   6.521   2.554  0.1527 -0.7768 -0.9533
 4828TIP3    H235976   4.197   6.593   2.603  1.1626  0.3651 -0.0446
 4829TIP3   OH235977   4.372   1.919   4.692  0.2577  0.2285 -0.4428
 4829TIP3    H135978   4.451   1.959   4.727 -0.3034  1.0267 -0.0539
 4829TIP3    H235979   4.338   1.983   4.629 -1.2285  0.8848  0.9692
 4830TIP3   OH235980   1.712   5.532  15.861 -0.3598 -0.7182 -0.0591
 4830TIP3    H135981   1.693   5.532  15.955  2.2617  0.0944  0.5638
 4830TIP3    H235982   1.694   5.622  15.833  0.1636 -0.5917 -0.0038
 4831TIP3   OH235983   6.438   1.431  10.633 -0.2506  0.1539 -0.2756
 4831TIP3    H135984   6.474   1.452  10.720 -1.5817  0.8901  0.1237
 4831TIP3    H235985   6.411   1.516  10.597 -0.1803 -0.2050 -1.2085
 4832TIP3   OH235986   0.869   4.691   4.665  0.3573 -0.3241 -0.3311
 4832TIP3    H135987   0.962   4.708   4.679  0.3451 -0.5991  0.0871
 4832TIP3    H235988   0.831   4.693   4.753  0.3047 -2.2723 -0.2778
 4833TIP3   OH235989   5.847   3.048   2.325  0.1605  0.3950  0.5089
 4833TIP3    H135990   5.760   3.064   2.363 -0.4003 -1.4495  0.1035
 4833TIP3    H235991   5.898   3.125   2.349 -1.0037  0.6219  2.5183
 4834TIP3   OH235992   3.988   5.411  11.267 -0.6079 -0.3213 -0.8883
 4834TIP3    H135993   4.059   5.351  11.244  0.9928  1.5038 -0.9898
 4834TIP3    H235994   4.000   5.485  11.207 -1.1501  1.0590  0.6305
 4835TIP3   OH235995   3.837   5.610  12.612  0.9152 -0.0644 -0.2250
 4835TIP3    H135996   3.768   5.585  12.551  0.5957  0.8472 -0.2556
 4835TIP3    H235997   3.911   5.633  12.556  1.3367 -1.2547 -0.1857
 4836TIP3   OH235998   0.012   4.621  13.663  0.0408  0.1376  0.2150
 4836TIP3    H135999   0.003   4.701  13.611 -0.4887  0.7230  1.1746
 4836TIP3    H236000   0.084   4.573  13.622  0.8526  1.4498  0.0488
 4837TIP3   OH236001   4.717   0.715  15.538  0.3598  0.4989 -0.0353
 4837TIP3    H136002   4.682   0.772  15.606  2.0265  1.1736  0.2882
 4837TIP3    H236003   4.686   0.754  15.456  0.5375  1.2163  0.2341
 4838TIP3   OH236004   3.939   4.640   3.795  0.5704 -0.2051 -0.0640
 4838TIP3    H136005   3.976   4.711   3.848  1.2568  0.3375 -1.2245
 4838TIP3    H236006   3.990   4.563   3.820 -0.8325 -0.5778  1.9382
 4839TIP3   OH236007   2.920   1.581   1.331 -1.0977  0.1234  0.2594
 4839TIP3    H136008   2.988   1.514   1.341 -0.5637  0.3563 -1.3891
 4839TIP3    H236009   2.906   1.615   1.419  0.3753 -0.4654  0.7601
 4840TIP3   OH236010   4.667   3.566  17.016  0.1658 -0.1148 -0.3462
 4840TIP3    H136011   4.740   3.554  16.955  0.1462  1.0846 -0.6348
 4840TIP3    H236012   4.707   3.581  17.101  0.2733  0.7503 -0.5421
 4841TIP3   OH236013   3.090   5.939   0.744  0.5427 -0.0673  0.1906
 4841TIP3    H136014   3.021   5.873   0.747  1.6839 -1.3097 -0.0312
 4841TIP3    H236015   3.138   5.921   0.662  2.6047 -0.8194  1.4717
 4842TIP3   OH236016   4.381   2.654  13.582 -0.4752  0.4082 -0.2948
 4842TIP3    H136017   4.442   2.698  13.640 -1.8304  0.0132  1.5136
 4842TIP3    H236018   4.388   2.561  13.605 -0.8999  0.2167 -0.8996
 4843TIP3   OH236019   5.363   5.764   6.226  0.0163  0.0005 -0.4483
 4843TIP3    H136020   5.441   5.773   6.281  0.3650  0.4195 -1.0034
 4843TIP3    H236021   5.294   5.808   6.274  1.3858  5.2634 -2.5829
 4844TIP3   OH236022   5.439   2.910   3.186 -0.0042 -0.2302  0.1688
 4844TIP3    H136023   5.419   3.001   3.162 -1.5687 -0.8388 -0.9948
 4844TIP3    H236024   5.414   2.904   3.279  0.3111  0.5708  0.3143
 4845TIP3   OH236025   4.521   6.250   3.585  0.2810  0.3321 -0.2245
 4845TIP3    H136026   4.602   6.200   3.585  1.2913  1.8751 -1.2543
 4845TIP3    H236027   4.506   6.273   3.677  0.3813 -0.9194  0.1106
 4846TIP3   OH236028   5.541   4.391   4.909 -0.1588  0.0885  0.0464
 4846TIP3    H136029   5.457   4.423   4.942 -0.6378 -0.9418 -0.1333
 4846TIP3    H236030   5.546   4.300   4.938  0.2599 -0.2782 -1.1145
 4847TIP3   OH236031   1.794   1.715   5.127 -0.1116  0.2578 -0.2096
 4847TIP3    H136032   1.754   1.800   5.147 -1.2389 -0.4784  0.8128
 4847TIP3    H236033   1.876   1.716   5.176 -0.0214  0.8215 -0.3554
 4848TIP3   OH236034   2.783   4.676   3.409 -0.8446  0.0811 -0.5941
 4848TIP3    H136035   2.835   4.666   3.489 -0.7073  0.0583 -0.6835
 4848TIP3    H236036   2.837   4.731   3.353 -1.3448  0.8464 -0.3303
 4849TIP3   OH236037   2.800   2.875  12.803 -0.3192  0.1542 -0.3094
 4849TIP3    H136038   2.893   2.853  12.797 -0.3606  0.1096 -0.8437
 4849TIP3    H236039   2.789   2.907  12.892  0.7518  2.7158 -1.0111
 4850TIP3   OH236040   1.297   6.116   4.996  0.0456 -0.1744  0.4854
 4850TIP3    H136041   1.321   6.096   5.086  0.8477  0.2178  0.3719
 4850TIP3    H236042   1.350   6.056   4.943  1.4568  1.2733  0.1975
 4851TIP3   OH236043   3.488   5.264   2.292  0.3377 -0.1427 -0.2121
 4851TIP3    H136044   3.487   5.285   2.198  0.2441  3.1848  0.4059
 4851TIP3    H236045   3.579   5.280   2.318  0.9134 -3.1050  0.0002
 4852TIP3   OH236046   6.751   5.420  16.507  0.0259  0.1903 -0.7417
 4852TIP3    H136047   6.825   5.360  16.493 -0.1984  0.3314 -2.7843
 4852TIP3    H236048   6.792   5.505  16.524  0.3350 -0.3413  1.6669
 4853TIP3   OH236049   0.830   1.680  16.487 -0.4871 -0.1348 -0.0080
 4853TIP3    H136050   0.795   1.631  16.413  0.6191 -0.7048 -0.1808
 4853TIP3    H236051   0.924   1.683  16.471 -0.0798 -1.2725  1.9460
 4854TIP3   OH236052   2.191   2.022   3.199 -0.0971 -0.2028  0.4650
 4854TIP3    H136053   2.123   2.045   3.261 -0.4760  1.1267 -0.4162
 4854TIP3    H236054   2.273   2.037   3.246 -0.2978  3.2757 -0.0859
 4855TIP3   OH236055   5.202   4.907   2.285 -0.0516 -0.2097 -0.3913
 4855TIP3    H136056   5.201   5.002   2.298 -0.6655 -0.5488  2.8385
 4855TIP3    H236057   5.135   4.874   2.344  0.6515 -2.7269 -0.8744
 4856TIP3   OH236058   3.618   3.577   0.119  0.0580  0.0753 -0.3487
 4856TIP3    H136059   3.612   3.657   0.067  1.9724  0.0826 -0.6375
 4856TIP3    H236060   3.679   3.599   0.189  1.4337 -1.3813 -1.0138
 4857TIP3   OH236061   5.988   0.538   2.864 -0.0260 -0.1070 -0.0125
 4857TIP3    H136062   5.896   0.532   2.838  0.0407 -1.1007 -0.0760
 4857TIP3    H236063   6.017   0.447   2.869 -0.0100 -0.0493  3.5175
 4858TIP3   OH236064   2.471   3.069  13.807 -0.2157 -0.6284  0.0138
 4858TIP3    H136065   2.428   3.037  13.886 -0.2686 -0.2418  0.1472
 4858TIP3    H236066   2.404   3.061  13.739 -0.9772  1.1385  0.4673
 4859TIP3   OH236067   0.276   4.076   4.004 -0.0288 -0.0524 -0.1703
 4859TIP3    H136068   0.277   4.141   3.934  1.6524  1.7913  1.4594
 4859TIP3    H236069   0.183   4.051   4.012 -0.3389  0.0010 -2.6745
 4860TIP3   OH236070   1.270   0.571  15.134  0.2945  0.5181 -0.5041
 4860TIP3    H136071   1.237   0.631  15.202 -1.8661 -0.5214 -0.5475
 4860TIP3    H236072   1.247   0.484  15.166  2.5648 -0.2850 -0.8781
 4861TIP3   OH236073   3.958   4.345   5.134 -0.3411  0.0309 -0.3586
 4861TIP3    H136074   3.960   4.250   5.131  1.6939  0.0481 -0.9976
 4861TIP3    H236075   3.983   4.367   5.224  1.2403 -0.0421 -0.7651
 4862TIP3   OH236076   2.942   6.216  15.957  0.1770  0.1456 -0.4086
 4862TIP3    H136077   2.875   6.202  15.890 -0.9839 -2.1395  1.1200
 4862TIP3    H236078   2.938   6.139  16.012  1.8762  1.4215  1.6613
 4863TIP3   OH236079   3.454   2.118  11.369 -0.0763  0.2921 -0.6235
 4863TIP3    H136080   3.492   2.156  11.290 -0.6979 -1.3752 -1.7726
 4863TIP3    H236081   3.525   2.070  11.410  0.2385  1.1335 -0.1486
 4864TIP3   OH236082   3.094   0.113   0.136  0.2183  0.2513 -0.3952
 4864TIP3    H136083   3.048   0.160   0.205 -1.1272  0.1764 -1.1946
 4864TIP3    H236084   3.107   0.178   0.067  1.6154  0.3481 -0.0637
 4865TIP3   OH236085   4.928   5.423  14.059 -0.3723  0.0780 -0.5057
 4865TIP3    H136086   5.013   5.466  14.057 -0.3652  0.0864 -0.1131
 4865TIP3    H236087   4.945   5.333  14.028  0.4347 -1.0203  2.7873
 4866TIP3   OH236088   5.480   2.741   0.347 -0.4691 -0.2516 -0.3804
 4866TIP3    H136089   5.513   2.730   0.436 -0.2231  0.8701 -0.3305
 4866TIP3    H236090   5.524   2.672   0.297 -0.5960 -0.8817  0.3452
 4867TIP3   OH236091   2.226   0.341   5.549 -0.3906  0.8717 -0.1020
 4867TIP3    H136092   2.253   0.371   5.462 -0.1208  1.3520  0.1413
 4867TIP3    H236093   2.251   0.413   5.608 -1.7310  1.1100  0.2094
 4868TIP3   OH236094   3.294   4.020   2.802 -0.4727  0.3936  0.4652
 4868TIP3    H136095   3.275   4.063   2.885  0.0753 -0.2150  0.9126
 4868TIP3    H236096   3.264   4.082   2.735 -3.3641 -0.1810  1.0856
 4869TIP3   OH236097   4.562   2.086   4.809  0.3264 -0.6654  0.6396
 4869TIP3    H136098   4.646   2.121   4.782  0.7906 -1.1819  1.3783
 4869TIP3    H236099   4.535   2.141   4.882  0.7181 -1.3702  1.3355
 4870TIP3   OH236100   5.506   4.424   5.699  0.3565 -0.1717  0.4594
 4870TIP3    H136101   5.418   4.389   5.715  0.7704 -0.2217  2.9646
 4870TIP3    H236102   5.499   4.517   5.719  0.6195  0.0861 -0.5621
 4871TIP3   OH236103   5.625   3.264   0.428  0.2904 -0.4333  0.1459
 4871TIP3    H136104   5.555   3.208   0.395  0.2522  0.6420 -1.7640
 4871TIP3    H236105   5.599   3.352   0.402  0.8916  0.3584  2.0910
 4872TIP3   OH236106   2.523   2.576   0.883 -0.2581 -0.4674 -0.3939
 4872TIP3    H136107   2.596   2.545   0.937 -0.0262 -1.5135 -1.2619
 4872TIP3    H236108   2.496   2.498   0.834  0.1523  0.6229 -2.4739
 4873TIP3   OH236109   6.690   4.292  13.584  0.3222 -0.0346  0.1867
 4873TIP3    H136110   6.669   4.364  13.526  1.0968 -1.5156 -2.0445
 4873TIP3    H236111   6.611   4.237  13.584  1.0927 -1.2015 -1.3532
 4874TIP3   OH236112   2.479   0.927  15.332 -0.2054 -0.0538  0.2907
 4874TIP3    H136113   2.471   0.898  15.423 -0.3249  0.9202  0.5926
 4874TIP3    H236114   2.537   0.862  15.292 -2.2541 -2.0360  0.3546
 4875TIP3   OH236115   5.242   4.746  14.789  0.3031 -0.1018 -0.3194
 4875TIP3    H136116   5.317   4.796  14.822  0.4975 -1.0625  0.7572
 4875TIP3    H236117   5.182   4.742  14.864  0.9004 -2.6309  0.1151
 4876TIP3   OH236118   4.943   3.440  14.370 -0.0391  0.0798 -0.2923
 4876TIP3    H136119   4.918   3.513  14.313  0.9170  0.8786  0.2781
 4876TIP3    H236120   5.009   3.477  14.429 -1.2793 -0.6069  1.6065
 4877TIP3   OH236121   4.670   4.314  15.483  0.0116 -0.1088  0.4591
 4877TIP3    H136122   4.718   4.350  15.409  0.0259  1.9109  1.3969
 4877TIP3    H236123   4.579   4.314  15.455  0.2340 -1.5588 -0.3785
 4878TIP3   OH236124   1.164   5.834  15.946 -0.6483  0.1112 -0.1102
 4878TIP3    H136125   1.093   5.886  15.908 -1.0543 -1.2127 -1.2656
 4878TIP3    H236126   1.209   5.796  15.870  0.4811 -0.1396  0.6529
 4879TIP3   OH236127   1.993   1.917   6.250 -0.0902  0.4927 -0.4015
 4879TIP3    H136128   2.032   2.003   6.269  1.5987 -0.2032 -0.4886
 4879TIP3    H236129   2.001   1.868   6.332 -1.3324  0.5012 -0.2604
 4880TIP3   OH236130   1.922   1.172  10.887  0.0716  0.1573 -0.7787
 4880TIP3    H136131   1.901   1.173  10.794 -0.6514 -0.8159 -0.6515
 4880TIP3    H236132   1.881   1.091  10.920  0.9129  0.1204  0.2386
 4881TIP3   OH236133   5.501   4.900  16.223 -0.5060  0.4046 -0.1829
 4881TIP3    H136134   5.580   4.925  16.175 -0.9611  0.6314 -0.8405
 4881TIP3    H236135   5.486   4.809  16.200  0.1044  0.0681  0.7226
 4882TIP3   OH236136   3.307   4.996  16.977  0.3277 -0.2255  0.0100
 4882TIP3    H136137   3.225   4.950  16.997  0.3052 -0.9444 -1.6015
 4882TIP3    H236138   3.286   5.088  16.992  0.0261 -0.5712  2.1412
 4883TIP3   OH236139   0.258   1.230  13.525 -0.3694 -0.1630  0.0584
 4883TIP3    H136140   0.282   1.185  13.444  1.6943 -0.0977  0.5789
 4883TIP3    H236141   0.308   1.185  13.593 -1.3048  0.4178  1.1685
 4884TIP3   OH236142   0.304   2.766  12.660 -0.4608  0.1623  0.2480
 4884TIP3    H136143   0.256   2.744  12.740 -0.7537 -0.8880 -0.1918
 4884TIP3    H236144   0.326   2.859  12.670 -0.5123  0.0588  1.5284
 4885TIP3   OH236145   5.853   2.060  16.340  0.2926  0.3494  0.1312
 4885TIP3    H136146   5.767   2.094  16.314  0.7068  0.9776 -0.4855
 4885TIP3    H236147   5.907   2.071  16.261  0.7015 -0.9006  0.2110
 4886TIP3   OH236148   3.604   2.358   4.491 -0.0641 -0.5723  0.5839
 4886TIP3    H136149   3.618   2.290   4.556  0.6742 -1.6835 -0.6856
 4886TIP3    H236150   3.666   2.427   4.514  1.4797 -1.7293  0.0501
 4887TIP3   OH236151   2.333   2.114  13.555 -0.0848 -0.3667 -0.5357
 4887TIP3    H136152   2.287   2.062  13.490 -0.6482  0.6281 -0.9409
 4887TIP3    H236153   2.362   2.192  13.508  0.9619 -0.3994  0.0073
 4888TIP3   OH236154   5.477   4.037   3.042  0.6139 -0.2464 -0.2246
 4888TIP3    H136155   5.408   4.046   3.108  1.7815 -3.0840  1.5945
 4888TIP3    H236156   5.435   3.989   2.971  0.0060  0.5210 -0.3944
 4889TIP3   OH236157   1.819   0.651  11.771 -0.7002 -0.3750  0.0159
 4889TIP3    H136158   1.810   0.746  11.785 -1.4162 -0.5540  0.8194
 4889TIP3    H236159   1.887   0.644  11.703 -0.8466  0.7223 -0.2727
 4890TIP3   OH236160   2.405   5.280  13.309  0.1087  0.5005 -0.0665
 4890TIP3    H136161   2.428   5.209  13.249  0.3013 -0.6216  1.2638
 4890TIP3    H236162   2.348   5.338  13.259  2.6925  1.3089 -2.2895
 4891TIP3   OH236163   2.344   4.041   3.512 -0.0665  0.2665 -0.3041
 4891TIP3    H136164   2.435   4.063   3.535 -0.7599  3.3562 -0.0161
 4891TIP3    H236165   2.334   4.074   3.423 -0.5979 -1.2162 -0.8127
 4892TIP3   OH236166   6.193   0.280  15.858  0.4992 -0.7250 -0.2969
 4892TIP3    H136167   6.164   0.368  15.882 -0.6459 -1.1172 -0.1756
 4892TIP3    H236168   6.260   0.259  15.923  2.3108  0.8463 -1.5857
 4893TIP3   OH236169   3.920   3.077  13.392  0.0999  0.5073 -0.0850
 4893TIP3    H136170   3.965   3.155  13.426 -1.2402  0.9343  0.7478
 4893TIP3    H236171   3.885   3.033  13.469 -0.7383  0.0739 -0.6938
 4894TIP3   OH236172   5.508   4.708   0.954  0.3631  0.2265 -0.0104
 4894TIP3    H136173   5.454   4.631   0.968 -0.9693  0.9637 -0.8535
 4894TIP3    H236174   5.595   4.673   0.936  0.0162 -1.0229  0.5977
 4895TIP3   OH236175   5.079   0.483   2.310 -0.0070  0.0062 -0.7024
 4895TIP3    H136176   5.128   0.501   2.230 -1.6411  1.2334 -1.4946
 4895TIP3    H236177   5.029   0.563   2.326  0.2378 -0.2206  1.5475
 4896TIP3   OH236178   1.997   0.048   1.212  0.1478  0.1260  1.1843
 4896TIP3    H136179   1.910   0.026   1.245 -1.0694 -0.6288 -2.0961
 4896TIP3    H236180   2.018  -0.022   1.150  2.0733  1.4548  0.1968
 4897TIP3   OH236181   3.946   6.782   0.410 -0.8761  0.0193 -0.2022
 4897TIP3    H136182   4.011   6.841   0.448  0.9407 -0.8464 -1.7858
 4897TIP3    H236183   3.863   6.829   0.418 -0.2489  0.8609  2.5685
 4898TIP3   OH236184   4.881   0.563  11.362 -0.4885 -0.2847 -0.1215
 4898TIP3    H136185   4.861   0.470  11.367 -0.8801 -0.1599  1.0211
 4898TIP3    H236186   4.800   0.602  11.327 -0.0079 -0.4545 -1.4799
 4899TIP3   OH236187   2.080   3.540  12.458 -0.4916 -0.4133  0.2617
 4899TIP3    H136188   2.039   3.492  12.530 -0.8162  1.5498  1.4736
 4899TIP3    H236189   2.150   3.482  12.427 -0.6180 -1.5004  1.8792
 4900TIP3   OH236190   2.654   3.885   5.259 -0.7424  0.2038  0.0793
 4900TIP3    H136191   2.625   3.961   5.210  0.0725 -0.0345 -0.8117
 4900TIP3    H236192   2.609   3.891   5.344 -2.6908  0.2859 -0.9104
 4901TIP3   OH236193   1.627   3.298   5.804  0.2238  0.0766 -0.0216
 4901TIP3    H136194   1.711   3.263   5.834  0.1649  0.0793  0.1485
 4901TIP3    H236195   1.645   3.390   5.783  0.0761  0.3092  0.8274
 4902TIP3   OH236196   3.416   6.407  10.843 -0.3103  0.0514 -0.1165
 4902TIP3    H136197   3.484   6.365  10.895 -1.4501  0.5952  1.9238
 4902TIP3    H236198   3.412   6.497  10.875 -0.9524  0.4627 -1.2754
 4903TIP3   OH236199   1.984   1.302   4.637  0.1162  0.3787 -0.4200
 4903TIP3    H136200   1.928   1.225   4.631  1.2935 -0.5331  0.0166
 4903TIP3    H236201   1.942   1.356   4.705  0.0852 -0.5826  0.3527
 4904TIP3   OH236202   0.412   0.725  12.286  0.3197 -0.6606  0.6130
 4904TIP3    H136203   0.502   0.726  12.255  0.1566 -1.4775  0.0665
 4904TIP3    H236204   0.369   0.798  12.242  0.5881 -0.6044  0.4472
 4905TIP3   OH236205   4.236   1.117  15.764 -0.8710  0.0165  0.5660
 4905TIP3    H136206   4.232   1.025  15.788  0.4579 -0.0512  0.6136
 4905TIP3    H236207   4.153   1.135  15.720 -1.5902 -0.9156  1.5116
 4906TIP3   OH236208   0.314   6.008   3.783 -0.4324 -0.2974  0.5229
 4906TIP3    H136209   0.234   5.970   3.747 -0.2149  0.9229 -1.3835
 4906TIP3    H236210   0.379   5.937   3.777 -0.5046 -0.2714 -1.2675
 4907TIP3   OH236211   5.526   5.742   1.099  0.5862  0.3510  0.2877
 4907TIP3    H136212   5.512   5.830   1.063  2.6146  1.3077  1.6689
 4907TIP3    H236213   5.607   5.749   1.150  0.2477 -2.0614  1.3014
 4908TIP3   OH236214   4.390   2.411  14.390  0.1250 -0.5237  0.1448
 4908TIP3    H136215   4.483   2.431  14.404  0.5149 -1.2624 -1.1909
 4908TIP3    H236216   4.366   2.357  14.465  1.0997 -1.2799 -0.0603
 4909TIP3   OH236217   6.558   6.383   4.550  0.2754 -0.4134 -0.1861
 4909TIP3    H136218   6.495   6.311   4.559 -0.0558 -0.1426 -0.3360
 4909TIP3    H236219   6.597   6.371   4.463  0.4354 -0.5795 -0.0939
 4910TIP3   OH236220   2.438   1.769   6.110  0.2176  0.5024 -0.1395
 4910TIP3    H136221   2.346   1.745   6.100 -0.0170  1.2173  0.2600
 4910TIP3    H236222   2.451   1.777   6.204  0.3325  1.7498 -0.2525
 4911TIP3   OH236223   2.811   4.447   3.744  0.0441  0.0601 -0.3180
 4911TIP3    H136224   2.735   4.470   3.798  1.1486  2.7430  0.2891
 4911TIP3    H236225   2.826   4.354   3.762 -1.1636  0.2399  2.0432
 4912TIP3   OH236226   6.803   5.295  16.892  0.3307 -0.3787  0.0732
 4912TIP3    H136227   6.770   5.220  16.842 -0.8841  0.7801 -0.9417
 4912TIP3    H236228   6.832   5.357  16.825  2.9705 -0.5975  0.9225
 4913TIP3   OH236229   4.382   6.337  10.856 -0.3676  0.3233 -0.4161
 4913TIP3    H136230   4.297   6.376  10.877 -0.1541 -0.0459  1.2655
 4913TIP3    H236231   4.361   6.260  10.804 -0.8506  1.9528 -2.7925
 4914TIP3   OH236232   4.140   3.555  16.237  0.2845 -0.4059 -0.6265
 4914TIP3    H136233   4.186   3.613  16.177  0.5353 -0.3230 -0.3586
 4914TIP3    H236234   4.140   3.602  16.321  1.3674 -1.1997 -0.1487
 4915TIP3   OH236235   5.215   1.933   5.489  0.1995  1.0881 -0.1850
 4915TIP3    H136236   5.154   1.878   5.539 -1.0166  3.0649  0.6623
 4915TIP3    H236237   5.302   1.905   5.518 -0.3314 -0.7971 -0.2840
 4916TIP3   OH236238   1.104   2.832  11.228 -0.3745  0.2533 -0.3465
 4916TIP3    H136239   1.115   2.755  11.172 -0.4754 -0.3074  0.3916
 4916TIP3    H236240   1.173   2.892  11.199  0.0327 -0.3195 -0.5914
 4917TIP3   OH236241   3.771   2.475  14.018 -0.0091 -0.1074 -0.1443
 4917TIP3    H136242   3.803   2.435  14.099  0.8104  1.4135  0.3234
 4917TIP3    H236243   3.701   2.534  14.046  0.0227  0.1483 -0.5838
 4918TIP3   OH236244   4.884   5.928  15.167  0.0933  0.1615  0.0378
 4918TIP3    H136245   4.889   5.888  15.254  1.5259 -1.9416 -0.9163
 4918TIP3    H236246   4.793   5.956  15.159 -0.9919 -2.7047  0.9557
 4919TIP3   OH236247   0.687   1.580  16.278  0.0250 -0.1561 -0.1946
 4919TIP3    H136248   0.607   1.532  16.300 -0.5953  0.7585 -0.4082
 4919TIP3    H236249   0.657   1.667  16.251  1.0409 -0.0229 -0.9766
 4920TIP3   OH236250   5.947   1.078  13.711 -0.0889 -0.6580 -0.5101
 4920TIP3    H136251   5.858   1.045  13.699 -0.7728  0.6038  0.8213
 4920TIP3    H236252   5.952   1.155  13.655 -0.6956  0.6996  1.2268
 4921TIP3   OH236253   1.742   2.826  17.157 -0.0950  0.1105 -0.6422
 4921TIP3    H136254   1.763   2.915  17.127 -0.4726  0.4757  0.1408
 4921TIP3    H236255   1.734   2.834  17.252 -0.3479 -0.7258 -0.5842
 4922TIP3   OH236256   5.835   0.788   5.185  0.2250  0.0479  0.1953
 4922TIP3    H136257   5.855   0.843   5.109 -0.7848  1.2863  0.7814
 4922TIP3    H236258   5.912   0.732   5.195  1.5699  1.7396 -0.1191
 4923TIP3   OH236259   0.446   5.093  14.284  0.0635  0.0005 -0.4079
 4923TIP3    H136260   0.427   5.167  14.341  0.2578 -0.5911  0.4560
 4923TIP3    H236261   0.457   5.019  14.345 -1.0020 -0.9202 -1.2872
 4924TIP3   OH236262   1.999   3.356  17.045  0.1264 -0.0166 -0.6685
 4924TIP3    H136263   1.913   3.347  17.005  0.0970 -0.2610 -0.5500
 4924TIP3    H236264   2.048   3.280  17.013 -0.5896 -1.5133  1.5508
 4925TIP3   OH236265   6.511   3.283   1.539 -0.5744  0.2999 -0.5925
 4925TIP3    H136266   6.434   3.246   1.496 -0.1943 -0.6159 -0.4964
 4925TIP3    H236267   6.550   3.340   1.472 -0.4740 -0.4367 -1.1851
 4926TIP3   OH236268   0.105   0.802  15.154  0.0928  0.5693 -0.0917
 4926TIP3    H136269   0.083   0.779  15.064  0.1442  2.5248 -0.6547
 4926TIP3    H236270   0.198   0.784  15.162 -0.3691 -2.1044  0.4593
 4927TIP3   OH236271   5.418   5.039  15.593 -0.4603  0.4286  0.6677
 4927TIP3    H136272   5.485   4.973  15.609 -0.3589  0.4664  0.4013
 4927TIP3    H236273   5.338   4.990  15.576 -0.1801  0.3462 -0.4830
 4928TIP3   OH236274   3.719   5.334   1.423 -0.1315  0.0004  0.0271
 4928TIP3    H136275   3.732   5.246   1.460 -0.7739  1.2050  3.4882
 4928TIP3    H236276   3.624   5.340   1.410 -0.0638  0.1281 -0.4280
 4929TIP3   OH236277   5.618   4.156   6.439 -0.0619 -0.1664  0.1227
 4929TIP3    H136278   5.678   4.122   6.504 -0.5290 -0.3591  0.4586
 4929TIP3    H236279   5.651   4.123   6.355 -0.0563 -0.7840  0.3664
 4930TIP3   OH236280   3.010   4.188  13.649  0.1798 -0.3937 -0.4362
 4930TIP3    H136281   3.040   4.208  13.737 -0.0900 -1.9094  0.0222
 4930TIP3    H236282   3.086   4.147  13.607 -0.0507 -0.7147 -0.5392
 4931TIP3   OH236283   2.461   3.477   2.981 -0.5309 -0.0488  0.4541
 4931TIP3    H136284   2.549   3.514   2.982 -0.7735  0.5860 -0.3778
 4931TIP3    H236285   2.462   3.410   3.049  1.5740 -2.2632 -1.5711
 4932TIP3   OH236286   6.554   6.784   4.444 -0.5176 -0.7909  0.3177
 4932TIP3    H136287   6.570   6.877   4.459  1.1479 -0.8931 -0.7066
 4932TIP3    H236288   6.601   6.740   4.514  0.1156 -0.9254 -0.1896
 4933TIP3   OH236289   1.912   2.041  12.506 -0.6990 -0.1008 -0.1761
 4933TIP3    H136290   1.902   1.982  12.580  0.4213  0.0047  0.0881
 4933TIP3    H236291   1.999   2.079  12.518 -1.1347  1.1041 -0.6989
 4934TIP3   OH236292   1.519   2.974   5.409  0.5341 -0.3945  0.0838
 4934TIP3    H136293   1.469   2.976   5.328 -1.5201  0.5662  1.2980
 4934TIP3    H236294   1.491   2.892   5.452  0.9197 -0.4452  0.2422
 4935TIP3   OH236295   4.208   6.143  13.381 -0.5218 -0.2259  0.4543
 4935TIP3    H136296   4.131   6.192  13.353  0.0101  0.4081  0.0800
 4935TIP3    H236297   4.174   6.057  13.404 -1.4152  0.2115  0.8019
 4936TIP3   OH236298   2.064   2.699  11.234 -0.3262  0.0060  0.5330
 4936TIP3    H136299   2.101   2.769  11.180 -0.1770 -0.0319  0.5849
 4936TIP3    H236300   2.132   2.631  11.236 -0.3507 -0.0137  0.7277
 4937TIP3   OH236301   5.066   6.641  15.261 -0.9411  0.1942 -0.5101
 4937TIP3    H136302   5.155   6.670  15.279 -0.9548 -0.5930  1.0201
 4937TIP3    H236303   5.077   6.563  15.206 -0.7192  0.4835 -0.8781
 4938TIP3   OH236304   0.703   1.602   5.783  0.3671  0.2687  0.0444
 4938TIP3    H136305   0.660   1.554   5.854 -1.8717  1.3956 -0.4532
 4938TIP3    H236306   0.670   1.560   5.703 -1.4478  2.3442 -0.3996
 4939TIP3   OH236307   4.220   6.747  16.728 -0.4688 -0.6150  0.2897
 4939TIP3    H136308   4.289   6.780  16.786  1.3997 -1.2508 -1.4335
 4939TIP3    H236309   4.169   6.825  16.706  1.6582  0.5809 -0.8308
 4940TIP3   OH236310   4.997   3.305   4.198  0.2440 -0.2523  0.4235
 4940TIP3    H136311   4.960   3.253   4.127 -0.8890  2.7683 -1.3891
 4940TIP3    H236312   4.921   3.348   4.238  1.0447 -0.5435  2.4093
 4941TIP3   OH236313   5.724   5.992  11.622  0.4300 -0.1627  0.0243
 4941TIP3    H136314   5.701   5.962  11.534  0.1052  0.0720  0.0287
 4941TIP3    H236315   5.820   5.986  11.625  0.3391 -2.2240  0.3856
 4942TIP3   OH236316   0.135   0.749  14.203 -0.0018 -0.0058  0.5647
 4942TIP3    H136317   0.122   0.807  14.278 -1.0997  1.7930 -0.9293
 4942TIP3    H236318   0.048   0.712  14.186  0.2326 -0.3802  0.1515
 4943TIP3   OH236319   1.952   2.106   2.636 -0.5691  0.1284  0.4262
 4943TIP3    H136320   1.959   2.059   2.553 -2.5856 -0.0248  0.2939
 4943TIP3    H236321   1.953   2.199   2.611 -1.7181  0.0804  0.1448
 4944TIP3   OH236322   6.790   1.195   4.917 -0.2018  0.7615  0.7512
 4944TIP3    H136323   6.729   1.123   4.910 -1.0823  1.6264 -1.2720
 4944TIP3    H236324   6.833   1.182   5.002  0.1637 -2.4697  0.1916
 4945TIP3   OH236325   6.119   5.651  14.591  0.2790 -0.8083 -0.9618
 4945TIP3    H136326   6.063   5.618  14.661  1.1343 -0.2937 -0.0138
 4945TIP3    H236327   6.150   5.736  14.623  0.7685 -0.6081 -1.9210
 4946TIP3   OH236328   4.949   6.055   4.449  0.4635 -0.2993 -0.1155
 4946TIP3    H136329   5.018   6.017   4.393 -0.5843 -0.7191 -1.1619
 4946TIP3    H236330   4.984   6.046   4.538  1.5993 -0.8557 -0.5848
 4947TIP3   OH236331   1.009   1.295  13.012 -0.7561  0.1725 -0.0422
 4947TIP3    H136332   0.915   1.309  12.999 -0.7488  0.3047  0.0470
 4947TIP3    H236333   1.024   1.205  12.983 -1.3178 -0.6394  2.0684
 4948TIP3   OH236334   4.125   1.415   0.981  0.1925  0.0391 -0.2369
 4948TIP3    H136335   4.053   1.410   0.918  0.2196  0.5162 -0.3101
 4948TIP3    H236336   4.154   1.507   0.977  0.5647 -0.0640  0.0557
 4949TIP3   OH236337   0.200   1.858  12.529 -0.1977 -0.2881  0.1958
 4949TIP3    H136338   0.206   1.950  12.503 -0.1138  0.3102  2.1278
 4949TIP3    H236339   0.211   1.809  12.448  2.3221  1.3545 -0.5966
 4950TIP3   OH236340   3.157   0.064  13.333  0.2946 -0.0222 -0.3306
 4950TIP3    H136341   3.122   0.152  13.329  1.1518  0.3774  0.5235
 4950TIP3    H236342   3.106   0.020  13.401  0.9758  0.3491  0.4342
 4951TIP3   OH236343   1.457   5.885  14.380 -0.2925  0.1008 -0.2380
 4951TIP3    H136344   1.469   5.795  14.409 -2.2475 -0.7650 -1.8277
 4951TIP3    H236345   1.445   5.935  14.461 -0.7075 -1.3330  0.6215
 4952TIP3   OH236346   3.640   5.572  12.386 -0.0078  0.5623  0.3196
 4952TIP3    H136347   3.619   5.620  12.305  2.3027  1.1535 -0.0048
 4952TIP3    H236348   3.589   5.492  12.380  0.0435  0.6247 -1.7222
 4953TIP3   OH236349   0.504   2.693   4.022 -0.0397 -0.0889  0.3501
 4953TIP3    H136350   0.542   2.608   4.043 -0.3189 -0.3574 -0.2076
 4953TIP3    H236351   0.511   2.700   3.927  0.2946  0.6655  0.4278
 4954TIP3   OH236352   6.170   3.779  17.020 -0.5599 -0.3724 -0.1027
 4954TIP3    H136353   6.176   3.731  16.937  0.4337 -1.2705  0.4573
 4954TIP3    H236354   6.234   3.736  17.077 -0.7569  0.6468  0.9261
 4955TIP3   OH236355   2.786   0.657   0.211  0.1032  0.0303 -0.3259
 4955TIP3    H136356   2.717   0.611   0.258  1.5116 -0.2924  1.5790
 4955TIP3    H236357   2.762   0.749   0.216 -0.6421 -0.1539 -0.4896
 4956TIP3   OH236358   3.096   3.311  14.212  0.3889 -0.3025 -0.3606
 4956TIP3    H136359   3.103   3.216  14.218  0.5895 -0.3251 -0.8748
 4956TIP3    H236360   3.094   3.341  14.303  3.3056 -0.5948 -0.0939
 4957TIP3   OH236361   4.896   4.844   1.513 -0.8118 -0.4529 -0.0999
 4957TIP3    H136362   4.980   4.883   1.537  0.4627 -2.3748 -1.2028
 4957TIP3    H236363   4.896   4.758   1.556 -3.1245  0.2611  1.5148
 4958TIP3   OH236364   5.045   4.603  10.918 -0.3416  0.4085  0.6462
 4958TIP3    H136365   4.986   4.676  10.938 -2.4822 -1.0810  0.1965
 4958TIP3    H236366   5.089   4.630  10.837 -1.8327  0.8478 -0.0712
 4959TIP3   OH236367   2.364   0.137  16.124  0.4512 -0.2304  0.4829
 4959TIP3    H136368   2.321   0.203  16.179  1.0041  0.5975 -0.0563
 4959TIP3    H236369   2.295   0.105  16.066  0.2404  0.0669  0.5682
 4960TIP3   OH236370   5.858   6.278  16.903  0.3484  0.1553 -0.2489
 4960TIP3    H136371   5.870   6.323  16.819 -0.2370 -0.5209 -0.7083
 4960TIP3    H236372   5.805   6.201  16.882 -0.5232  0.4210  0.8914
 4961TIP3   OH236373   2.812   3.657   5.566  0.2701  0.0531 -0.4305
 4961TIP3    H136374   2.822   3.582   5.508  2.7462  0.5992 -0.8493
 4961TIP3    H236375   2.722   3.653   5.597 -0.0166 -2.3550 -1.4140
 4962TIP3   OH236376   0.243   0.389   0.711  0.1238 -0.1865  0.4276
 4962TIP3    H136377   0.214   0.421   0.626 -1.3166 -1.4306  0.4220
 4962TIP3    H236378   0.238   0.294   0.705 -0.7547 -0.2928  2.1379
 4963TIP3   OH236379   4.369   5.914  12.422 -0.1144  0.6854  0.1551
 4963TIP3    H136380   4.292   5.970  12.413 -0.4173  0.0758 -1.2540
 4963TIP3    H236381   4.358   5.846  12.356  0.4426 -0.8391  1.5571
 4964TIP3   OH236382   5.254   0.469   4.497  0.2094  0.0823  0.0417
 4964TIP3    H136383   5.200   0.418   4.437  0.0484 -0.2359  0.4521
 4964TIP3    H236384   5.279   0.547   4.447  0.0947 -0.1878 -0.4409
 4965TIP3   OH236385   5.106   4.011   3.134  0.7021 -0.3040  0.1395
 4965TIP3    H136386   5.177   4.021   3.197  0.7363  0.6294 -0.0410
 4965TIP3    H236387   5.056   4.092   3.140 -0.0183 -0.7121 -0.1521
 4966TIP3   OH236388   5.198   0.306   4.780  0.3415  0.0651 -0.3119
 4966TIP3    H136389   5.236   0.393   4.789 -0.2603  0.1924  1.2163
 4966TIP3    H236390   5.222   0.261   4.860 -1.7685 -0.2142  0.2258
 4967TIP3   OH236391   4.808   2.182   4.717 -0.2944 -0.4817  0.2729
 4967TIP3    H136392   4.869   2.177   4.790 -0.3941  1.5553  0.5558
 4967TIP3    H236393   4.839   2.256   4.665 -2.3998  0.5021  0.3321
 4968TIP3   OH236394   1.466   4.940   3.470 -0.5800  0.0166  0.3599
 4968TIP3    H136395   1.510   4.872   3.522 -0.1373  0.3994  0.4971
 4968TIP3    H236396   1.375   4.937   3.500 -0.3361  0.2221  1.1634
 4969TIP3   OH236397   4.574   2.107  10.678  0.8549  0.0408  0.5873
 4969TIP3    H136398   4.537   2.175  10.735  2.7324  1.0929  0.6229
 4969TIP3    H236399   4.605   2.155  10.601  1.7639 -0.8397  0.3885
 4970TIP3   OH236400   5.442   1.364  13.968  0.4686 -0.0161 -0.7611
 4970TIP3    H136401   5.503   1.438  13.970  2.3400 -1.5161  0.5319
 4970TIP3    H236402   5.467   1.313  13.892 -1.7775  1.3240 -2.5399
 4971TIP3   OH236403   0.943   1.386  15.009  0.2666  0.2437  0.0277
 4971TIP3    H136404   0.957   1.465  14.957 -1.8116  0.3657 -0.4327
 4971TIP3    H236405   0.904   1.323  14.947  0.3684 -0.5696  0.7731
 4972TIP3   OH236406   0.909   0.102   4.774  0.3475 -0.7065 -0.1721
 4972TIP3    H136407   0.921   0.072   4.864  0.5459 -1.9404 -0.5894
 4972TIP3    H236408   0.830   0.057   4.744 -0.5779  0.8389 -0.1642
 4973TIP3   OH236409   1.812   4.662   0.934  0.3391 -0.4734 -0.0467
 4973TIP3    H136410   1.899   4.682   0.898 -0.1117  0.1876 -0.8144
 4973TIP3    H236411   1.797   4.732   0.998  0.3181 -0.5051 -0.0178
 4974TIP3   OH236412   2.115   3.063  17.062 -0.2351 -0.2781  0.1050
 4974TIP3    H136413   2.199   3.020  17.046 -0.0524 -0.5304  1.5936
 4974TIP3    H236414   2.111   3.073  17.157 -2.5514 -1.6165  0.2043
 4975TIP3   OH236415   3.961   3.220  11.936  0.4552  0.8498  0.3399
 4975TIP3    H136416   3.938   3.215  12.029 -0.3479 -1.9241  0.0879
 4975TIP3    H236417   3.877   3.216  11.891  0.9200 -0.7256 -0.4865
 4976TIP3   OH236418   1.600   4.074   5.831 -0.2741 -0.2258  0.6926
 4976TIP3    H136419   1.687   4.061   5.795  0.4770  2.3954  1.3296
 4976TIP3    H236420   1.547   4.105   5.758 -0.0683  0.2641  0.7442
 4977TIP3   OH236421   0.819   2.792   1.391  0.4960  0.3795 -0.5095
 4977TIP3    H136422   0.827   2.867   1.449  0.7177 -0.0264 -0.0016
 4977TIP3    H236423   0.733   2.754   1.412  0.2338  0.6827 -1.0064
 4978TIP3   OH236424   4.446   3.833   4.485  0.1827  0.0241  0.4032
 4978TIP3    H136425   4.515   3.768   4.471  1.6781  1.6215  0.0213
 4978TIP3    H236426   4.386   3.821   4.411  0.3155 -1.0468  0.4592
 4979TIP3   OH236427   3.604   0.252  15.298  0.7952 -0.5339  0.1341
 4979TIP3    H136428   3.673   0.192  15.269  1.2206 -0.8761  1.7599
 4979TIP3    H236429   3.601   0.320  15.231  0.0843 -2.4947 -1.9541
 4980TIP3   OH236430   5.946   4.420   3.626 -0.4777  0.5819 -0.4684
 4980TIP3    H136431   6.017   4.385   3.574 -1.0668 -0.9139 -0.3171
 4980TIP3    H236432   5.949   4.371   3.708 -2.4658 -0.4988 -0.9611
 4981TIP3   OH236433   4.360   0.872   1.289 -0.0157 -0.9167 -0.1919
 4981TIP3    H136434   4.278   0.900   1.327  1.4555  0.3833  2.2804
 4981TIP3    H236435   4.368   0.922   1.208 -1.5393 -0.9683 -0.3990
 4982TIP3   OH236436   3.666   0.389  16.882  0.3710  0.1972 -0.6262
 4982TIP3    H136437   3.599   0.322  16.869  1.1321 -0.5687 -0.6832
 4982TIP3    H236438   3.619   0.472  16.877 -0.4783 -0.3107 -1.2288
 4983TIP3   OH236439   1.902   4.061  12.054  0.1801  0.0042  0.2831
 4983TIP3    H136440   1.851   3.986  12.082  0.0745 -0.0250  0.0165
 4983TIP3    H236441   1.977   4.063  12.114  0.0569 -0.1669  0.4446
 4984TIP3   OH236442   1.170   3.278  11.261 -0.0381 -0.0280 -0.0672
 4984TIP3    H136443   1.084   3.293  11.299  0.3340 -1.8712  1.6468
 4984TIP3    H236444   1.230   3.331  11.314 -0.1919  2.6895 -2.3486
 4985TIP3   OH236445   3.913   5.503   2.012 -0.4041 -0.1095  0.2554
 4985TIP3    H136446   3.924   5.576   1.952  2.4564  0.2580  1.0522
 4985TIP3    H236447   3.999   5.460   2.014 -0.2548 -0.0372  4.0769
 4986TIP3   OH236448   2.708   5.833  15.790  0.3351 -0.2087  0.5196
 4986TIP3    H136449   2.655   5.902  15.830  0.7064 -0.2572  1.0991
 4986TIP3    H236450   2.699   5.758  15.848 -0.0971 -0.6724 -0.1308
 4987TIP3   OH236451   3.255   5.096  13.953 -0.2288  0.5193  0.3632
 4987TIP3    H136452   3.307   5.154  13.898 -0.0258  0.8730  0.9213
 4987TIP3    H236453   3.179   5.149  13.978  0.4565  0.9037  1.7065
 4988TIP3   OH236454   1.634   6.710  13.987  0.6061 -0.1955  0.6563
 4988TIP3    H136455   1.673   6.792  13.958 -0.6873 -0.4595 -2.2028
 4988TIP3    H236456   1.566   6.692  13.922 -0.9426 -2.2112  2.6763
 4989TIP3   OH236457   5.489   3.741  12.742 -0.3148 -0.0155  0.3124
 4989TIP3    H136458   5.445   3.778  12.818 -0.0585  0.3145  0.3025
 4989TIP3    H236459   5.545   3.672  12.778  0.8803  1.0639  0.6165
 4990TIP3   OH236460   4.826   6.557  14.535 -0.2178  0.1821 -0.4500
 4990TIP3    H136461   4.897   6.616  14.509  0.3235 -0.5866 -0.7625
 4990TIP3    H236462   4.781   6.603  14.605  0.9961  0.4181  0.2078
 4991TIP3   OH236463   0.027   1.231  14.159  0.4434  0.2988 -0.2323
 4991TIP3    H136464   0.038   1.145  14.119 -1.0143 -0.0472  0.0386
 4991TIP3    H236465   0.030   1.214  14.253 -0.3395  0.4522 -0.1704
 4992TIP3   OH236466   6.285   3.822  12.499 -0.5026 -0.1362  0.5911
 4992TIP3    H136467   6.314   3.871  12.575  0.7294  0.2813 -0.1264
 4992TIP3    H236468   6.277   3.887  12.429 -1.0067 -0.6043  0.1984
 4993TIP3   OH236469   4.171   5.461  15.195  0.4889 -0.1242 -0.3119
 4993TIP3    H136470   4.193   5.504  15.277  0.2497 -0.0044 -0.3090
 4993TIP3    H236471   4.089   5.415  15.213  1.2969 -1.5024  0.0062
 4994TIP3   OH236472   3.532   4.571   5.430  0.5791 -0.4154  0.3797
 4994TIP3    H136473   3.618   4.607   5.409  0.3180 -0.9677 -1.9019
 4994TIP3    H236474   3.523   4.495   5.373 -2.2076  0.8125 -1.0039
 4995TIP3   OH236475   6.583   3.358   4.361 -0.4897 -0.2034 -0.2054
 4995TIP3    H136476   6.562   3.332   4.271  0.1949 -1.8276  0.0789
 4995TIP3    H236477   6.541   3.292   4.416  0.9279 -0.4982  0.5666
 4996TIP3   OH236478   2.060   3.827  16.798 -0.1387  0.4399  0.0708
 4996TIP3    H136479   2.069   3.921  16.808  0.0424  0.3994  0.2869
 4996TIP3    H236480   1.989   3.803  16.857 -0.7429  0.5562 -0.5972
 4997TIP3   OH236481   2.601   0.065   1.133 -0.0672 -0.2530  0.5611
 4997TIP3    H136482   2.633   0.129   1.196 -0.9777  0.5503  0.2483
 4997TIP3    H236483   2.677   0.042   1.079  0.3411  0.3173  0.8945
 4998TIP3   OH236484   3.143   1.867   2.164  0.3629 -0.0917 -0.2831
 4998TIP3    H136485   3.064   1.919   2.147 -0.0231 -0.7178 -0.4360
 4998TIP3    H236486   3.128   1.784   2.118 -0.2994 -1.4871  2.2529
 4999TIP3   OH236487   0.244   4.647  12.727 -0.0703 -0.2495  0.1542
 4999TIP3    H136488   0.264   4.724  12.780 -0.1502  0.2931 -0.5836
 4999TIP3    H236489   0.152   4.657  12.703 -0.0275 -0.4751 -0.1073
 5000TIP3   OH236490   0.797   4.935   4.487  0.1734 -0.4262  0.4886
 5000TIP3    H136491   0.787   4.981   4.571 -0.5153  0.3405  0.0038
 5000TIP3    H236492   0.889   4.910   4.483  0.4202  0.3806  1.0423
 5001TIP3   OH236493   3.206   3.556   3.377  0.3433  0.8051 -0.8021
 5001TIP3    H136494   3.181   3.644   3.403 -2.0507 -0.0612  0.0698
 5001TIP3    H236495   3.163   3.543   3.292  1.3193  0.7248 -1.2950
 5002TIP3   OH236496   0.823   2.970  15.553  0.0184 -0.0805  0.2663
 5002TIP3    H136497   0.764   2.935  15.620 -0.5053  0.6011  0.1726
 5002TIP3    H236498   0.777   2.954  15.470  1.4722 -2.6115 -0.1624
 5003TIP3   OH236499   0.953   5.603   5.687 -0.0506  0.0010  0.1488
 5003TIP3    H136500   0.969   5.510   5.700 -3.1472 -0.7614 -0.6274
 5003TIP3    H236501   0.910   5.632   5.767  0.9469  0.8273  0.4129
 5004TIP3   OH236502   0.981   5.400  13.022 -0.0751 -0.0690 -0.5084
 5004TIP3    H136503   0.896   5.430  13.053  0.3374  0.8445 -0.2052
 5004TIP3    H236504   0.971   5.306  13.011 -1.1665  0.0479 -0.6358
 5005TIP3   OH236505   4.335   6.120  16.013  0.5207 -0.2938  0.6100
 5005TIP3    H136506   4.377   6.111  15.927  0.4546  1.6368  0.3126
 5005TIP3    H236507   4.244   6.143  15.992 -0.0142 -1.7550  1.2323
 5006TIP3   OH236508   0.019   6.105  14.912  0.2503 -0.6504 -0.6053
 5006TIP3    H136509   0.067   6.187  14.899 -1.5273  0.7937  1.3031
 5006TIP3    H236510   0.087   6.040  14.928  1.6787  0.7075 -0.9034
 5007TIP3   OH236511   0.765   4.468  14.624  0.1081 -0.1370 -0.3400
 5007TIP3    H136512   0.840   4.445  14.569  0.4628 -0.0538  0.0988
 5007TIP3    H236513   0.694   4.484  14.563 -0.0393 -1.9539 -0.6925
 5008TIP3   OH236514   6.136   4.924   3.993  0.4574  0.0440  0.3338
 5008TIP3    H136515   6.161   4.976   3.916  0.2065 -1.5528 -0.8765
 5008TIP3    H236516   6.133   4.834   3.961  1.9604 -0.9057  2.6011
 5009TIP3   OH236517   2.879   0.635  12.608  0.4452  0.0486  0.4268
 5009TIP3    H136518   2.880   0.668  12.518  2.8922  0.6539  0.5991
 5009TIP3    H236519   2.906   0.709  12.662  0.2233 -0.6374  1.5289
 5010TIP3   OH236520   4.146   3.207  12.490  0.0362  0.0517 -0.4862
 5010TIP3    H136521   4.190   3.234  12.409 -1.1472  1.7996 -0.5876
 5010TIP3    H236522   4.165   3.277  12.552 -0.6273 -0.3502  0.1870
 5011TIP3   OH236523   4.809   0.856  14.854  0.3826  0.0962 -0.6633
 5011TIP3    H136524   4.833   0.941  14.817  0.6724  0.2320 -0.1704
 5011TIP3    H236525   4.882   0.834  14.913  0.0309 -0.2176 -0.3413
 5012TIP3   OH236526   4.299   3.416   3.043 -0.2468 -0.0506 -0.4856
 5012TIP3    H136527   4.235   3.476   3.080 -0.8943 -1.2255  0.3678
 5012TIP3    H236528   4.250   3.367   2.976 -0.4343 -1.3595  0.5723
 5013TIP3   OH236529   0.111   4.740   2.561 -0.0575  0.4009 -0.1942
 5013TIP3    H136530   0.074   4.665   2.514 -1.7028 -0.3437  2.0956
 5013TIP3    H236531   0.176   4.702   2.620  1.9498  1.3090 -1.7049
 5014TIP3   OH236532   1.769   4.608  12.909 -0.2776 -0.4598  0.2506
 5014TIP3    H136533   1.812   4.630  12.826 -0.9742 -0.9296 -0.2476
 5014TIP3    H236534   1.677   4.633  12.896 -0.4265 -0.7099  0.8135
 5015TIP3   OH236535   0.125   0.632   1.621  0.2177 -0.1639 -0.3067
 5015TIP3    H136536   0.052   0.574   1.642  0.7293 -0.8092 -0.2899
 5015TIP3    H236537   0.083   0.713   1.590 -0.5369  0.4131  2.0463
 5016TIP3   OH236538   5.928   3.688  11.384 -0.4561 -0.5793 -0.1328
 5016TIP3    H136539   6.007   3.635  11.393 -0.3288 -0.4818 -0.6295
 5016TIP3    H236540   5.944   3.766  11.437 -0.5937 -0.9754  0.5005
 5017TIP3   OH236541   0.876   0.513  11.205 -0.1499  0.4652  0.3886
 5017TIP3    H136542   0.930   0.484  11.132 -0.0377 -0.2450  0.7448
 5017TIP3    H236543   0.789   0.526  11.167  0.3464  2.0432 -0.2781
 5018TIP3   OH236544   3.680   2.340  15.529  0.2199  0.3982  0.3389
 5018TIP3    H136545   3.626   2.268  15.497  0.5446 -0.0329  0.7291
 5018TIP3    H236546   3.652   2.416  15.479  0.9965 -0.3153 -1.2640
 5019TIP3   OH236547   3.078   3.862  12.267  0.1253  0.6218  0.2707
 5019TIP3    H136548   3.142   3.896  12.330  2.4607  2.1134 -2.6150
 5019TIP3    H236549   3.123   3.790  12.223 -1.6790 -0.8200  0.6731
 5020TIP3   OH236550   4.580   2.709   2.080 -0.3329 -0.1567 -0.2318
 5020TIP3    H136551   4.640   2.733   2.150 -1.5499 -0.3455  0.9155
 5020TIP3    H236552   4.534   2.632   2.112 -2.1782  0.7898 -0.4374
 5021TIP3   OH236553   2.132   3.476   3.560 -0.3283 -0.1268 -0.1573
 5021TIP3    H136554   2.180   3.405   3.603 -0.6972 -0.1508  0.2270
 5021TIP3    H236555   2.196   3.545   3.548  0.1557 -0.7039 -0.9722
 5022TIP3   OH236556   0.662   2.677   2.252  0.5368  0.1242 -0.3282
 5022TIP3    H136557   0.671   2.600   2.196 -0.0244 -0.2642  0.1034
 5022TIP3    H236558   0.567   2.689   2.262  0.6130  1.1434 -0.7593
 5023TIP3   OH236559   4.437   1.274   3.683 -0.0201 -0.2591 -0.0644
 5023TIP3    H136560   4.449   1.242   3.594  0.1306 -0.4199  0.0120
 5023TIP3    H236561   4.447   1.369   3.676 -0.0685 -0.2656 -0.2286
 5024TIP3   OH236562   5.794   2.551  14.112 -0.8177  0.2607  0.0035
 5024TIP3    H136563   5.742   2.596  14.178 -0.3058  1.8081 -0.6036
 5024TIP3    H236564   5.867   2.513  14.161 -1.1598  0.2514  0.5078
 5025TIP3   OH236565   6.154   2.186  14.169 -0.3579 -0.3713 -0.0093
 5025TIP3    H136566   6.106   2.180  14.086 -0.2766 -0.0069 -0.0827
 5025TIP3    H236567   6.200   2.270  14.164  2.2547 -1.7312 -1.0077
 5026TIP3   OH236568   6.430   1.713  11.943  0.7756 -0.8111  0.3403
 5026TIP3    H136569   6.455   1.781  12.006 -0.7476 -0.2344  0.3613
 5026TIP3    H236570   6.497   1.646  11.952  1.2206 -0.2093  1.7467
 5027TIP3   OH236571   0.147   1.410  13.991  0.1154 -0.2544  0.3340
 5027TIP3    H136572   0.194   1.354  13.929  1.4978  0.2798  0.8594
 5027TIP3    H236573   0.111   1.349  14.055 -0.0001 -0.6861 -0.1315
 5028TIP3   OH236574   3.029   0.762   4.944  0.5048 -0.3417 -0.1528
 5028TIP3    H136575   3.050   0.669   4.957  0.6680 -0.3580 -0.4960
 5028TIP3    H236576   2.984   0.788   5.023  0.5050 -0.7039 -0.0303
 5029TIP3   OH236577   2.253   3.422   4.974  0.1198  0.6581  0.1210
 5029TIP3    H136578   2.344   3.451   4.966 -0.0795  1.2850  0.0762
 5029TIP3    H236579   2.202   3.502   4.966 -0.4943  0.1794 -1.0276
 5030TIP3   OH236580   0.811   0.471  15.893  0.4767 -0.4120  0.8877
 5030TIP3    H136581   0.864   0.410  15.945  0.5927  0.9332  2.4263
 5030TIP3    H236582   0.736   0.491  15.949  0.9861  1.6646  0.8920
 5031TIP3   OH236583   3.578   3.116   2.316 -0.2213 -0.7429 -0.1294
 5031TIP3    H136584   3.638   3.175   2.363  2.0390 -1.4498 -1.9418
 5031TIP3    H236585   3.498   3.167   2.307  0.4615  0.7284  1.3562
 5032TIP3   OH236586   0.697   2.612   0.537 -0.2643 -0.0732 -0.1201
 5032TIP3    H136587   0.703   2.705   0.513  0.5578 -0.1186 -0.1008
 5032TIP3    H236588   0.787   2.580   0.531 -0.6919 -1.1363 -1.1805
 5033TIP3   OH236589   1.795   6.596   3.418  0.7992  0.2838 -0.2901
 5033TIP3    H136590   1.744   6.603   3.498  0.1866  2.5831 -0.7989
 5033TIP3    H236591   1.885   6.584   3.448  0.5094  0.5495  0.7312
 5034TIP3   OH236592   3.541   3.316   0.883 -0.0554  0.2396 -0.3268
 5034TIP3    H136593   3.630   3.350   0.869 -0.1946  0.8716  0.2376
 5034TIP3    H236594   3.486   3.395   0.882 -0.6492 -0.1749 -0.9509
 5035TIP3   OH236595   2.335   5.626   3.888  0.3894  0.3080  0.1628
 5035TIP3    H136596   2.381   5.706   3.865 -0.9904  1.4016  1.0256
 5035TIP3    H236597   2.257   5.656   3.935 -1.6138 -1.3883 -1.8313
 5036TIP3   OH236598   0.716   6.768   0.372  0.0493  0.4094  0.4916
 5036TIP3    H136599   0.712   6.674   0.387  1.6441  0.2967  0.4229
 5036TIP3    H236600   0.692   6.779   0.279 -1.5338  0.2505  0.8482
 5037TIP3   OH236601   3.474   1.624  15.566 -0.4279 -0.6799  0.5869
 5037TIP3    H136602   3.530   1.547  15.579  0.9397  0.5009  1.9485
 5037TIP3    H236603   3.521   1.696  15.608 -0.5961  1.4224 -2.4907
 5038TIP3   OH236604   4.229   0.912   4.214 -0.5798 -0.3816  0.3937
 5038TIP3    H136605   4.231   0.819   4.236 -0.4508 -0.3806  0.3872
 5038TIP3    H236606   4.153   0.921   4.157  0.5179 -0.8494 -1.2152
 5039TIP3   OH236607   6.118   1.478   4.068 -0.4899 -0.3941 -0.0472
 5039TIP3    H136608   6.173   1.466   3.991 -1.1923  0.2115 -0.6567
 5039TIP3    H236609   6.093   1.570   4.066 -0.1097 -0.2466  1.1875
 5040TIP3   OH236610   1.938   2.387  16.034 -0.2105  0.3442 -0.0312
 5040TIP3    H136611   1.889   2.366  16.113 -1.6672  0.0452 -0.9674
 5040TIP3    H236612   1.873   2.429  15.977  1.3916  2.9526 -0.1071
 5041TIP3   OH236613   1.085   3.565  16.088  0.3358  0.3292 -0.2182
 5041TIP3    H136614   1.160   3.519  16.125  0.7791  1.2299  0.0246
 5041TIP3    H236615   1.122   3.625  16.023 -0.1588  0.8484 -0.0319
 5042TIP3   OH236616   3.459   4.735   5.139 -0.1438  0.0027 -0.2827
 5042TIP3    H136617   3.416   4.714   5.222 -1.7060  2.3179 -0.4280
 5042TIP3    H236618   3.512   4.813   5.158  0.7436 -0.3776 -1.1033
 5043TIP3   OH236619   1.596   2.796  12.161 -0.5266 -0.6075 -0.0044
 5043TIP3    H136620   1.574   2.808  12.253  1.6851 -0.2046  0.5478
 5043TIP3    H236621   1.589   2.702  12.146 -4.1941 -0.3992 -0.4331
 5044TIP3   OH236622   2.783   3.695   3.920 -0.2525  0.2739 -0.0289
 5044TIP3    H136623   2.722   3.678   3.992  0.7838 -1.6822  0.4369
 5044TIP3    H236624   2.749   3.644   3.847  0.7973 -0.8505  0.2411
 5045TIP3   OH236625   0.592   6.030   0.379 -0.1579  0.7449 -0.0641
 5045TIP3    H136626   0.617   6.011   0.289 -0.7614 -0.7500  0.0463
 5045TIP3    H236627   0.552   5.949   0.410 -0.9648  1.5897  1.2015
 5046TIP3   OH236628   2.680   0.495   0.924 -0.4915 -0.1645 -0.7082
 5046TIP3    H136629   2.704   0.453   0.842  2.5223 -0.3337  0.1387
 5046TIP3    H236630   2.669   0.587   0.903 -3.1421 -0.6559 -1.8390
 5047TIP3   OH236631   5.362   6.639  15.278  0.3317 -0.1365  0.5055
 5047TIP3    H136632   5.387   6.712  15.335 -0.2241 -0.0797  0.6769
 5047TIP3    H236633   5.446   6.601  15.251  0.6359  0.7479  0.1682
 5048TIP3   OH236634   4.031   2.617  14.934 -0.7878 -0.6690  0.0984
 5048TIP3    H136635   3.994   2.639  14.848  1.7536 -0.9838 -1.1762
 5048TIP3    H236636   4.013   2.694  14.988 -0.3457  0.5685 -1.4392
 5049TIP3   OH236637   5.154   6.499  11.308 -0.6323  0.4383  0.7880
 5049TIP3    H136638   5.123   6.584  11.275 -2.9316  0.0215  1.6720
 5049TIP3    H236639   5.238   6.518  11.349  0.5888  1.6191 -2.0350
 5050TIP3   OH236640   0.413   3.088   0.058 -0.1662 -0.0200  0.3284
 5050TIP3    H136641   0.409   2.994   0.041  0.3324 -0.4316  2.2124
 5050TIP3    H236642   0.323   3.118   0.048 -0.3045 -0.6531 -0.4471
 5051TIP3   OH236643   1.061   2.077   3.634 -0.4516 -0.1566  0.0242
 5051TIP3    H136644   1.076   2.016   3.706 -0.4179  0.0022  0.1526
 5051TIP3    H236645   1.040   2.160   3.677  0.4195  0.1567 -0.1413
 5052TIP3   OH236646   5.875   4.069   5.296 -0.2484 -0.4176 -0.1427
 5052TIP3    H136647   5.790   4.025   5.289 -0.4019  0.1301 -2.3447
 5052TIP3    H236648   5.929   4.027   5.229  0.3941  0.9675 -0.5246
 5053TIP3   OH236649   2.302   3.449  12.321  0.0232 -0.4482 -0.5736
 5053TIP3    H136650   2.251   3.516  12.275  0.1053 -1.1100 -1.6699
 5053TIP3    H236651   2.281   3.368  12.275  1.8210 -0.7904 -0.8630
 5054TIP3   OH236652   1.185   0.022   4.664  0.2242  0.3068 -0.1895
 5054TIP3    H136653   1.110   0.071   4.697 -0.3005  0.2577 -1.2801
 5054TIP3    H236654   1.159  -0.006   4.576  0.9251 -1.0099 -0.0039
 5055TIP3   OH236655   5.095   5.308   1.816 -0.5615 -0.1124 -0.4871
 5055TIP3    H136656   5.177   5.353   1.800  0.5488 -1.8117  0.1995
 5055TIP3    H236657   5.065   5.343   1.900  1.5555 -2.2515  1.3131
 5056TIP3   OH236658   6.457   1.712   4.311 -0.4871 -0.0202 -0.4126
 5056TIP3    H136659   6.389   1.645   4.304 -0.8821  0.2632  0.5523
 5056TIP3    H236660   6.432   1.764   4.387 -0.3291  1.3903 -1.2817
 5057TIP3   OH236661   0.257   3.823  11.211  0.3597  0.1886  0.1377
 5057TIP3    H136662   0.329   3.841  11.151 -0.3312 -1.5234 -1.2828
 5057TIP3    H236663   0.206   3.904  11.212  0.1828  0.1634 -1.9311
 5058TIP3   OH236664   2.598   3.817  12.204  0.5513 -0.1462 -0.5968
 5058TIP3    H136665   2.614   3.744  12.263  1.6988 -1.2216 -2.1688
 5058TIP3    H236666   2.638   3.791  12.121  3.3332  3.2645 -0.5967
 5059TIP3   OH236667   0.655   2.668  13.256  0.1398  0.2681  0.2240
 5059TIP3    H136668   0.594   2.636  13.190 -0.1718  0.0616  0.6052
 5059TIP3    H236669   0.634   2.761  13.264 -0.0557  0.2208  0.2769
 5060TIP3   OH236670   0.700   0.819  16.207  0.1048  0.0835  1.0445
 5060TIP3    H136671   0.787   0.853  16.227  0.7125 -1.4374  1.1092
 5060TIP3    H236672   0.657   0.890  16.159  2.5303 -0.2274 -1.9138
 5061TIP3   OH236673   6.269   6.509   4.461 -0.1775  0.3792  0.0472
 5061TIP3    H136674   6.248   6.562   4.384 -0.0583  2.3978  1.3275
 5061TIP3    H236675   6.362   6.525   4.476  0.4445 -1.9707 -0.7591
 5062TIP3   OH236676   6.279   0.153   5.000  0.6290 -0.3077 -0.4922
 5062TIP3    H136677   6.232   0.140   4.918  1.9175 -1.8830 -1.0245
 5062TIP3    H236678   6.218   0.123   5.067  0.4914 -1.4562 -1.1012
 5063TIP3   OH236679   2.798   2.823  13.471 -0.2810  0.1286 -0.0085
 5063TIP3    H136680   2.803   2.757  13.540 -0.8572 -0.1133 -0.1902
 5063TIP3    H236681   2.718   2.871  13.489 -1.3058 -0.9562 -1.3777
 5064TIP3   OH236682   3.781   0.433  16.035  0.0005  0.3372  0.0616
 5064TIP3    H136683   3.740   0.488  16.102 -1.5692 -0.4193 -0.2377
 5064TIP3    H236684   3.780   0.487  15.956 -0.0687  0.4614  0.1462
 5065TIP3   OH236685   4.754   5.868   3.131 -0.2404 -0.3151 -0.4411
 5065TIP3    H136686   4.671   5.916   3.136  0.3574  0.6491  0.6777
 5065TIP3    H236687   4.798   5.887   3.214  1.0998 -0.8216 -1.0027
 5066TIP3   OH236688   4.182   4.752  11.016  0.3258  0.1637 -0.0090
 5066TIP3    H136689   4.182   4.671  10.965  0.0261  0.0210  0.2190
 5066TIP3    H236690   4.136   4.730  11.097 -1.4459  1.0539 -0.7212
 5067TIP3   OH236691   2.294   2.413  15.957 -0.0750  0.1547 -0.3995
 5067TIP3    H136692   2.236   2.488  15.970 -4.5560 -2.5432 -2.4121
 5067TIP3    H236693   2.312   2.380  16.045  0.9846  2.7194  0.4292
 5068TIP3   OH236694   1.141   4.408  11.137 -0.1239  0.0794  0.1309
 5068TIP3    H136695   1.095   4.461  11.202  0.8559  0.2330  0.7182
 5068TIP3    H236696   1.220   4.377  11.182 -0.4692 -1.5624 -0.3180
 5069TIP3   OH236697   1.734   0.560   6.010  0.1967 -0.3612 -0.1395
 5069TIP3    H136698   1.687   0.502   5.949 -1.0341  0.5349 -0.0715
 5069TIP3    H236699   1.739   0.509   6.091 -0.7571 -0.4392 -0.1164
 5070TIP3   OH236700   3.169   0.465  17.057  0.2522  0.1801 -0.2307
 5070TIP3    H136701   3.183   0.521  17.133  1.5920 -0.9318  0.3994
 5070TIP3    H236702   3.241   0.402  17.060 -0.2480 -0.5358 -1.8492
 5071TIP3   OH236703   1.306   0.928   5.207 -0.6566  0.0345 -0.5564
 5071TIP3    H136704   1.302   0.854   5.146  1.2741 -0.4208 -0.2028
 5071TIP3    H236705   1.264   0.895   5.287  0.5502 -0.8847 -0.2587
 5072TIP3   OH236706   2.408   6.673   2.237 -0.1845 -0.1524 -0.1846
 5072TIP3    H136707   2.330   6.690   2.184 -0.7287 -1.9109  0.0205
 5072TIP3    H236708   2.379   6.612   2.304  1.0887  0.1535  0.6757
 5073TIP3   OH236709   0.384   5.562   0.711  0.8233  0.3285  0.0378
 5073TIP3    H136710   0.291   5.558   0.734  0.2592 -0.0071 -2.0694
 5073TIP3    H236711   0.428   5.583   0.793 -1.2507  2.0758  0.8011
 5074TIP3   OH236712   4.966   1.640   3.902 -0.3808  0.4364 -0.1593
 5074TIP3    H136713   4.935   1.600   3.983 -0.2450 -0.2526 -0.4435
 5074TIP3    H236714   4.890   1.639   3.844 -0.4785  0.9314 -0.0431
 5075TIP3   OH236715   5.434   3.542  14.159  0.0544 -0.2149 -0.6371
 5075TIP3    H136716   5.510   3.582  14.202  0.4599  0.6498 -2.0794
 5075TIP3    H236717   5.450   3.555  14.066 -2.4353  1.0399 -0.9718
 5076TIP3   OH236718   2.430   4.770   5.180 -0.2422 -0.3547  0.1510
 5076TIP3    H136719   2.462   4.765   5.090 -1.9133 -0.9885 -0.4559
 5076TIP3    H236720   2.462   4.853   5.213 -1.7283  1.1515 -1.9450
 5077TIP3   OH236721   6.013   0.728   5.821 -0.4429  0.1233  0.4185
 5077TIP3    H136722   5.974   0.752   5.905  2.0636  0.8048  1.4905
 5077TIP3    H236723   6.104   0.757   5.827  0.2818 -1.3113 -1.9054
 5078TIP3   OH236724   6.187   3.436   0.790  0.0830 -0.0554 -0.0181
 5078TIP3    H136725   6.174   3.370   0.722  3.2230  0.9069 -1.7882
 5078TIP3    H236726   6.249   3.396   0.851 -1.3181 -0.2381  1.3451
 5079TIP3   OH236727   0.591   1.501  15.398 -0.3200 -0.5624  0.1859
 5079TIP3    H136728   0.655   1.443  15.357  0.2789  1.1872 -1.5282
 5079TIP3    H236729   0.583   1.575  15.337 -1.8683  0.6304  1.7173
 5080TIP3   OH236730   6.769   2.554  11.557  0.2648 -0.0779  0.3817
 5080TIP3    H136731   6.851   2.523  11.595  0.5858 -0.5047 -0.6059
 5080TIP3    H236732   6.794   2.586  11.470 -0.4071  1.0212  0.5737
 5081TIP3   OH236733   1.650   0.143  16.058 -0.1004  0.2280 -0.1951
 5081TIP3    H136734   1.566   0.189  16.051 -0.8194 -1.0266 -0.1003
 5081TIP3    H236735   1.715   0.213  16.057 -1.0890  1.1867 -1.2166
 5082TIP3   OH236736   3.360   5.252  11.660  0.0829 -0.0509 -0.0131
 5082TIP3    H136737   3.317   5.295  11.734  0.0905 -2.4298  1.4836
 5082TIP3    H236738   3.369   5.160  11.687  3.1060 -0.3610 -1.5985
 5083TIP3   OH236739   2.535   0.799   5.546 -0.8304  0.1495 -0.5494
 5083TIP3    H136740   2.579   0.753   5.618 -0.1468  1.2062 -0.2703
 5083TIP3    H236741   2.480   0.732   5.506 -2.3271 -0.1712  1.8167
 5084TIP3   OH236742   4.860   4.108   2.057 -0.1480 -0.2889 -0.0523
 5084TIP3    H136743   4.836   4.047   2.127  0.6074 -1.3266 -0.6598
 5084TIP3    H236744   4.917   4.057   1.999  0.3961  0.9670 -0.6712
 5085TIP3   OH236745   0.759   6.449  12.423 -0.3134 -0.3006 -0.3574
 5085TIP3    H136746   0.675   6.469  12.464  0.3421  2.8441 -0.2673
 5085TIP3    H236747   0.741   6.454  12.329 -0.0700  1.4537 -0.3375
 5086TIP3   OH236748   5.146   3.394   2.513  0.4236  0.0544 -0.0364
 5086TIP3    H136749   5.130   3.308   2.474  0.0471 -0.3524  0.9950
 5086TIP3    H236750   5.090   3.396   2.591  1.3132  0.7773  0.5998
 5087TIP3   OH236751   5.022   4.901  12.587  0.0323 -1.1098  0.4274
 5087TIP3    H136752   5.029   4.925  12.495 -2.2098  1.3698  0.7743
 5087TIP3    H236753   5.012   4.806  12.587 -0.8403 -1.0616 -1.9600
 5088TIP3   OH236754   3.651   3.136  17.152  0.0322 -0.0641 -0.9150
 5088TIP3    H136755   3.653   3.205  17.219  0.8629 -0.6300 -0.3474
 5088TIP3    H236756   3.672   3.056  17.200  0.1297 -0.5500 -1.7673
 5089TIP3   OH236757   6.234   0.026   0.963 -0.1784  0.2691  0.0058
 5089TIP3    H136758   6.204  -0.061   0.991  2.5522 -0.7780 -0.0005
 5089TIP3    H236759   6.264   0.067   1.044  1.0528  0.0802 -0.3268
 5090TIP3   OH236760   4.703   1.644  11.447 -0.2344 -0.1405  0.2727
 5090TIP3    H136761   4.669   1.717  11.500  0.4670 -0.5026  1.2620
 5090TIP3    H236762   4.657   1.652  11.363  1.1606  2.5479 -0.3410
 5091TIP3   OH236763   2.271   5.775   3.423  0.4511 -0.1988 -0.4030
 5091TIP3    H136764   2.291   5.798   3.513 -1.4761 -0.6273  0.1671
 5091TIP3    H236765   2.333   5.705   3.401  0.9929 -0.0203  0.5465
 5092TIP3   OH236766   3.238   5.479  13.589  0.1587 -0.1806  0.3211
 5092TIP3    H136767   3.160   5.437  13.626  0.8430 -1.2445  0.6059
 5092TIP3    H236768   3.205   5.557  13.545 -0.9771 -0.2222  1.0646
 5093TIP3   OH236769   2.941   5.427   0.513 -0.6323 -0.2103 -0.2889
 5093TIP3    H136770   2.900   5.367   0.450  1.8820 -1.4907 -0.8529
 5093TIP3    H236771   2.930   5.383   0.597 -0.3803 -0.5726 -0.4425
 5094TIP3   OH236772   4.925   4.197   3.177 -0.1945 -0.1406 -0.6937
 5094TIP3    H136773   4.935   4.231   3.266 -1.7122 -1.0266 -0.1517
 5094TIP3    H236774   4.831   4.204   3.159 -0.1713 -1.6322 -1.5364
 5095TIP3   OH236775   5.733   4.914  16.452 -0.0528  0.9007  0.5123
 5095TIP3    H136776   5.671   4.962  16.398 -2.1166  0.1725  2.1222
 5095TIP3    H236777   5.785   4.981  16.496  0.8506  1.5067 -1.3627
 5096TIP3   OH236778   2.394   3.956  16.759  0.0054 -0.2945 -0.5064
 5096TIP3    H136779   2.377   4.028  16.820 -1.0804 -1.6163  0.8326
 5096TIP3    H236780   2.335   3.972  16.686 -1.1067 -0.4386  0.3369
 5097TIP3   OH236781   5.493   0.664  16.953  0.1024 -0.2476  0.0435
 5097TIP3    H136782   5.516   0.582  16.997 -0.8789 -0.4828  0.1568
 5097TIP3    H236783   5.576   0.698  16.921  0.8749 -0.0168  2.1419
 5098TIP3   OH236784   2.582   4.293  15.430 -0.1364  0.4631 -0.4645
 5098TIP3    H136785   2.662   4.240  15.430  0.1013  0.8073  0.0878
 5098TIP3    H236786   2.556   4.299  15.338  0.2776  0.0518 -0.6078
 5099TIP3   OH236787   6.307   2.574   1.113  0.3136 -0.2364 -0.1774
 5099TIP3    H136788   6.325   2.550   1.022 -2.1075 -1.6673 -0.3712
 5099TIP3    H236789   6.212   2.581   1.117  0.4347  0.9329  2.0067
 5100TIP3   OH236790   0.434   6.054   5.004  0.2182  0.3193  0.3118
 5100TIP3    H136791   0.449   5.973   5.053 -0.0966  0.0534 -0.0212
 5100TIP3    H236792   0.439   6.027   4.912 -1.0406  0.4543  0.1873
 5101TIP3   OH236793   5.880   3.649  12.659  0.1378 -0.0985 -0.1941
 5101TIP3    H136794   5.899   3.639  12.752 -2.3764 -1.6218  0.2653
 5101TIP3    H236795   5.952   3.604  12.615  0.4162 -0.9939  1.0988
 5102TIP3   OH236796   1.307   0.473  13.082  0.3602 -0.3529  0.8149
 5102TIP3    H136797   1.401   0.488  13.069  0.6341 -1.8981  0.7295
 5102TIP3    H236798   1.284   0.409  13.014 -0.7415 -0.0335  0.8721
 5103TIP3   OH236799   0.424   1.848   1.189 -0.7124  0.4644 -0.7456
 5103TIP3    H136800   0.415   1.874   1.097 -0.4009 -1.3100 -1.3131
 5103TIP3    H236801   0.362   1.904   1.236 -0.2093  2.0606 -1.8765
 5104TIP3   OH236802   1.954   3.096   3.143 -0.2721  0.2417  0.7090
 5104TIP3    H136803   1.960   3.011   3.099  1.1474 -0.6764  2.5462
 5104TIP3    H236804   1.865   3.126   3.125  0.1849 -0.0178 -2.7196
 5105TIP3   OH236805   1.034   5.105   5.288  0.1532 -0.0935 -0.5129
 5105TIP3    H136806   0.975   5.172   5.322  0.3406 -0.0994 -0.1691
 5105TIP3    H236807   1.009   5.025   5.334  0.7170 -0.0005 -0.0267
 5106TIP3   OH236808   6.599   6.050   1.964  0.0116  0.1376  0.3663
 5106TIP3    H136809   6.607   6.134   1.919  2.2425 -0.7000 -0.9540
 5106TIP3    H236810   6.642   6.065   2.049 -0.4930  0.5972  0.5416
 5107TIP3   OH236811   0.445   0.273  15.834 -0.3297 -0.3953 -0.7737
 5107TIP3    H136812   0.415   0.335  15.900  1.0017  0.8240 -1.2560
 5107TIP3    H236813   0.388   0.197  15.845 -2.6814  1.2443 -0.8145
 5108TIP3   OH236814   2.999   5.402   0.793  0.5105  0.2230 -0.0312
 5108TIP3    H136815   2.977   5.355   0.874 -0.3129  0.4622 -0.1046
 5108TIP3    H236816   3.061   5.345   0.749  3.0535  1.2327  1.9466
 5109TIP3   OH236817   5.236   0.183   4.117 -0.2050  0.1839  0.2289
 5109TIP3    H136818   5.156   0.156   4.071 -0.4602 -1.4756  1.5369
 5109TIP3    H236819   5.307   0.161   4.056 -0.6467  0.1146 -0.2703
 5110TIP3   OH236820   4.971   6.284   5.360  0.4208  0.1000 -0.2813
 5110TIP3    H136821   4.898   6.223   5.373  1.0108 -0.3377  1.2107
 5110TIP3    H236822   4.956   6.321   5.273 -1.0565 -0.6759 -0.3939
 5111TIP3   OH236823   1.179   2.951   2.787 -0.3499 -0.2883 -0.2551
 5111TIP3    H136824   1.238   2.881   2.815  0.9008  0.5177 -0.8147
 5111TIP3    H236825   1.147   2.989   2.869 -0.3938 -0.9724  0.0536
 5112TIP3   OH236826   3.183   3.296  13.017  0.4032 -0.0002 -0.4396
 5112TIP3    H136827   3.194   3.354  13.092 -0.2986  0.4026 -0.6437
 5112TIP3    H236828   3.096   3.317  12.982 -0.1441 -1.6075 -0.1299
 5113TIP3   OH236829   5.367   5.195   4.428 -0.3092 -0.1756  0.2289
 5113TIP3    H136830   5.424   5.179   4.503  0.0822  0.2905  0.0373
 5113TIP3    H236831   5.351   5.109   4.390  1.2859 -0.2034 -0.4487
 5114TIP3   OH236832   4.675   0.215  13.766  0.6838  0.1081  0.6409
 5114TIP3    H136833   4.720   0.197  13.683 -1.2657  0.2166 -0.4843
 5114TIP3    H236834   4.623   0.294  13.748  0.0681  0.0044  1.9127
 5115TIP3   OH236835   5.120   4.339   2.081  0.5149  0.1647  0.9472
 5115TIP3    H136836   5.084   4.377   2.161  0.5557  0.7426  0.6955
 5115TIP3    H236837   5.210   4.373   2.077  0.1571  1.0549  0.0726
 5116TIP3   OH236838   5.168   2.647   5.071  0.5776  0.3721  0.4514
 5116TIP3    H136839   5.171   2.607   4.984 -1.3475  1.7140 -0.3192
 5116TIP3    H236840   5.217   2.729   5.062 -1.6009  1.7077 -0.1601
 5117TIP3   OH236841   5.376   3.518  13.401 -0.2188  0.2511  0.3032
 5117TIP3    H136842   5.465   3.510  13.367 -0.8703 -1.1303 -1.2480
 5117TIP3    H236843   5.353   3.610  13.390  0.5866  0.3655 -0.4779
 5118TIP3   OH236844   2.470   0.998  11.921 -0.0354  0.4640  0.1862
 5118TIP3    H136845   2.458   1.055  11.845  1.1290 -1.0820 -1.2290
 5118TIP3    H236846   2.533   1.044  11.976  0.6914  0.6730 -0.7959
 5119TIP3   OH236847   6.298   5.800   0.479  0.1296  0.3437  0.8026
 5119TIP3    H136848   6.349   5.786   0.559  1.0343  1.4104  0.4425
 5119TIP3    H236849   6.296   5.715   0.436  1.3856  0.2154  0.9681
 5120TIP3   OH236850   3.440   6.654  11.529  0.2494 -0.1712 -0.0928
 5120TIP3    H136851   3.355   6.616  11.554  0.7102 -2.4609 -1.7704
 5120TIP3    H236852   3.504   6.588  11.556  1.3301  0.5980 -0.7419
 5121TIP3   OH236853   5.925   3.254   5.129 -0.4842 -0.2509 -0.3560
 5121TIP3    H136854   6.005   3.271   5.081  0.1710 -0.6622  0.5498
 5121TIP3    H236855   5.900   3.339   5.166  0.5780 -0.4395  0.8771
 5122TIP3   OH236856   5.243   0.290  17.212 -0.6870 -0.6478 -0.1452
 5122TIP3    H136857   5.167   0.344  17.232 -0.9488 -0.3651 -1.7625
 5122TIP3    H236858   5.294   0.288  17.294 -2.1570 -0.4392  0.8086
 5123TIP3   OH236859   5.117   2.494   2.258 -0.0009 -0.0571 -0.3998
 5123TIP3    H136860   5.191   2.456   2.211  0.7187 -0.3398  0.9032
 5123TIP3    H236861   5.051   2.425   2.259  0.2161 -0.2664 -0.4674
 5124TIP3   OH236862   3.230   2.375   2.988  0.1143 -0.2922 -0.0735
 5124TIP3    H136863   3.197   2.454   2.945  2.0109  0.8004  0.3356
 5124TIP3    H236864   3.177   2.366   3.067  0.4113  1.0764  0.3010
 5125TIP3   OH236865   2.743   1.499  14.351  0.2176 -0.2380  0.2131
 5125TIP3    H136866   2.801   1.566  14.387  1.2957 -1.5946  1.1112
 5125TIP3    H236867   2.656   1.521  14.386  0.4545  0.9449  0.0972
 5126TIP3   OH236868   4.541   0.138   0.816  0.0199 -0.0943  0.3562
 5126TIP3    H136869   4.550   0.043   0.814  0.9867 -0.0176  0.5249
 5126TIP3    H236870   4.460   0.154   0.865 -1.6419 -0.8747 -1.9864
 5127TIP3   OH236871   5.680   3.768   6.575  0.4597  0.5428  0.3484
 5127TIP3    H136872   5.739   3.718   6.631  0.9781 -0.2765 -0.8616
 5127TIP3    H236873   5.698   3.735   6.487 -1.9846  0.0752 -0.0555
 5128TIP3   OH236874   0.285   1.235  11.974  0.0505  0.0394  0.3313
 5128TIP3    H136875   0.195   1.265  11.986  0.4399  1.5248 -0.2998
 5128TIP3    H236876   0.339   1.302  12.016  0.9197 -0.2742 -0.2647
 5129TIP3   OH236877   1.236   0.269  11.954  0.4174  0.0301 -0.1318
 5129TIP3    H136878   1.193   0.345  11.995  1.0048  1.3077 -1.7829
 5129TIP3    H236879   1.320   0.262  12.000  0.6468  0.8272 -0.4035
 5130TIP3   OH236880   0.764   4.498  11.446  0.4379  0.5262  0.8353
 5130TIP3    H136881   0.827   4.437  11.486  0.1078  0.3776  1.1364
 5130TIP3    H236882   0.813   4.541  11.377  0.9455  0.5873  1.2266
 5131TIP3   OH236883   3.547   5.118  10.699  0.1681  0.1356  0.2502
 5131TIP3    H136884   3.599   5.111  10.619 -1.0313  1.3075 -0.6770
 5131TIP3    H236885   3.564   5.206  10.731 -1.2794  0.5798 -0.1316
 5132TIP3   OH236886   0.822   4.260  15.316  0.2454  0.5863 -0.4113
 5132TIP3    H136887   0.736   4.289  15.286 -1.1091 -2.2102  0.4308
 5132TIP3    H236888   0.884   4.295  15.251 -1.5926  1.9718 -1.4916
 5133TIP3   OH236889   6.215   4.371  16.733  0.1483  0.6730  0.3144
 5133TIP3    H136890   6.227   4.364  16.828  1.0797  0.8565  0.2121
 5133TIP3    H236891   6.302   4.362  16.697 -0.2731  0.0786 -0.5693
 5134TIP3   OH236892   2.899   2.096   0.858 -0.2598  0.4451  0.4827
 5134TIP3    H136893   2.860   2.053   0.782 -1.1940  2.1245 -0.0472
 5134TIP3    H236894   2.833   2.086   0.927 -0.7982  1.5912  0.1533
 5135TIP3   OH236895   5.507   5.208   2.206  0.4452  0.1275 -0.0852
 5135TIP3    H136896   5.445   5.278   2.186 -0.6228 -0.8095 -0.2066
 5135TIP3    H236897   5.561   5.243   2.276  0.4309  1.3381 -0.6580
 5136TIP3   OH236898   3.006   0.349   3.279 -0.0385  0.0752  0.5571
 5136TIP3    H136899   3.066   0.369   3.207  0.0343 -1.2049  0.2294
 5136TIP3    H236900   2.953   0.427   3.289 -1.3340 -0.3395 -2.1573
 5137TIP3   OH236901   2.099   0.785  16.572 -0.2807 -0.3467 -0.1561
 5137TIP3    H136902   2.034   0.798  16.641 -0.6669  0.5641 -0.6745
 5137TIP3    H236903   2.169   0.736  16.614 -0.8235 -0.4125  0.6951
 5138TIP3   OH236904   6.283   2.859   4.759  0.7306 -0.3029 -0.4895
 5138TIP3    H136905   6.262   2.820   4.674  0.7865  0.5482 -0.9089
 5138TIP3    H236906   6.289   2.953   4.741  2.3044 -0.2530  0.1257
 5139TIP3   OH236907   5.574   2.692   3.253  0.4030 -0.1634  1.0426
 5139TIP3    H136908   5.627   2.736   3.319  1.8265  1.0925 -0.8348
 5139TIP3    H236909   5.530   2.762   3.205  0.0886 -0.9620  0.1134
 5140TIP3   OH236910   0.403   6.004  15.934 -0.2937 -0.4208 -0.5226
 5140TIP3    H136911   0.321   5.959  15.912 -2.4911  3.7374 -1.8763
 5140TIP3    H236912   0.390   6.036  16.023  0.8342 -1.4494  0.0534
 5141TIP3   OH236913   5.381   5.534   1.008 -0.1347 -0.1708  0.3966
 5141TIP3    H136914   5.439   5.597   1.050 -0.2891  0.3036 -0.0947
 5141TIP3    H236915   5.427   5.450   1.018  1.6202  0.4390 -1.6577
 5142TIP3   OH236916   4.473   1.191  10.786  0.3128  0.2108 -0.0403
 5142TIP3    H136917   4.504   1.213  10.699 -0.3639 -0.6237 -0.5012
 5142TIP3    H236918   4.528   1.117  10.813  1.6445  1.4917  0.9424
 5143TIP3   OH236919   1.933   5.778  15.436 -0.2978 -0.1983 -0.2769
 5143TIP3    H136920   1.942   5.836  15.360  0.0947  1.2429  0.8222
 5143TIP3    H236921   1.888   5.832  15.501  4.3028  0.7290  2.5448
 5144TIP3   OH236922   2.224   1.252  12.541  0.7402  0.9608 -0.1166
 5144TIP3    H136923   2.218   1.173  12.595  1.7670  0.6451 -0.4422
 5144TIP3    H236924   2.198   1.323  12.600 -0.5454  0.3554  0.0707
 5145TIP3   OH236925   6.420   1.441  14.269 -0.1441  0.0657  0.2200
 5145TIP3    H136926   6.492   1.417  14.211  0.3045  0.4381  0.6150
 5145TIP3    H236927   6.436   1.533  14.290 -0.0619 -0.1780  1.2753
 5146TIP3   OH236928   2.749   4.902   5.373 -0.2887 -0.0312 -0.3374
 5146TIP3    H136929   2.832   4.886   5.327 -0.7680 -0.7538 -0.9796
 5146TIP3    H236930   2.712   4.815   5.387 -0.7582  0.2658  0.2919
 5147TIP3   OH236931   0.545   5.450  14.449  0.7893  0.5016  0.6024
 5147TIP3    H136932   0.593   5.369  14.467  0.0248 -0.5627 -1.7538
 5147TIP3    H236933   0.590   5.489  14.374 -1.8489 -0.5322 -1.6883
 5148TIP3   OH236934   6.342   0.517   5.952 -0.3398 -0.2548 -0.4430
 5148TIP3    H136935   6.345   0.591   6.012 -0.6952 -0.9807  0.5016
 5148TIP3    H236936   6.307   0.553   5.870 -2.1654  0.2915  0.5261
 5149TIP3   OH236937   3.756   2.500  14.617 -0.4073 -0.0067  0.1908
 5149TIP3    H136938   3.778   2.582  14.662 -0.1673  0.0968 -0.1104
 5149TIP3    H236939   3.823   2.438  14.645 -0.8912 -0.2537  0.8313
 5150TIP3   OH236940   5.709   6.637  12.885  0.0865 -0.0174  0.6075
 5150TIP3    H136941   5.660   6.555  12.881  1.7388 -0.9835 -0.9390
 5150TIP3    H236942   5.686   6.674  12.971 -0.8424 -1.9769  1.2621
 5151TIP3   OH236943   6.054   2.717   4.119  0.5589 -0.2188 -0.3691
 5151TIP3    H136944   5.991   2.739   4.050  1.2161  1.6172 -0.4461
 5151TIP3    H236945   6.030   2.774   4.192  2.9948  1.7064 -0.9359
 5152TIP3   OH236946   2.184   0.158   0.953  0.1106  0.4143 -0.5354
 5152TIP3    H136947   2.226   0.072   0.961 -0.6330  0.0514 -0.4741
 5152TIP3    H236948   2.257   0.219   0.946  0.7223  0.0042  1.4670
 5153TIP3   OH236949   3.747   2.474  13.346 -0.8033 -0.3873 -0.7374
 5153TIP3    H136950   3.724   2.518  13.428 -1.3759 -0.8734 -0.6280
 5153TIP3    H236951   3.684   2.507  13.282  0.1317  0.5822 -1.1820
 5154TIP3   OH236952   2.190   5.078   3.890 -0.2583  0.4962  0.7749
 5154TIP3    H136953   2.253   5.031   3.944  0.7485  1.5989  0.5962
 5154TIP3    H236954   2.235   5.158   3.864 -1.1991  0.6291 -0.5844
 5155TIP3   OH236955   5.749   5.945   3.712  0.2184  0.6414  0.4525
 5155TIP3    H136956   5.757   6.031   3.755 -0.2098  0.0969  1.6773
 5155TIP3    H236957   5.682   5.958   3.645 -0.1065  1.1790  0.8693
 5156TIP3   OH236958   3.926   3.380  13.496  0.2464 -0.1231 -0.1737
 5156TIP3    H136959   4.016   3.352  13.483  0.0666  0.0852 -2.1210
 5156TIP3    H236960   3.900   3.342  13.581  1.4341 -2.0182 -0.6164
 5157TIP3   OH236961   2.543   4.827  10.892 -0.0825 -0.0033  0.5508
 5157TIP3    H136962   2.632   4.791  10.886 -0.2076 -0.0849 -1.5109
 5157TIP3    H236963   2.491   4.774  10.833 -0.9290  1.6482 -0.2686
 5158TIP3   OH236964   2.127   4.670  15.969  0.2623  0.1618 -0.3079
 5158TIP3    H136965   2.074   4.593  15.985 -0.2242  0.2339 -1.4996
 5158TIP3    H236966   2.114   4.690  15.876 -0.0042  1.9566  0.0834
 5159TIP3   OH236967   6.336   5.670   4.893 -0.0708  0.1120  0.2052
 5159TIP3    H136968   6.431   5.659   4.893  0.0822  1.2858 -0.4538
 5159TIP3    H236969   6.302   5.588   4.856  0.8116  0.4786 -1.5201
 5160TIP3   OH236970   3.921   4.878   3.299  0.1145  0.6412  0.4463
 5160TIP3    H136971   3.827   4.861   3.303  0.4901 -1.5718  1.9544
 5160TIP3    H236972   3.930   4.952   3.239 -2.4076 -0.4159 -1.4220
 5161TIP3   OH236973   3.111   2.034  15.855 -0.1862  0.0677  0.3399
 5161TIP3    H136974   3.125   2.042  15.950 -2.2603  0.6993  0.6323
 5161TIP3    H236975   3.052   1.959  15.846 -1.6891  1.2821 -0.2503
 5162TIP3   OH236976   0.831   5.920   1.313 -0.6276 -0.1372  0.2432
 5162TIP3    H136977   0.912   5.888   1.274 -1.1529 -1.1458 -0.0453
 5162TIP3    H236978   0.826   6.012   1.285  0.7636  0.1649  0.8784
 5163TIP3   OH236979   2.700   5.987  14.202  0.4811  0.6129  0.3155
 5163TIP3    H136980   2.779   5.940  14.228 -0.4403 -1.9293 -1.0504
 5163TIP3    H236981   2.671   5.942  14.123 -2.9945  0.5641  1.4440
 5164TIP3   OH236982   2.261   6.477   3.422  1.3157 -0.2918 -0.2269
 5164TIP3    H136983   2.194   6.541   3.442  2.2342  1.4429 -2.3424
 5164TIP3    H236984   2.267   6.423   3.501 -1.7352  0.1597  0.4172
 5165TIP3   OH236985   3.506   4.983   1.691  0.5720  0.1085  0.6462
 5165TIP3    H136986   3.553   4.904   1.667  0.6520 -0.1459  1.5737
 5165TIP3    H236987   3.417   4.969   1.657  1.2483  0.8129 -1.5496
 5166TIP3   OH236988   6.483   3.407  16.327 -0.5563 -0.2053  0.3294
 5166TIP3    H136989   6.519   3.495  16.322 -0.9102 -0.0497  0.5447
 5166TIP3    H236990   6.396   3.418  16.364  0.6864 -0.9794  3.8275
 5167TIP3   OH236991   4.328   4.042   3.468  0.4270  0.5053 -0.4671
 5167TIP3    H136992   4.294   4.121   3.509 -0.6534  0.8023 -1.8594
 5167TIP3    H236993   4.281   3.971   3.511 -0.2749  0.7805 -0.7527
 5168TIP3   OH236994   5.576   0.279  15.373  0.3587 -0.3727 -0.6451
 5168TIP3    H136995   5.640   0.212  15.348  1.0229  0.4609 -1.2433
 5168TIP3    H236996   5.621   0.329  15.442 -0.8749 -1.7137  1.2306
 5169TIP3   OH236997   4.696   1.398   3.208 -0.0256  0.1455  0.2233
 5169TIP3    H136998   4.722   1.487   3.182  0.1972  0.1980  0.6178
 5169TIP3    H236999   4.635   1.412   3.281 -2.2144  0.0871 -1.5004
 5170TIP3   OH237000   1.273   5.416  14.667 -0.1545  0.3479 -0.2302
 5170TIP3    H137001   1.206   5.357  14.701 -1.6285  0.3350 -2.9364
 5170TIP3    H237002   1.327   5.361  14.610  1.2213  0.7254  0.6450
 5171TIP3   OH237003   3.318   1.505   2.008 -0.0181 -0.3182 -0.2520
 5171TIP3    H137004   3.397   1.453   1.991 -0.5723 -1.8845  1.5381
 5171TIP3    H237005   3.279   1.463   2.085 -0.4382  2.8654  1.4375
 5172TIP3   OH237006   4.104   2.927   5.715 -0.2378 -0.0215  0.8428
 5172TIP3    H137007   4.126   2.839   5.686  1.4896  0.2988  1.0641
 5172TIP3    H237008   4.180   2.956   5.765 -0.2602  2.0388 -0.1970
 5173TIP3   OH237009   0.718   2.463   2.056  0.3592  0.0199 -0.1428
 5173TIP3    H137010   0.798   2.425   2.092 -0.9403 -1.9388  0.8667
 5173TIP3    H237011   0.727   2.455   1.961  0.9842 -1.0034 -0.0028
 5174TIP3   OH237012   4.644   1.623   2.478 -0.0947  0.2198 -0.5029
 5174TIP3    H137013   4.668   1.552   2.538 -0.0072  0.4184 -0.3003
 5174TIP3    H237014   4.580   1.585   2.418  2.1747 -0.9426 -2.3478
 5175TIP3   OH237015   3.884   0.830  16.285  0.7434 -0.3297  0.0244
 5175TIP3    H137016   3.933   0.886  16.225  0.2202 -1.6041 -1.6709
 5175TIP3    H237017   3.889   0.875  16.370  0.3462  2.2728 -1.2250
 5176TIP3   OH237018   0.344   3.524   2.361  0.1711  0.5611  0.0612
 5176TIP3    H137019   0.257   3.516   2.400  0.6451  0.5935  1.1594
 5176TIP3    H237020   0.343   3.608   2.315 -0.6622  0.1478 -0.7082
 5177TIP3   OH237021   0.538   5.887   0.765 -0.0024 -0.0644  0.2069
 5177TIP3    H137022   0.603   5.954   0.743 -0.3096  0.7989  1.7480
 5177TIP3    H237023   0.584   5.829   0.826  0.4896 -1.7427 -1.6634
 5178TIP3   OH237024   3.145   5.594  11.831  0.0693 -0.2154  0.4006
 5178TIP3    H137025   3.190   5.526  11.882  0.2293 -0.3470  0.0889
 5178TIP3    H237026   3.195   5.673  11.848 -0.7463  0.0646  1.6125
 5179TIP3   OH237027   0.156   5.588  12.305  0.1618 -0.4911 -0.3330
 5179TIP3    H137028   0.125   5.592  12.396  0.2451  1.3931 -0.3588
 5179TIP3    H237029   0.182   5.496  12.293 -0.4797 -0.9231  1.3275
 5180TIP3   OH237030   0.562   4.483  15.014 -0.0331 -0.1130  0.0387
 5180TIP3    H137031   0.524   4.504  14.928 -3.2627  0.5158  1.4728
 5180TIP3    H237032   0.605   4.398  15.000  0.1488  0.2879 -2.3370
 5181TIP3   OH237033   1.088   4.477   2.590 -0.0923 -0.4506 -0.2713
 5181TIP3    H137034   1.047   4.517   2.513 -1.0853 -1.5750 -0.3679
 5181TIP3    H237035   1.021   4.484   2.658  0.0128 -1.2120 -0.0775
 5182TIP3   OH237036   4.618   4.582   3.511  0.0831  0.4249 -0.0650
 5182TIP3    H137037   4.676   4.506   3.507 -0.0760  0.2742  0.4631
 5182TIP3    H237038   4.596   4.592   3.604 -1.5657 -0.1528 -0.3659
 5183TIP3   OH237039   4.210   1.053  14.550 -0.2747 -0.3897  0.5048
 5183TIP3    H137040   4.275   1.008  14.604 -0.0817  0.2915  0.8617
 5183TIP3    H237041   4.181   0.988  14.487  1.2413 -0.5153 -0.0901
 5184TIP3   OH237042   0.917   3.574  12.462  0.0649  0.0444 -0.1730
 5184TIP3    H137043   0.922   3.522  12.382 -1.2842 -0.5646  0.1203
 5184TIP3    H237044   0.963   3.522  12.527  0.3762  0.1200 -0.3292
 5185TIP3   OH237045   3.441   3.505  13.496  0.3752  0.2565 -0.2156
 5185TIP3    H137046   3.389   3.425  13.495 -0.3732  0.7291  0.1556
 5185TIP3    H237047   3.526   3.479  13.459  0.6719 -1.0607  1.2684
 5186TIP3   OH237048   2.154   4.884  12.553 -0.2606  0.4768 -0.1041
 5186TIP3    H137049   2.222   4.952  12.559 -0.1566  0.2625  1.3457
 5186TIP3    H237050   2.079   4.920  12.600 -0.8223  0.2846 -0.8244
 5187TIP3   OH237051   6.620   2.714   5.214  0.2287 -0.0532 -0.7417
 5187TIP3    H137052   6.643   2.738   5.125 -1.5061  2.4434 -0.6142
 5187TIP3    H237053   6.532   2.749   5.226  0.6068  0.1354  2.1192
 5188TIP3   OH237054   6.686   3.318  16.826 -0.2626  0.5296 -0.4993
 5188TIP3    H137055   6.740   3.241  16.806  0.5889  0.9221  0.1815
 5188TIP3    H237056   6.747   3.392  16.817 -0.2117  0.8544  1.9300
 5189TIP3   OH237057   4.349   5.878   3.592  0.0251 -0.0738  0.2139
 5189TIP3    H137058   4.295   5.809   3.553 -0.6614 -0.5414  1.8665
 5189TIP3    H237059   4.387   5.836   3.670  0.0291  1.2541  0.9529
 5190TIP3   OH237060   2.886   0.188  12.325  0.7809 -0.0424 -0.4948
 5190TIP3    H137061   2.868   0.273  12.284  1.5455 -0.4196 -1.6575
 5190TIP3    H237062   2.800   0.148  12.338  0.4814  0.4790 -0.8744
 5191TIP3   OH237063   0.212   0.350   2.739  0.3060 -0.0498 -0.5555
 5191TIP3    H137064   0.296   0.331   2.781  0.0798  1.5611  0.7149
 5191TIP3    H237065   0.197   0.275   2.682  2.1940 -0.7810 -0.1780
 5192TIP3   OH237066   4.245   4.455  12.884  0.1772 -0.0987  0.4271
 5192TIP3    H137067   4.181   4.387  12.908  1.3411 -0.3256  3.2537
 5192TIP3    H237068   4.201   4.537  12.903  0.3937 -0.2258  1.5041
 5193TIP3   OH237069   2.239   6.297  17.249  0.2251  1.0455  0.2300
 5193TIP3    H137070   2.297   6.367  17.219  1.2119 -0.0020 -0.3869
 5193TIP3    H237071   2.296   6.221  17.257 -1.0862 -0.0618 -0.5208
 5194TIP3   OH237072   4.597   0.947   1.779 -1.2600  0.4084  0.3855
 5194TIP3    H137073   4.561   0.874   1.831 -1.4316  0.1991 -0.0167
 5194TIP3    H237074   4.537   0.954   1.704  0.2679 -0.8215 -1.0138
 5195TIP3   OH237075   5.604   4.703  16.586 -0.2076  0.9023 -0.0277
 5195TIP3    H137076   5.634   4.733  16.672 -1.0535  0.0007  0.6042
 5195TIP3    H237077   5.634   4.771  16.525 -0.4598  2.0872  1.1119
 5196TIP3   OH237078   1.197   1.575  17.055 -0.2659  0.3939  0.2077
 5196TIP3    H137079   1.125   1.514  17.065 -0.1616  0.2603  0.1378
 5196TIP3    H237080   1.218   1.602  17.145 -0.1103  0.0930  0.2642
 5197TIP3   OH237081   6.105   2.069   5.890  0.0909 -0.1684  0.4018
 5197TIP3    H137082   6.166   2.065   5.963 -0.1344 -1.7553  0.5349
 5197TIP3    H237083   6.118   2.156   5.853  2.1326 -0.3195  0.6644
 5198TIP3   OH237084   4.814   5.766   3.502 -0.4645  0.0986  0.0711
 5198TIP3    H137085   4.883   5.737   3.562 -0.2931  0.1398 -0.1060
 5198TIP3    H237086   4.769   5.685   3.477  0.1424 -0.0440 -0.5837
 5199TIP3   OH237087   5.950   3.022  13.256 -0.5745  0.2323  0.1704
 5199TIP3    H137088   6.020   3.064  13.306 -1.5935  0.6739  1.2578
 5199TIP3    H237089   5.886   3.092  13.241 -1.4873 -0.5163  0.5031
 5200TIP3   OH237090   6.167   1.242   5.479  0.1686  0.4193  0.4635
 5200TIP3    H137091   6.138   1.151   5.482  1.0161  0.0480 -1.3466
 5200TIP3    H237092   6.095   1.292   5.518  0.6634 -1.1932  3.7835
 5201TIP3   OH237093   4.648   0.566  15.159 -0.0774  0.2435  0.2324
 5201TIP3    H137094   4.741   0.556  15.142 -0.0935  1.1343 -0.4621
 5201TIP3    H237095   4.640   0.651  15.203 -0.2923 -1.0151  2.8378
 5202TIP3   OH237096   6.561   1.138   1.527 -0.1230  0.2460 -0.9238
 5202TIP3    H137097   6.521   1.222   1.505 -1.4446 -0.3425 -0.8657
 5202TIP3    H237098   6.630   1.159   1.589 -1.6230  1.1499  0.5258
 5203TIP3   OH237099   0.970   2.747   4.213  0.1151 -0.6403 -0.2582
 5203TIP3    H137100   0.876   2.766   4.216  0.2463 -0.0008 -0.1533
 5203TIP3    H237101   0.978   2.678   4.147 -0.5113 -1.2354  0.2730
 5204TIP3   OH237102   1.263   5.826  14.836  0.1618 -0.0633 -0.0104
 5204TIP3    H137103   1.200   5.784  14.777 -2.3628  1.6524  1.2709
 5204TIP3    H237104   1.263   5.770  14.914 -0.4629  0.3895  0.3204
 5205TIP3   OH237105   3.173   3.408   5.442  0.1913 -0.5359  0.0451
 5205TIP3    H137106   3.210   3.358   5.515 -0.9575 -0.0002  1.0353
 5205TIP3    H237107   3.175   3.347   5.368 -0.3592 -1.7673  1.0034
 5206TIP3   OH237108   1.052   4.720   0.172  0.1351 -0.1188 -0.2304
 5206TIP3    H137109   1.044   4.777   0.248  1.5418  1.4913 -1.2020
 5206TIP3    H237110   0.986   4.752   0.111 -0.8111 -1.2346  0.1773
 5207TIP3   OH237111   0.373   6.577   0.123 -0.1144  0.0853 -0.0079
 5207TIP3    H137112   0.444   6.555   0.062  1.1034  1.2606  0.9300
 5207TIP3    H237113   0.368   6.672   0.120 -0.5131  0.1137  1.2027
 5208TIP3   OH237114   2.550   2.966   2.645 -0.3455 -0.1658 -0.3776
 5208TIP3    H137115   2.472   3.014   2.620  0.1825 -0.2679 -2.3651
 5208TIP3    H237116   2.611   3.033   2.677 -1.4389 -0.1647  1.9044
 5209TIP3   OH237117   5.869   6.208  15.198  0.3411 -0.6407 -0.1111
 5209TIP3    H137118   5.838   6.288  15.240 -0.3058 -0.6144 -0.6132
 5209TIP3    H237119   5.957   6.196  15.231  1.2380  1.3793 -1.5382
 5210TIP3   OH237120   4.081   5.651   4.627  0.2319  0.2775  0.8308
 5210TIP3    H137121   4.011   5.693   4.577  0.8214  0.5100  0.1868
 5210TIP3    H237122   4.107   5.576   4.574  2.6499  1.9652 -0.6042
 5211TIP3   OH237123   1.978   2.307  11.163  0.4073  0.3374  0.6775
 5211TIP3    H137124   2.042   2.343  11.103  0.8711  0.3855  1.1892
 5211TIP3    H237125   1.912   2.376  11.172  0.0901  0.1407 -0.1370
 5212TIP3   OH237126   0.102   2.929  16.412 -0.4661 -0.0167 -0.0292
 5212TIP3    H137127   0.101   3.004  16.472 -0.6422 -1.2533  1.5754
 5212TIP3    H237128   0.161   2.956  16.342  2.3087  0.3458  2.2667
 5213TIP3   OH237129   4.569   0.938  14.226 -0.6603  0.0500 -0.5225
 5213TIP3    H137130   4.616   0.928  14.143  0.7465  0.4450  0.1874
 5213TIP3    H237131   4.597   0.863  14.279 -2.5245 -0.8957 -0.8208
 5214TIP3   OH237132   1.731   0.703   3.001 -0.1081  0.0788 -0.4132
 5214TIP3    H137133   1.645   0.737   2.976  1.0304  3.4883 -0.1972
 5214TIP3    H237134   1.719   0.670   3.090 -1.7208 -2.1356 -1.3340
 5215TIP3   OH237135   2.747   6.714  12.536 -0.4330  0.0995 -0.3917
 5215TIP3    H137136   2.732   6.688  12.626 -1.2359  0.9017 -0.2766
 5215TIP3    H237137   2.695   6.794  12.525 -0.0160  0.2468 -1.4369
 5216TIP3   OH237138   3.704   6.091   3.548  0.4192  0.3219 -0.1436
 5216TIP3    H137139   3.660   6.099   3.463  1.5984  0.6828 -0.7460
 5216TIP3    H237140   3.711   6.181   3.580  1.4249  0.3678 -0.4475
 5217TIP3   OH237141   3.880   4.090   3.259  0.0541  0.1041  0.2262
 5217TIP3    H137142   3.798   4.106   3.211 -0.3686  0.7916  1.1342
 5217TIP3    H237143   3.893   3.996   3.253  1.4705  0.3475 -3.5182
 5218TIP3   OH237144   6.805   2.805   3.388 -0.7187  0.1307 -0.1168
 5218TIP3    H137145   6.803   2.836   3.298 -0.5975  0.0591 -0.1450
 5218TIP3    H237146   6.807   2.884   3.441 -1.4412  0.1814 -0.1562
 5219TIP3   OH237147   1.396   6.192   3.774  0.4591 -0.6048  0.2215
 5219TIP3    H137148   1.363   6.138   3.846  0.6183 -1.7748 -0.5611
 5219TIP3    H237149   1.474   6.146   3.743  0.8236  0.2836 -0.2165
 5220TIP3   OH237150   2.657   6.723   3.824 -0.7516  0.4165  0.2657
 5220TIP3    H137151   2.670   6.799   3.881 -0.3837  0.9381 -0.4993
 5220TIP3    H237152   2.716   6.738   3.751  0.7120 -1.5173  0.9656
 5221TIP3   OH237153   4.915   3.252  14.168  0.5678 -0.5341 -0.5964
 5221TIP3    H137154   4.950   3.307  14.239  0.4224  0.0608 -0.9787
 5221TIP3    H237155   4.831   3.292  14.146  0.0339 -1.4526 -0.2713
 5222TIP3   OH237156   3.697   5.581   2.671  0.2549 -0.2091  0.1034
 5222TIP3    H137157   3.775   5.631   2.695  0.0208  0.0810  0.2606
 5222TIP3    H237158   3.624   5.633   2.703 -0.3149  1.9076 -4.0419
 5223TIP3   OH237159   4.867   0.077  13.486 -0.1389 -0.1052  0.1497
 5223TIP3    H137160   4.946   0.044  13.442 -0.1845 -0.3028  0.2189
 5223TIP3    H237161   4.803   0.007  13.476 -0.6935  0.5398 -0.9737
 5224TIP3   OH237162   1.049   5.175   2.985  0.2159  0.1275 -0.7815
 5224TIP3    H137163   1.133   5.207   3.018  0.6567 -0.3149 -1.4573
 5224TIP3    H237164   1.065   5.083   2.966 -0.8576 -0.3548  0.5239
 5225TIP3   OH237165   5.354   6.516  16.196 -1.1060 -0.1480  0.6897
 5225TIP3    H137166   5.446   6.489  16.196 -1.0940 -0.3685 -2.1705
 5225TIP3    H237167   5.309   6.446  16.149 -1.9667  2.1058 -2.0751
 5226TIP3   OH237168   3.467   1.403   5.631 -0.0286  0.1006  0.0750
 5226TIP3    H137169   3.543   1.380   5.685  0.1781  0.0563 -0.2264
 5226TIP3    H237170   3.397   1.421   5.693 -0.1822 -1.2728  0.3171
 5227TIP3   OH237171   4.706   0.100  15.699  0.3272 -0.1877 -0.2017
 5227TIP3    H137172   4.654   0.080  15.621 -1.3297  0.9709  0.5579
 5227TIP3    H237173   4.771   0.163  15.669  0.3349 -0.5051 -0.8589
 5228TIP3   OH237174   5.976   0.765  16.472 -0.4770  0.2060 -0.3872
 5228TIP3    H137175   6.037   0.700  16.437  0.6997  1.5082 -0.8363
 5228TIP3    H237176   5.994   0.845  16.422  0.1928  1.7143  2.0927
 5229TIP3   OH237177   0.778   5.533   2.328 -0.4518 -0.4427 -0.0722
 5229TIP3    H137178   0.799   5.521   2.421  1.5774  0.0040 -0.4223
 5229TIP3    H237179   0.849   5.588   2.295 -1.3319 -0.3007 -1.8240
 5230TIP3   OH237180   2.431   4.447   5.406  0.1367  0.0716 -1.1314
 5230TIP3    H137181   2.517   4.439   5.364  0.9869 -0.1966  0.5571
 5230TIP3    H237182   2.408   4.358   5.432  0.5118  0.4203  0.5415
 5231TIP3   OH237183   6.031   1.700  15.135 -0.3807 -0.3465  0.1886
 5231TIP3    H137184   6.085   1.779  15.129  0.7145 -1.0175  1.0263
 5231TIP3    H237185   6.093   1.629  15.151 -1.2201 -1.5848 -1.6846
 5232TIP3   OH237186   1.354   6.345  17.041  0.1803  0.4679  0.0550
 5232TIP3    H137187   1.277   6.401  17.053  0.6820  1.5310 -1.4962
 5232TIP3    H237188   1.319   6.263  17.006 -0.4802  0.0058  1.6888
 5233TIP3   OH237189   5.916   6.773   0.230  0.1978  0.6326 -0.3774
 5233TIP3    H137190   5.843   6.833   0.244 -1.5988 -1.4313 -0.3405
 5233TIP3    H237191   5.877   6.686   0.236  3.0125 -0.6696  1.8025
 5234TIP3   OH237192   3.324   2.760  14.007  0.7468  0.3359 -0.0267
 5234TIP3    H137193   3.278   2.843  14.018  1.6287  0.8476 -0.0962
 5234TIP3    H237194   3.302   2.710  14.086  0.1694  0.6042 -0.0101
 5235TIP3   OH237195   3.853   4.872  13.946 -0.4316 -0.1218  0.0435
 5235TIP3    H137196   3.935   4.908  13.981 -0.1357  0.5573 -1.3023
 5235TIP3    H237197   3.811   4.831  14.022 -1.1057  3.5794  1.8959
 5236TIP3   OH237198   0.755   5.912  11.365  0.3967 -0.2468 -0.0286
 5236TIP3    H137199   0.700   5.839  11.395  0.7164 -0.1361  0.8494
 5236TIP3    H237200   0.819   5.871  11.306 -0.2380 -0.4657 -0.5759
 5237TIP3   OH237201   5.873   6.431  16.279  0.3316  0.4112 -0.0649
 5237TIP3    H137202   5.961   6.469  16.284  0.7892 -0.6384 -0.0046
 5237TIP3    H237203   5.860   6.389  16.364 -0.3140  0.7205  0.0010
 5238TIP3   OH237204   4.559   0.751  10.645  0.1338  0.1298  0.0018
 5238TIP3    H137205   4.512   0.832  10.626  0.2817 -0.0450 -1.2003
 5238TIP3    H237206   4.630   0.778  10.704 -0.4417  0.6826  0.4531
 5239TIP3   OH237207   1.258   4.006   3.601  0.4490  0.4312  0.5235
 5239TIP3    H137208   1.320   4.022   3.529 -0.3214 -0.9000 -0.4835
 5239TIP3    H237209   1.212   4.090   3.611 -0.3919  0.2750 -1.5192
 5240TIP3   OH237210   0.291   5.387   5.166 -0.0278  0.7392 -0.2793
 5240TIP3    H137211   0.301   5.320   5.098  0.8480 -0.9143  1.3981
 5240TIP3    H237212   0.342   5.462   5.134 -0.2489  0.2894 -1.7596
 5241TIP3   OH237213   6.649   6.555   0.260 -0.1076  0.1876  0.3145
 5241TIP3    H137214   6.740   6.565   0.289 -0.0024 -0.2613  0.1613
 5241TIP3    H237215   6.599   6.542   0.340 -0.2190  1.6084  0.4986
 5242TIP3   OH237216   1.295   3.766  12.109 -0.4170 -0.5999  0.5127
 5242TIP3    H137217   1.297   3.821  12.030 -0.0999  0.3905  1.1848
 5242TIP3    H237218   1.386   3.765  12.139 -0.0896 -2.8923 -0.3886
 5243TIP3   OH237219   3.953   5.126   3.189  0.4251  0.0484  0.4117
 5243TIP3    H137220   3.901   5.206   3.196  0.3731 -0.0534  1.4923
 5243TIP3    H237221   4.037   5.154   3.153  1.3105  1.0570  2.9886
 5244TIP3   OH237222   4.858   1.931  12.925  0.3942 -0.2534  0.1086
 5244TIP3    H137223   4.904   1.970  12.850 -0.1039 -0.3446 -0.2454
 5244TIP3    H237224   4.804   1.862  12.887  0.8005 -0.8933  0.6585
 5245TIP3   OH237225   2.638   5.811   2.330  0.2802 -0.4751 -0.3432
 5245TIP3    H137226   2.613   5.764   2.409 -2.6098 -1.1642 -1.5517
 5245TIP3    H237227   2.588   5.893   2.333  4.3714  2.2833  1.1598
 5246TIP3   OH237228   5.643   4.305   2.312  0.1188  0.3147 -0.8995
 5246TIP3    H137229   5.727   4.278   2.350 -0.5627 -2.2604 -1.0683
 5246TIP3    H237230   5.580   4.240   2.343 -1.9860  2.4365 -0.3764
 5247TIP3   OH237231   6.420   2.726  10.273  0.0219 -0.0011  0.5206
 5247TIP3    H137232   6.364   2.732  10.195  1.4883 -2.7223 -0.9171
 5247TIP3    H237233   6.402   2.638  10.308  0.8449  0.4368  2.1084
 5248TIP3   OH237234   2.959   6.002  16.939 -0.2376  0.3727 -0.2091
 5248TIP3    H137235   3.055   6.006  16.939 -0.2623  1.3205 -1.3191
 5248TIP3    H237236   2.931   6.091  16.918 -1.3658  0.0881  0.0227
 5249TIP3   OH237237   1.606   0.306  12.287 -0.6582 -0.1615 -0.0143
 5249TIP3    H137238   1.693   0.324  12.251 -0.2405 -0.3565  0.8670
 5249TIP3    H237239   1.555   0.275  12.212 -0.2326  0.7988 -0.7223
 5250TIP3   OH237240   1.963   1.028   2.491  0.3122 -0.0426 -0.3476
 5250TIP3    H137241   1.912   1.010   2.570  1.7057 -0.2283  0.5353
 5250TIP3    H237242   1.928   0.967   2.426  0.0877 -0.8674  0.5207
 5251TIP3   OH237243   1.653   0.471  13.949 -0.3540 -0.0491  0.9400
 5251TIP3    H137244   1.565   0.476  13.987 -0.5700  0.3328  0.4158
 5251TIP3    H237245   1.638   0.439  13.860 -0.0632  0.8449  0.5530
 5252TIP3   OH237246   4.499   0.103   1.863 -0.5290  0.0683  0.3825
 5252TIP3    H137247   4.492   0.086   1.957 -1.7126  0.7476  0.4404
 5252TIP3    H237248   4.467   0.193   1.853  0.5075  0.3615 -0.5586
 5253TIP3   OH237249   6.515   4.645  15.533 -0.6722 -0.2871 -0.1855
 5253TIP3    H137250   6.590   4.674  15.585  0.2696 -0.0575 -1.6143
 5253TIP3    H237251   6.448   4.621  15.598  1.0734 -1.7571  1.1655
 5254TIP3   OH237252   4.768   4.177  16.812  0.0049 -0.1074 -0.4132
 5254TIP3    H137253   4.835   4.108  16.809  0.9538  0.8059 -1.0829
 5254TIP3    H237254   4.794   4.232  16.886 -0.1210  0.1464 -0.5588
 5255TIP3   OH237255   2.305   5.110   1.751  0.4937 -0.2325  0.4234
 5255TIP3    H137256   2.266   5.027   1.778 -0.9724  0.4387  0.4354
 5255TIP3    H237257   2.379   5.084   1.695  0.6265 -1.5448  1.1704
 5256TIP3   OH237258   1.642   5.643   5.247 -0.0722 -0.7609 -0.7550
 5256TIP3    H137259   1.622   5.642   5.341  0.7118 -0.4158 -0.5689
 5256TIP3    H237260   1.731   5.608   5.242 -0.3894 -1.4726 -1.4531
 5257TIP3   OH237261   5.731   4.269  12.519  0.0252 -0.4803  0.5767
 5257TIP3    H137262   5.721   4.204  12.588  1.8764 -0.3559  1.0114
 5257TIP3    H237263   5.684   4.232  12.444 -0.7944 -1.2768  1.4598
 5258TIP3   OH237264   3.840   4.231  13.347 -0.0277  0.3863  0.1511
 5258TIP3    H137265   3.912   4.295  13.349 -1.9894  2.7824 -0.4676
 5258TIP3    H237266   3.878   4.151  13.383  2.7494  1.7099  0.4610
 5259TIP3   OH237267   0.125   2.403  13.492  0.0545 -0.2563  0.6598
 5259TIP3    H137268   0.097   2.469  13.427 -0.7130 -0.4811  0.7507
 5259TIP3    H237269   0.218   2.390  13.474  0.3041  1.0876  0.8430
 5260TIP3   OH237270   5.806   1.711   2.585 -0.0137 -0.0742  0.1407
 5260TIP3    H137271   5.891   1.745   2.612  0.0546 -1.3311  1.6661
 5260TIP3    H237272   5.751   1.719   2.663 -1.0713 -0.0262 -0.5859
 5261TIP3   OH237273   1.943   0.334   4.419 -0.4953  0.2393  0.9943
 5261TIP3    H137274   1.947   0.240   4.437 -0.5202  0.0214 -0.0815
 5261TIP3    H237275   1.992   0.374   4.491  0.2704 -0.6542  0.9880
 5262TIP3   OH237276   2.619   2.206  15.426  0.2835 -0.4779  0.4199
 5262TIP3    H137277   2.554   2.213  15.355  0.1564  1.0445  0.6536
 5262TIP3    H237278   2.702   2.189  15.381 -0.0522 -1.1583  0.0333
 5263TIP3   OH237279   3.511   0.530  13.669  0.0412  0.1144  0.1770
 5263TIP3    H137280   3.480   0.439  13.670 -0.7122  0.3559 -0.4091
 5263TIP3    H237281   3.552   0.540  13.583 -1.4440  0.8243 -0.4812
 5264TIP3   OH237282   2.564   5.090   4.334 -0.3589 -0.0296 -0.1944
 5264TIP3    H137283   2.632   5.106   4.269  1.1220 -2.1319  0.7125
 5264TIP3    H237284   2.599   5.127   4.415 -1.2371  0.7027 -0.1435
 5265TIP3   OH237285   0.925   4.073  14.584  0.8334  0.3743  0.3064
 5265TIP3    H137286   1.017   4.072  14.610  0.7948  1.4461  0.5396
 5265TIP3    H237287   0.922   4.135  14.511  0.2417  0.6115  0.5278
 5266TIP3   OH237288   6.322   0.229   3.788 -0.2617 -0.0754  0.0605
 5266TIP3    H137289   6.292   0.318   3.805 -0.2143 -0.2515  1.1567
 5266TIP3    H237290   6.369   0.204   3.868  1.6870 -0.2705 -1.0864
 5267TIP3   OH237291   5.144   2.117  13.517 -0.4117  0.2058 -0.2647
 5267TIP3    H137292   5.052   2.099  13.498 -0.6022  0.1657  0.6558
 5267TIP3    H237293   5.190   2.095  13.436 -1.1805 -0.0132 -0.6495
 5268TIP3   OH237294   2.951   3.380   1.909  0.6797 -0.0247  0.6104
 5268TIP3    H137295   2.971   3.364   2.001  0.4369  1.1759  0.8882
 5268TIP3    H237296   2.856   3.380   1.904  0.6097 -3.1961 -0.2525
 5269TIP3   OH237297   4.700   5.845  14.891  0.0736  0.5750  0.1099
 5269TIP3    H137298   4.794   5.864  14.900  0.2544 -0.3090  0.2282
 5269TIP3    H237299   4.689   5.761  14.937 -0.1048 -1.0850 -2.7156
 5270TIP3   OH237300   3.824   1.090   3.512  0.0761 -0.0485 -0.0308
 5270TIP3    H137301   3.835   0.996   3.526  2.2998 -0.1130 -1.5952
 5270TIP3    H237302   3.812   1.098   3.417 -0.0423  1.2364  0.0825
 5271TIP3   OH237303   3.166   1.496   4.367  0.9450  0.2595  0.0140
 5271TIP3    H137304   3.262   1.489   4.368  1.0900  1.3235 -1.5271
 5271TIP3    H237305   3.144   1.491   4.274 -0.7230 -2.2443  0.4825
 5272TIP3   OH237306   1.242   2.672   5.249 -0.5953 -0.0886  0.0851
 5272TIP3    H137307   1.200   2.716   5.323  0.8822  0.3128  0.7223
 5272TIP3    H237308   1.258   2.583   5.281  0.2006  0.1333  0.3457
 5273TIP3   OH237309   3.771   0.998  17.182 -0.2278 -0.0441  0.0004
 5273TIP3    H137310   3.800   0.954  17.261  1.7216  0.2110 -0.5213
 5273TIP3    H237311   3.789   1.091  17.198  2.8504 -0.2203 -1.6976
 5274TIP3   OH237312   0.983   0.912  16.549  0.2049  0.1763 -0.0599
 5274TIP3    H137313   1.061   0.889  16.599 -0.4166 -0.8642  0.4747
 5274TIP3    H237314   1.008   0.990  16.500  0.6566  1.6905  2.3773
 5275TIP3   OH237315   6.493   0.303   4.888 -0.9750 -0.2869  0.1491
 5275TIP3    H137316   6.581   0.279   4.916 -0.4502  1.0633 -0.2610
 5275TIP3    H237317   6.435   0.254   4.946  0.0346 -1.1750  0.4488
 5276TIP3   OH237318   4.274   2.535  13.948  0.6305 -0.0653 -0.2827
 5276TIP3    H137319   4.346   2.585  13.911  2.0369 -2.4224 -0.9086
 5276TIP3    H237320   4.316   2.466  13.999 -1.2260 -0.4156  0.8771
 5277TIP3   OH237321   5.784   2.772  13.969 -0.6390 -0.2418 -0.3028
 5277TIP3    H137322   5.821   2.702  14.023  0.3553  1.8481  1.8879
 5277TIP3    H237323   5.689   2.762  13.979 -0.4896  0.0290  1.8448
 5278TIP3   OH237324   5.601   2.321   3.365  0.1195 -0.0653  0.0584
 5278TIP3    H137325   5.521   2.307   3.415  0.5797  0.3476  0.9284
 5278TIP3    H237326   5.671   2.289   3.421  0.7980  1.8675  0.3901
 5279TIP3   OH237327   2.649   4.523   4.766 -0.0569 -0.1994 -0.1582
 5279TIP3    H137328   2.650   4.528   4.671 -1.8016  3.1420 -0.1644
 5279TIP3    H237329   2.563   4.485   4.787 -0.3473  0.5497  0.0481
 5280TIP3   OH237330   4.762   3.570  13.966 -0.2851 -0.9064  0.2475
 5280TIP3    H137331   4.701   3.514  14.014 -0.6863 -0.4106  0.3220
 5280TIP3    H237332   4.709   3.645  13.938  0.2964 -0.4550  0.3419
 5281TIP3   OH237333   3.417   4.158   2.539  0.1771 -0.6047 -0.1466
 5281TIP3    H137334   3.474   4.192   2.609  1.1907 -0.9757 -0.7652
 5281TIP3    H237335   3.354   4.228   2.523  1.1339  0.2761 -0.1778
 5282TIP3   OH237336   6.665   2.327  13.824  0.4253 -0.3106 -0.1355
 5282TIP3    H137337   6.616   2.379  13.761  1.4850  2.5755  1.2685
 5282TIP3    H237338   6.725   2.275  13.770  0.2222  0.8908 -1.5869
 5283TIP3   OH237339   3.054   4.471   3.585 -0.4952  0.1191 -0.4566
 5283TIP3    H137340   2.963   4.487   3.610 -0.4181  0.8043 -0.6060
 5283TIP3    H237341   3.104   4.539   3.630  0.0873 -0.9308  0.5374
 5284TIP3   OH237342   2.434   3.828   1.341 -0.0876 -0.0381  0.5452
 5284TIP3    H137343   2.445   3.857   1.250 -0.3006  1.5414  1.0056
 5284TIP3    H237344   2.523   3.824   1.375 -0.0505 -0.0312  0.4506
 5285TIP3   OH237345   3.173   6.781  16.961  0.0826 -0.4968 -0.3847
 5285TIP3    H137346   3.198   6.694  16.928  0.1820 -1.0642  1.1056
 5285TIP3    H237347   3.213   6.786  17.048 -2.9237 -0.4674  1.1188
 5286TIP3   OH237348   0.105   1.095  11.759  0.0715 -0.4121 -0.2226
 5286TIP3    H137349   0.099   1.005  11.788  0.8703 -0.5236 -0.3800
 5286TIP3    H237350   0.199   1.110  11.746  0.1528  0.9858  1.5492
 5287TIP3   OH237351   1.112   0.200   2.536 -0.1840  0.1790  0.0391
 5287TIP3    H137352   1.036   0.250   2.505 -0.6315 -0.6108 -0.1433
 5287TIP3    H237353   1.162   0.264   2.587  0.0475  1.2367 -1.4391
 5288TIP3   OH237354   4.577   1.382   4.088 -0.5022 -0.0379 -0.1731
 5288TIP3    H137355   4.527   1.463   4.084  1.7088  1.4130  0.1441
 5288TIP3    H237356   4.562   1.349   4.177  0.7849  1.5587  0.6875
 5289TIP3   OH237357   1.156   1.426  13.764  0.3160 -0.1561  0.4811
 5289TIP3    H137358   1.079   1.422  13.820  0.4968 -1.3347  0.6675
 5289TIP3    H237359   1.134   1.490  13.697 -0.5501  0.0254  0.9303
 5290TIP3   OH237360   0.022   2.591  11.290  0.7078  0.0174  0.2722
 5290TIP3    H137361   0.022   2.520  11.225  3.0105  0.0865  0.0897
 5290TIP3    H237362  -0.001   2.669  11.241 -1.3551 -0.4769  0.3720
 5291TIP3   OH237363   0.977   0.008  11.175  0.3283  0.5120 -0.2463
 5291TIP3    H137364   0.929  -0.073  11.157 -0.2761  1.0932 -1.3080
 5291TIP3    H237365   0.909   0.073  11.193  0.7281  1.1980 -1.1517
 5292TIP3   OH237366   5.933   4.300  15.114  0.3129 -0.6183  0.0331
 5292TIP3    H137367   5.861   4.237  15.113  0.0683 -0.3626 -1.4137
 5292TIP3    H237368   5.902   4.372  15.059  0.9290  0.3757  0.9469
 5293TIP3   OH237369   4.580   6.208   1.915  0.3673  0.5126 -0.4026
 5293TIP3    H137370   4.529   6.282   1.946  1.5927  0.7169  1.2630
 5293TIP3    H237371   4.518   6.135   1.914 -0.6274  1.3431 -1.1915
 5294TIP3   OH237372   4.234   3.640  10.293  0.0915 -0.5529 -0.2353
 5294TIP3    H137373   4.227   3.609  10.383 -0.7604 -1.6868 -0.6665
 5294TIP3    H237374   4.266   3.564  10.244 -0.2481 -0.1954 -1.0248
 5295TIP3   OH237375   2.396   0.508  14.408  0.7578  0.2727  0.2815
 5295TIP3    H137376   2.394   0.485  14.501  0.7869 -0.3763  0.1323
 5295TIP3    H237377   2.314   0.554  14.392  2.6863  4.6562  1.6456
 5296TIP3   OH237378   0.230   0.536  14.669  0.0243  0.2433  0.7698
 5296TIP3    H137379   0.285   0.589  14.725  0.9572 -0.1221  0.2181
 5296TIP3    H237380   0.171   0.599  14.627  1.6603  0.9979 -0.5097
 5297TIP3   OH237381   3.575   5.681  11.873  0.2564  0.0017 -0.1188
 5297TIP3    H137382   3.667   5.687  11.899  0.1330 -0.2125  0.3687
 5297TIP3    H237383   3.570   5.601  11.822  0.1703 -0.4412  0.5772
 5298TIP3   OH237384   0.187   2.287   0.908 -0.1149  0.0057  0.1244
 5298TIP3    H137385   0.182   2.299   0.813  0.5218 -0.6097  0.0079
 5298TIP3    H237386   0.280   2.290   0.927 -0.2706  0.7440  0.8227
 5299TIP3   OH237387   0.297   3.047  13.052 -0.1160  0.3266  0.0509
 5299TIP3    H137388   0.310   3.135  13.089 -1.0134  0.7198 -0.5236
 5299TIP3    H237389   0.377   2.999  13.075  0.3135  1.2415  0.5241
 5300TIP3   OH237390   2.914   1.738  11.967  0.4348  0.7600  0.4142
 5300TIP3    H137391   2.946   1.828  11.966  0.3015  0.8215 -1.5435
 5300TIP3    H237392   2.879   1.723  11.879  0.0133 -1.0547  0.8341
 5301TIP3   OH237393   4.018   4.107   4.096  0.0299 -0.0743  0.2815
 5301TIP3    H137394   4.024   4.182   4.155 -0.2521  0.9609 -0.9633
 5301TIP3    H237395   3.924   4.099   4.077  0.2065  0.2918 -0.8493
 5302TIP3   OH237396   3.817   0.071  15.853  0.0938 -0.3175  0.4364
 5302TIP3    H137397   3.830   0.127  15.777 -1.4421 -1.5196 -0.7834
 5302TIP3    H237398   3.827  -0.018  15.820  1.9968 -0.8711  2.2258
 5303TIP3   OH237399   4.514   4.092   4.333  0.6400 -0.0704 -0.3742
 5303TIP3    H137400   4.492   3.999   4.343  2.0325 -0.4557 -0.6856
 5303TIP3    H237401   4.429   4.135   4.322 -0.0703 -1.2220  0.3603
 5304TIP3   OH237402   5.390   6.147  14.884 -0.0608 -1.0782 -0.1640
 5304TIP3    H137403   5.371   6.146  14.791  1.8218  0.1819 -0.6032
 5304TIP3    H237404   5.461   6.083  14.895  0.9601  0.0773  0.0918
 5305TIP3   OH237405   6.344   6.124   3.044  0.1067  0.3604 -0.6551
 5305TIP3    H137406   6.331   6.145   3.136  0.1924 -1.4884 -0.1702
 5305TIP3    H237407   6.340   6.208   2.998  0.8320  1.4058  1.1129
 5306TIP3   OH237408   4.704   0.551  16.180  0.0137 -0.6105 -0.3275
 5306TIP3    H137409   4.792   0.569  16.145  1.2595  0.7035  3.0318
 5306TIP3    H237410   4.654   0.630  16.161  1.3152  1.0073  2.3679
 5307TIP3   OH237411   5.557   5.536   0.486 -0.7991  0.1587 -0.0982
 5307TIP3    H137412   5.625   5.528   0.419 -1.4254 -2.4805 -0.5181
 5307TIP3    H237413   5.552   5.630   0.504  2.2406  0.5452 -0.7604
 5308TIP3   OH237414   1.188   4.754   2.689  0.7040  0.9980 -0.3311
 5308TIP3    H137415   1.178   4.712   2.603 -2.8642 -0.5700  0.6752
 5308TIP3    H237416   1.247   4.696   2.737 -1.8622 -1.5490  0.0538
 5309TIP3   OH237417   3.090   2.027  14.361 -0.0455 -0.2674 -0.1232
 5309TIP3    H137418   3.047   1.969  14.299 -0.9714 -0.4056  0.6229
 5309TIP3    H237419   3.019   2.063  14.414  0.5593  1.1435 -0.2133
 5310TIP3   OH237420   3.122   0.950  16.897  0.3278  0.1619 -0.2667
 5310TIP3    H137421   3.047   0.906  16.937 -0.3640  1.6045  0.0840
 5310TIP3    H237422   3.198   0.907  16.936 -0.3152 -0.4672  0.3304
 5311TIP3   OH237423   2.864   0.983  10.462  0.5756 -0.3685 -0.1558
 5311TIP3    H137424   2.881   0.890  10.472 -0.3632 -0.4070  1.4536
 5311TIP3    H237425   2.770   0.989  10.441  0.6690  0.2089 -0.4559
 5312TIP3   OH237426   2.048   3.840  11.886  1.2332  0.1195  0.1545
 5312TIP3    H137427   1.997   3.764  11.859  1.3146  0.6514 -1.6049
 5312TIP3    H237428   2.010   3.864  11.971  1.9656 -2.5178  1.3276
 5313TIP3   OH237429   6.726   0.692   2.779 -0.3486 -0.6388 -0.0062
 5313TIP3    H137430   6.737   0.741   2.861 -0.4217 -1.5128  0.5495
 5313TIP3    H237431   6.741   0.756   2.710 -0.4293  0.1569  0.6918
 5314TIP3   OH237432   4.234   2.058   0.175  0.3052  0.5105  0.0776
 5314TIP3    H137433   4.143   2.032   0.184  0.2910  0.6798  0.4312
 5314TIP3    H237434   4.232   2.132   0.113  0.3251 -0.1832 -0.7666
 5315TIP3   OH237435   1.170   5.774  16.455  0.4138  0.4462 -0.3640
 5315TIP3    H137436   1.098   5.728  16.412  0.2930  0.5734 -0.2973
 5315TIP3    H237437   1.145   5.776  16.548 -0.4097  2.1478 -0.5890
 5316TIP3   OH237438   2.538   5.422  15.050  0.8572  0.4560  0.1160
 5316TIP3    H137439   2.491   5.501  15.076 -2.5139 -0.7651 -1.6460
 5316TIP3    H237440   2.575   5.443  14.965 -0.6954 -0.0206 -0.7091
 5317TIP3   OH237441   1.160   1.510  12.964 -0.1476  0.2435 -0.1680
 5317TIP3    H137442   1.101   1.438  12.987 -2.1135  0.8041 -2.9929
 5317TIP3    H237443   1.205   1.479  12.886 -0.3942  1.7502 -0.9251
 5318TIP3   OH237444   0.076   5.932  15.986 -1.1557 -0.7958  0.3995
 5318TIP3    H137445   0.053   5.901  15.898 -1.7788  0.8653 -0.0722
 5318TIP3    H237446   0.082   5.853  16.039  1.8885 -2.1448 -1.6835
 5319TIP3   OH237447   0.558   0.040  13.633 -0.9146 -0.2025  0.0880
 5319TIP3    H137448   0.629   0.068  13.576 -2.0694 -0.3518 -1.4802
 5319TIP3    H237449   0.563  -0.056  13.633 -1.7834 -0.2645 -0.9548
 5320TIP3   OH237450   4.750   0.533   4.763  0.6013  0.2144 -0.2687
 5320TIP3    H137451   4.821   0.555   4.703 -1.5820  0.2403 -3.0159
 5320TIP3    H237452   4.720   0.446   4.735  0.3741 -0.4216  1.7409
 5321TIP3   OH237453   1.338   4.194  13.539 -0.3675 -0.4485 -0.2195
 5321TIP3    H137454   1.344   4.179  13.445  0.9651  0.0714 -0.2363
 5321TIP3    H237455   1.421   4.164  13.574 -0.7509 -0.4027  0.7639
 5322TIP3   OH237456   3.066   6.371  16.768  0.0033  0.2797 -1.0023
 5322TIP3    H137457   2.973   6.361  16.748 -0.1953 -1.3260  0.4329
 5322TIP3    H237458   3.111   6.332  16.693 -0.3209  3.0311 -2.7740
 5323TIP3   OH237459   4.361   2.500   5.997  0.0354 -0.2848  0.2728
 5323TIP3    H137460   4.290   2.479   6.058  1.6855 -1.8855  1.7685
 5323TIP3    H237461   4.435   2.521   6.053  1.5043 -1.3738 -1.1734
 5324TIP3   OH237462   6.332   5.901  14.331  0.1301 -0.4724 -0.0009
 5324TIP3    H137463   6.278   5.979  14.342  1.3415  0.7059 -1.8239
 5324TIP3    H237464   6.419   5.927  14.361  0.6878 -0.9009 -1.1692
 5325TIP3   OH237465   3.324   2.752  14.384 -0.9970 -0.1849 -0.6730
 5325TIP3    H137466   3.260   2.703  14.435  0.2290 -0.3256  0.7842
 5325TIP3    H237467   3.400   2.694  14.380  0.0341  1.0698  0.0050
 5326TIP3   OH237468   4.798   2.100  14.133 -0.4424 -0.2527  0.1249
 5326TIP3    H137469   4.784   2.100  14.227  0.1936  0.0941  0.2269
 5326TIP3    H237470   4.728   2.155  14.098 -1.0019 -0.8198  0.3359
 5327TIP3   OH237471   1.458   0.757   4.331  0.5756  0.8437  0.0951
 5327TIP3    H137472   1.458   0.681   4.273 -0.6041  1.0008 -0.1367
 5327TIP3    H237473   1.495   0.827   4.278 -0.2523  0.9220 -0.4023
 5328TIP3   OH237474   3.680   5.863   3.345 -0.0609 -0.5431 -0.1841
 5328TIP3    H137475   3.588   5.839   3.340 -0.5220  0.9776  0.4412
 5328TIP3    H237476   3.693   5.924   3.273 -0.5053  2.0555  1.7822
 5329TIP3   OH237477   0.127   5.930  13.395 -0.3420  0.1686  0.0388
 5329TIP3    H137478   0.125   5.977  13.311 -2.1639 -1.4198 -0.8807
 5329TIP3    H237479   0.059   5.864  13.387  1.9541 -2.5614  1.3408
 5330TIP3   OH237480   4.006   4.084  15.331  0.1590 -0.0587  0.1434
 5330TIP3    H137481   4.034   3.998  15.361 -0.2127  0.6712  2.8646
 5330TIP3    H237482   4.084   4.139  15.341 -0.2219  0.3929  0.6885
 5331TIP3   OH237483   3.485   4.184  10.826  0.1346 -0.6052 -0.0246
 5331TIP3    H137484   3.566   4.232  10.811  0.0282 -0.5008 -0.2721
 5331TIP3    H237485   3.444   4.179  10.739 -0.7681  0.4935  0.3176
 5332TIP3   OH237486   0.485   0.789   2.529  0.6984  0.0013 -0.0798
 5332TIP3    H137487   0.468   0.705   2.486 -0.1354 -1.0594  2.2067
 5332TIP3    H237488   0.416   0.847   2.496  1.3193 -0.1295 -1.7246
 5333TIP3   OH237489   4.567   4.508   0.014 -0.0557  0.2580  0.2631
 5333TIP3    H137490   4.472   4.506  -0.001 -0.2618 -0.1435  1.5036
 5333TIP3    H237491   4.586   4.428   0.063  1.2152 -0.5233 -1.3930
 5334TIP3   OH237492   5.355   3.374  15.769 -0.0722  0.5901  0.6333
 5334TIP3    H137493   5.356   3.439  15.699 -0.3350  0.6468  0.6809
 5334TIP3    H237494   5.446   3.344  15.776 -0.0335  0.6321  0.3140
 5335TIP3   OH237495   5.099   3.024   5.240  0.3250 -0.6692 -0.1529
 5335TIP3    H137496   5.070   2.983   5.322 -0.5686 -1.5692 -0.9014
 5335TIP3    H237497   5.019   3.052   5.197  0.9098  1.9918  0.3433
 5336TIP3   OH237498   2.954   3.580  12.291  0.4075  0.2388 -0.0711
 5336TIP3    H137499   2.894   3.654  12.298 -0.2086 -0.0096 -1.9354
 5336TIP3    H237500   2.926   3.535  12.211  2.0642 -0.8190 -0.0990
 5337TIP3   OH237501   6.485   3.976   3.570 -0.4022  0.2932 -0.3409
 5337TIP3    H137502   6.414   3.993   3.509 -0.8601  2.3900  0.6729
 5337TIP3    H237503   6.564   3.976   3.515 -0.9196  0.7868 -1.1065
 5338TIP3   OH237504   6.363   1.898   1.068  0.7892  0.6981 -0.5146
 5338TIP3    H137505   6.277   1.934   1.050 -0.2339 -1.6576 -0.7153
 5338TIP3    H237506   6.356   1.860   1.156  1.1067 -0.8482 -1.1225
 5339TIP3   OH237507   5.134   4.116  14.408 -0.2352  0.2434  0.3497
 5339TIP3    H137508   5.092   4.164  14.336  0.7705  0.1744 -0.2972
 5339TIP3    H237509   5.167   4.036  14.368  2.8001  1.4251  0.1946
 5340TIP3   OH237510   2.923   5.970   2.896 -0.2190  0.2105  0.1280
 5340TIP3    H137511   2.885   6.057   2.911 -0.5903  0.2494 -1.0217
 5340TIP3    H237512   2.851   5.917   2.863 -0.0127 -0.5746  0.9007
 5341TIP3   OH237513   5.836   3.730  12.154  0.3612  0.1449 -0.0405
 5341TIP3    H137514   5.752   3.764  12.125  0.2565  2.2840  2.4162
 5341TIP3    H237515   5.898   3.800  12.134  0.8793  0.1629  1.4952
 5342TIP3   OH237516   0.116   3.779  12.446  0.3786 -0.1122  0.1558
 5342TIP3    H137517   0.138   3.869  12.470  0.3084 -0.3154  1.0162
 5342TIP3    H237518   0.200   3.738  12.425  0.4392  0.0841  0.0175
 5343TIP3   OH237519   3.323   5.690   4.788  0.1329 -0.7465 -0.0898
 5343TIP3    H137520   3.283   5.679   4.874 -1.2337 -0.7538 -0.6955
 5343TIP3    H237521   3.361   5.778   4.790  1.0884 -1.1623  0.8740
 5344TIP3   OH237522   5.059   1.929   1.647 -0.0560  0.1829 -0.0927
 5344TIP3    H137523   5.042   1.890   1.561  0.6159  0.9886 -0.6042
 5344TIP3    H237524   5.118   2.002   1.629 -0.6233  0.9213  0.9487
 5345TIP3   OH237525   2.517   4.626   2.127 -0.0042  0.0317  0.4655
 5345TIP3    H137526   2.542   4.567   2.199  0.8582 -0.7270 -0.4291
 5345TIP3    H237527   2.597   4.635   2.075 -1.5625 -2.8997 -2.8238
 5346TIP3   OH237528   1.841   2.230   2.155 -0.3486  0.4190  0.3865
 5346TIP3    H137529   1.927   2.195   2.131 -0.5028  0.8541 -0.8350
 5346TIP3    H237530   1.849   2.325   2.145 -1.0167  0.4536  0.1081
 5347TIP3   OH237531   3.194   3.771   2.780 -0.0476  0.1744 -0.1653
 5347TIP3    H137532   3.201   3.761   2.685  2.1372  2.5646 -0.3431
 5347TIP3    H237533   3.239   3.853   2.800 -0.9004  0.0382  2.9099
 5348TIP3   OH237534   0.783   1.681   5.073  0.4364  0.1507  0.2990
 5348TIP3    H137535   0.707   1.652   5.024  0.2503  0.0918  0.6207
 5348TIP3    H237536   0.822   1.601   5.108  0.5075  0.2005  0.3353
 5349TIP3   OH237537   4.476   6.058  10.924 -0.4636 -0.5185 -0.1289
 5349TIP3    H137538   4.551   6.112  10.945 -0.4299 -1.2202  1.8453
 5349TIP3    H237539   4.454   6.079  10.834  1.6982  0.1610 -0.5384
 5350TIP3   OH237540   5.124   3.726  13.194 -0.5559 -0.1085  0.4947
 5350TIP3    H137541   5.215   3.757  13.192  0.1830 -2.2075 -1.4864
 5350TIP3    H237542   5.127   3.647  13.248 -1.1944 -0.2724  0.2945
 5351TIP3   OH237543   6.470   1.367   4.318 -0.1524 -0.0727 -0.7813
 5351TIP3    H137544   6.487   1.383   4.225  0.0839 -0.2113 -0.7621
 5351TIP3    H237545   6.402   1.430   4.341 -1.6587 -1.3446 -1.5351
 5352TIP3   OH237546   0.685   0.679  12.214 -0.0979 -0.0792 -1.2270
 5352TIP3    H137547   0.732   0.646  12.291 -0.3052  0.4683 -0.8521
 5352TIP3    H237548   0.732   0.643  12.139  0.9770  0.5203 -0.8658
 5353TIP3   OH237549   1.896   2.958  13.345 -0.0176  0.5564  0.3526
 5353TIP3    H137550   1.809   2.986  13.373  0.3881  3.4217 -0.9046
 5353TIP3    H237551   1.936   3.037  13.308  1.7417 -1.4771 -2.5144
 5354TIP3   OH237552   1.610   0.880   5.091  0.0586  0.0094 -0.3373
 5354TIP3    H137553   1.618   0.934   5.170 -0.9875  0.1001 -0.2803
 5354TIP3    H237554   1.516   0.865   5.082  0.0925  0.5800 -1.9659
 5355TIP3   OH237555   4.355   4.622  15.398 -0.5761  0.2574 -0.1306
 5355TIP3    H137556   4.410   4.696  15.373 -1.2764  1.0291  0.5833
 5355TIP3    H237557   4.352   4.567  15.319  0.8584  0.4027 -0.3098
 5356TIP3   OH237558   0.344   5.343   0.272  0.3716 -0.3812  0.2531
 5356TIP3    H137559   0.396   5.336   0.192  0.1493 -0.6580  0.1315
 5356TIP3    H237560   0.384   5.415   0.320 -0.2546  0.5988 -0.6662
 5357TIP3   OH237561   6.035   1.151   2.301 -0.8604 -0.1154  0.8151
 5357TIP3    H137562   5.997   1.135   2.214  0.4963 -1.5302  0.4289
 5357TIP3    H237563   6.076   1.068   2.324  2.0076  1.2947  1.1847
 5358TIP3   OH237564   4.070   1.938   1.565  0.3824  0.0200  0.3204
 5358TIP3    H137565   4.038   1.857   1.524 -1.5980  0.0851  1.5889
 5358TIP3    H237566   4.047   2.007   1.503  1.3436 -0.2755 -0.3931
 5359TIP3   OH237567   2.187   1.955  11.486 -0.3459  0.5183  0.7054
 5359TIP3    H137568   2.202   1.872  11.531 -1.1766  0.8911  1.7182
 5359TIP3    H237569   2.093   1.956  11.468 -0.4455  1.4391  1.1694
 5360TIP3   OH237570   4.303   0.264  12.639  0.2446 -0.4288  0.0442
 5360TIP3    H137571   4.208   0.273  12.630  0.0205 -1.2204  1.4411
 5360TIP3    H237572   4.316   0.230  12.727  1.9136  0.9293  0.3755
 5361TIP3   OH237573   1.339   1.327  16.197 -0.6048  0.4918  0.7533
 5361TIP3    H137574   1.250   1.359  16.215 -1.5614 -2.2084  1.2434
 5361TIP3    H237575   1.355   1.262  16.265 -0.0858 -2.3504 -1.8767
 5362TIP3   OH237576   3.258   4.358  15.116  0.7393  0.7717  0.0464
 5362TIP3    H137577   3.235   4.279  15.068 -0.5463  0.8987  0.4282
 5362TIP3    H237578   3.236   4.338  15.207  0.8423  1.4092  0.2143
 5363TIP3   OH237579   6.470   1.068  14.164  1.1597 -0.2595 -0.2422
 5363TIP3    H137580   6.531   1.139  14.147 -0.1278  0.5507 -1.6599
 5363TIP3    H237581   6.489   1.003  14.096 -0.5757  0.7250 -1.7625
 5364TIP3   OH237582   4.107   4.710   1.562 -0.3389 -0.0546  0.9095
 5364TIP3    H137583   4.202   4.704   1.547 -0.7625 -1.5813 -1.8724
 5364TIP3    H237584   4.083   4.625   1.598 -0.9651 -0.8810 -1.2553
 5365TIP3   OH237585   6.116   1.101   2.616  0.2689  0.3231  0.0668
 5365TIP3    H137586   6.170   1.181   2.612  1.2249 -0.3631 -1.6132
 5365TIP3    H237587   6.077   1.094   2.529 -1.1390 -0.1794  0.7104
 5366TIP3   OH237588   1.159   5.278   3.706  0.3426  0.5549 -0.0764
 5366TIP3    H137589   1.208   5.342   3.655  0.5829  0.3526 -0.1040
 5366TIP3    H237590   1.220   5.250   3.774  0.2465  0.3454 -0.0741
 5367TIP3   OH237591   0.765   4.996  13.794  0.4273  0.2530 -0.9770
 5367TIP3    H137592   0.757   4.937  13.870 -0.8710 -0.7223 -1.8246
 5367TIP3    H237593   0.791   4.939  13.722  1.3084  1.1168 -1.3512
 5368TIP3   OH237594   4.494   2.856   2.399 -0.0729  0.0563 -0.5306
 5368TIP3    H137595   4.487   2.763   2.381 -1.4111  0.1522 -0.5924
 5368TIP3    H237596   4.546   2.862   2.479 -0.2375 -0.7550 -0.3630
 5369TIP3   OH237597   0.889   1.817  15.502  0.0462  0.2933 -0.2366
 5369TIP3    H137598   0.920   1.735  15.464 -0.3475 -0.0153  0.1017
 5369TIP3    H237599   0.865   1.871  15.426 -2.5986 -1.0351 -0.4442
 5370TIP3   OH237600   3.101   6.787   1.454 -1.0563 -0.5254 -0.6253
 5370TIP3    H137601   3.112   6.832   1.537  0.5007 -1.7750 -0.0811
 5370TIP3    H237602   3.069   6.700   1.478  0.6053 -1.3412 -1.1452
 5371TIP3   OH237603   4.522   5.982   2.166 -0.0897  0.4754 -0.2718
 5371TIP3    H137604   4.494   5.975   2.075  1.9332  0.8236 -0.9813
 5371TIP3    H237605   4.505   5.895   2.203 -1.5866  0.5331 -0.7389
 5372TIP3   OH237606   3.274   6.504  13.176 -0.1881 -0.0609 -0.4852
 5372TIP3    H137607   3.250   6.423  13.220  1.3610 -0.8671 -1.0536
 5372TIP3    H237608   3.281   6.480  13.083  3.7372 -0.2455 -0.2946
 5373TIP3   OH237609   4.056   4.686   2.215 -0.0313  0.2447 -0.9314
 5373TIP3    H137610   4.002   4.747   2.164 -0.5928 -0.2179 -0.9032
 5373TIP3    H237611   4.021   4.599   2.194  0.0674  0.0109 -0.1662
 5374TIP3   OH237612   3.239   5.956  13.544 -0.3240  0.1206  0.6512
 5374TIP3    H137613   3.323   5.976  13.503  0.4760  1.1816  2.6882
 5374TIP3    H237614   3.199   6.042  13.560 -0.1124 -0.1476  2.9836
 5375TIP3   OH237615   1.845   1.583   6.296 -0.3501 -0.5708 -0.0459
 5375TIP3    H137616   1.815   1.630   6.373 -0.9843  0.1824 -0.7246
 5375TIP3    H237617   1.924   1.631   6.268  0.2435 -1.2221  0.4819
 5376TIP3   OH237618   1.627   1.783  12.247 -0.6270 -0.3612 -0.7711
 5376TIP3    H137619   1.590   1.784  12.335  0.2565  0.5501 -0.3859
 5376TIP3    H237620   1.639   1.690  12.227 -0.7242 -0.5723  0.1173
 5377TIP3   OH237621   3.541   0.743   1.676 -0.1064 -0.4128 -0.1476
 5377TIP3    H137622   3.446   0.737   1.666 -0.4438  2.7459 -0.0418
 5377TIP3    H237623   3.553   0.785   1.762  1.4576 -1.5544  0.2304
 5378TIP3   OH237624   0.327   0.363  14.875  0.0469  0.3211 -0.4713
 5378TIP3    H137625   0.254   0.411  14.836  0.7468  1.2343 -0.7007
 5378TIP3    H237626   0.391   0.355  14.804  0.2890 -0.2281 -0.1959
 5379TIP3   OH237627   5.983   2.501  16.764  0.1977 -0.5336 -0.0503
 5379TIP3    H137628   5.983   2.531  16.855  0.3135  0.1058 -0.2531
 5379TIP3    H237629   6.059   2.543  16.725  1.0751 -2.0822 -0.0507
 5380TIP3   OH237630   0.174   2.913   5.731  0.5891  0.1579 -0.4300
 5380TIP3    H137631   0.168   2.853   5.657  1.9726  0.7014 -1.0156
 5380TIP3    H237632   0.127   2.869   5.801 -0.1464 -0.6889 -1.4289
 5381TIP3   OH237633   3.972   2.177  15.070  0.5066  0.3616 -0.0101
 5381TIP3    H137634   4.063   2.204  15.082  0.6822 -0.0938 -0.2778
 5381TIP3    H237635   3.925   2.257  15.047  0.8022  0.6316  0.3316
 5382TIP3   OH237636   3.812   1.767  13.305 -0.1954  0.0949 -0.2361
 5382TIP3    H137637   3.891   1.819  13.320 -0.2729  1.6150 -4.0910
 5382TIP3    H237638   3.838   1.701  13.241 -2.0187  0.7925 -1.7933
 5383TIP3   OH237639   1.653   0.349  17.273  0.2732 -0.2251 -0.3616
 5383TIP3    H137640   1.640   0.444  17.273  0.0553 -0.2556 -0.2994
 5383TIP3    H237641   1.564   0.313  17.271  0.3552 -0.4281 -0.2904
 5384TIP3   OH237642   0.452   1.289  15.722  0.3975 -0.0190 -0.1821
 5384TIP3    H137643   0.538   1.316  15.754 -0.0093 -0.3906  1.3304
 5384TIP3    H237644   0.419   1.231  15.791 -1.5317  1.0117 -0.1988
 5385TIP3   OH237645   5.417   0.951  16.311  0.1578  0.0071 -0.0606
 5385TIP3    H137646   5.432   1.038  16.349  0.8201  0.1590 -0.6407
 5385TIP3    H237647   5.494   0.936  16.256 -0.7650 -0.2145 -1.3200
 5386TIP3   OH237648   4.658   4.495  14.393  0.5401 -0.0552 -0.0770
 5386TIP3    H137649   4.643   4.524  14.304  1.2563  0.1162 -0.1485
 5386TIP3    H237650   4.750   4.470  14.395  0.7336  0.6703  0.8061
 5387TIP3   OH237651   2.933   3.920   4.800 -0.0544 -0.4711  0.1272
 5387TIP3    H137652   2.994   3.863   4.848  2.2258 -0.7477 -2.7914
 5387TIP3    H237653   2.852   3.870   4.796  1.3738 -2.9185 -0.8879
 5388TIP3   OH237654   4.521   6.812   1.170  0.0691 -0.2403  0.4645
 5388TIP3    H137655   4.504   6.722   1.198  1.3637 -1.0452 -1.2049
 5388TIP3    H237656   4.547   6.857   1.251 -0.8936 -1.2544  1.3838
 5389TIP3   OH237657   3.193   4.592  12.792  0.0324  0.5507  0.2612
 5389TIP3    H137658   3.160   4.643  12.867 -0.3307  0.9732 -0.1748
 5389TIP3    H237659   3.208   4.504  12.827 -3.4908 -0.2669  0.0960
 5390TIP3   OH237660   4.924   0.668   1.011  0.6531 -0.3450  0.0238
 5390TIP3    H137661   4.830   0.660   0.998  0.3919  0.5191  1.1445
 5390TIP3    H237662   4.964   0.621   0.938 -0.6451  0.2287 -1.0897
 5391TIP3   OH237663   0.193   0.634  17.173  0.2429 -0.5636  0.0092
 5391TIP3    H137664   0.163   0.576  17.103  0.1049 -0.4234 -0.0494
 5391TIP3    H237665   0.286   0.614  17.182  0.4294 -0.0641 -0.7242
 5392TIP3   OH237666   4.649   2.574  15.403 -0.3094  0.3831  0.2516
 5392TIP3    H137667   4.739   2.554  15.429  0.0751  1.7740  0.0663
 5392TIP3    H237668   4.637   2.527  15.321  0.5883  0.9647 -0.2277
 5393TIP3   OH237669   6.191   0.977   5.078  0.0023  0.3235  0.2524
 5393TIP3    H137670   6.176   1.061   5.034  0.5436  1.4595  2.1239
 5393TIP3    H237671   6.248   0.998   5.151  1.4879 -1.9803 -0.1415
 5394TIP3   OH237672   4.338   3.495   3.874 -0.5782 -0.0817 -0.1801
 5394TIP3    H137673   4.364   3.584   3.852  0.2477 -0.8090 -2.3841
 5394TIP3    H237674   4.250   3.505   3.911 -1.3932  1.4719 -2.3495
 5395TIP3   OH237675   6.575   5.123  15.456  0.5439  0.3231 -0.6766
 5395TIP3    H137676   6.596   5.173  15.377  2.2767 -1.9605 -1.7921
 5395TIP3    H237677   6.527   5.046  15.423 -0.3878  0.2713  0.7367
 5396TIP3   OH237678   6.812   6.652   3.164 -0.2085 -0.5362  0.2082
 5396TIP3    H137679   6.733   6.606   3.190  0.5492 -1.7325  0.4757
 5396TIP3    H237680   6.782   6.739   3.136 -1.7145 -1.3093 -0.6729
 5397TIP3   OH237681   6.737   1.159  15.004 -0.4351 -0.4181  0.0912
 5397TIP3    H137682   6.648   1.180  15.032 -0.4088  1.4863 -1.0415
 5397TIP3    H237683   6.744   1.196  14.916  1.9617  1.0050  0.7731
 5398TIP3   OH237684   3.194   1.795  15.512  0.4023  0.4852 -0.3189
 5398TIP3    H137685   3.192   1.873  15.457 -0.6157  0.1024 -0.8566
 5398TIP3    H237686   3.211   1.723  15.451  0.5696  0.2024  0.0568
 5399TIP3   OH237687   6.079   6.799   3.196 -0.1231  0.5097 -0.0475
 5399TIP3    H137688   6.137   6.780   3.269 -0.1390  1.2523  0.1735
 5399TIP3    H237689   6.009   6.853   3.234 -0.4490  0.4092 -0.4918
 5400TIP3   OH237690   3.024   2.798   4.976 -0.1618 -0.3229 -0.2151
 5400TIP3    H137691   3.024   2.886   4.937  0.0447 -0.4594 -0.5230
 5400TIP3    H237692   2.940   2.793   5.021 -0.6366 -0.3592 -1.0883
 5401TIP3   OH237693   3.897   4.769   2.586 -0.1727 -0.8683 -0.2513
 5401TIP3    H137694   3.953   4.785   2.661 -0.3574  0.2063 -0.3321
 5401TIP3    H237695   3.865   4.855   2.560  0.6104 -1.0887 -2.1237
 5402TIP3   OH237696   0.339   5.819  16.232 -0.2124  0.6778 -0.0589
 5402TIP3    H137697   0.432   5.797  16.232 -0.2686  0.4393 -0.1634
 5402TIP3    H237698   0.337   5.914  16.221 -0.0105  0.5791 -0.9923
 5403TIP3   OH237699   6.295   2.958   5.652  0.6869  0.3471 -0.0179
 5403TIP3    H137700   6.388   2.955   5.671  0.6820 -0.4186 -0.0941
 5403TIP3    H237701   6.254   2.987   5.734  0.8621 -0.7592  0.4726
 5404TIP3   OH237702   1.885   5.447  14.767 -0.2179 -0.0731 -0.0241
 5404TIP3    H137703   1.937   5.403  14.700  1.0071 -0.2270  0.9961
 5404TIP3    H237704   1.808   5.480  14.720  0.9536  0.4614 -1.6390
 5405TIP3   OH237705   1.610   0.032  12.394  0.0219 -0.0503  0.5031
 5405TIP3    H137706   1.599   0.094  12.467  2.3294 -0.5341  1.3609
 5405TIP3    H237707   1.606   0.087  12.316 -1.7422  0.5902  0.9772
 5406TIP3   OH237708   0.261   4.735  14.753  0.0462 -0.0724  0.3527
 5406TIP3    H137709   0.232   4.697  14.670 -0.6349  0.3804  0.3750
 5406TIP3    H237710   0.210   4.816  14.761 -1.1392 -0.9334  2.0197
 5407TIP3   OH237711   0.163   2.384   3.660 -0.0350  0.1195 -0.2660
 5407TIP3    H137712   0.098   2.314   3.665 -1.9870  1.8626 -0.1669
 5407TIP3    H237713   0.214   2.363   3.582 -0.9827 -1.0552 -0.6054
 5408TIP3   OH237714   4.059   1.359   4.829 -0.1925 -0.0076  0.1673
 5408TIP3    H137715   3.999   1.287   4.807 -1.0826  0.5095  0.8105
 5408TIP3    H237716   4.057   1.362   4.925 -1.3568  1.8134  0.1443
 5409TIP3   OH237717   2.729   5.559  11.547  0.1977  0.1037 -0.3662
 5409TIP3    H137718   2.737   5.653  11.536 -1.5024  0.0225 -3.2681
 5409TIP3    H237719   2.676   5.548  11.625 -2.8992  1.8024 -2.0651
 5410TIP3   OH237720   3.967   3.117   4.945 -0.2873  0.3678  0.1094
 5410TIP3    H137721   3.916   3.185   4.988 -1.4350 -0.1609 -0.3807
 5410TIP3    H237722   3.917   3.037   4.960 -0.3521  0.0505 -1.5760
 5411TIP3   OH237723   0.088   2.216   4.058  0.0860  0.1327 -0.3124
 5411TIP3    H137724   0.044   2.140   4.020 -0.7388  0.8385 -0.8190
 5411TIP3    H237725   0.179   2.208   4.029 -0.0556 -0.5091 -0.5964
 5412TIP3   OH237726   1.322   1.139  11.972  1.0120 -0.3492 -0.3710
 5412TIP3    H137727   1.248   1.096  11.929  2.2881 -1.8292 -1.1583
 5412TIP3    H237728   1.326   1.099  12.059  0.3923  0.3518 -0.0048
 5413TIP3   OH237729   4.899   2.717   2.502 -0.4049 -0.1329  0.0182
 5413TIP3    H137730   4.872   2.767   2.579 -0.4044 -0.4106  0.2004
 5413TIP3    H237731   4.935   2.635   2.538  1.0020  0.3683 -0.1913
 5414TIP3   OH237732   4.349   4.068  16.669 -0.2886  0.3506 -0.0058
 5414TIP3    H137733   4.357   3.979  16.635 -1.8533  0.3725 -0.4963
 5414TIP3    H237734   4.261   4.096  16.644  0.4783  2.3840 -0.6791
 5415TIP3   OH237735   6.487   4.926   1.227  0.3126 -0.4963  0.1889
 5415TIP3    H137736   6.561   4.970   1.269  0.8381  0.6710 -1.7959
 5415TIP3    H237737   6.410   4.974   1.258  0.6500  0.0969  0.1430
 5416TIP3   OH237738   6.820   2.419  14.131 -0.7559  0.5821  0.0823
 5416TIP3    H137739   6.814   2.328  14.104  1.4117 -0.0881  1.6170
 5416TIP3    H237740   6.858   2.464  14.055  2.5463 -0.7298  0.7981
 5417TIP3   OH237741   2.199   6.090  12.797  0.1372 -0.4821  0.7343
 5417TIP3    H137742   2.155   6.154  12.741  0.9306  1.1187  1.8634
 5417TIP3    H237743   2.127   6.037  12.833 -0.4312 -1.1411 -1.2393
 5418TIP3   OH237744   1.214   6.577  15.817  0.6310 -0.1953  0.1461
 5418TIP3    H137745   1.142   6.526  15.780  0.2757  0.6360 -0.3330
 5418TIP3    H237746   1.184   6.599  15.906 -0.0477  0.7820 -0.3094
 5419TIP3   OH237747   2.005   6.576   3.938  0.1375 -0.1936  0.3002
 5419TIP3    H137748   1.937   6.613   3.994  1.3330  0.6791  1.2337
 5419TIP3    H237749   2.087   6.596   3.983  1.1032 -0.1275 -1.3844
 5420TIP3   OH237750   3.661   3.199  11.826  0.0365  0.2276 -0.4337
 5420TIP3    H137751   3.585   3.209  11.885  0.0941 -0.6312 -0.1977
 5420TIP3    H237752   3.626   3.153  11.750 -0.0715  1.4726 -1.1727
 5421TIP3   OH237753   1.280   1.338  16.528 -0.3309  0.6432 -0.2384
 5421TIP3    H137754   1.187   1.353  16.513 -0.8287  0.1966  1.9986
 5421TIP3    H237755   1.294   1.247  16.501 -0.1914  1.1235 -1.8782
 5422TIP3   OH237756   3.455   2.481   2.877  0.0652 -0.1699  0.3223
 5422TIP3    H137757   3.371   2.521   2.858 -0.0931 -1.5396 -2.4093
 5422TIP3    H237758   3.433   2.392   2.906  0.5636 -0.1730  0.7132
 5423TIP3   OH237759   1.769   0.310  11.251  0.7178 -0.0764 -0.3317
 5423TIP3    H137760   1.825   0.251  11.301  0.7287  0.0806 -0.1575
 5423TIP3    H237761   1.772   0.277  11.162  1.0584 -0.0936 -0.3151
 5424TIP3   OH237762   5.430   5.205  12.733 -0.0718  0.1642 -0.0123
 5424TIP3    H137763   5.340   5.210  12.701 -0.8056 -1.1488  1.6572
 5424TIP3    H237764   5.425   5.237  12.823  0.7998 -1.4016  0.6292
 5425TIP3   OH237765   5.323   6.701   2.847  0.3543 -0.3993  0.4006
 5425TIP3    H137766   5.360   6.613   2.855  2.2638  0.2704 -0.5151
 5425TIP3    H237767   5.229   6.687   2.837  0.7072 -2.3791 -0.4876
 5426TIP3   OH237768   1.240   0.677  10.811  0.0330 -0.0121  0.4409
 5426TIP3    H137769   1.303   0.607  10.794  0.7720  0.5461  0.8317
 5426TIP3    H237770   1.288   0.758  10.791 -0.9634  0.3767 -0.4898
 5427TIP3   OH237771   0.055   2.065  15.873  0.0442  0.0467  0.4297
 5427TIP3    H137772   0.081   2.128  15.806 -1.1415  0.4317  0.3213
 5427TIP3    H237773   0.103   1.985  15.849 -0.2438  0.2141 -0.7933
 5428TIP3   OH237774   5.880   4.380   4.830  0.3640 -0.7730 -1.0888
 5428TIP3    H137775   5.861   4.367   4.738 -0.7734 -0.2575 -0.9392
 5428TIP3    H237776   5.825   4.454   4.857  0.4278 -1.1196  0.0779
 5429TIP3   OH237777   5.991   0.287  16.956 -0.1363 -0.6182 -0.0854
 5429TIP3    H137778   6.084   0.279  16.978 -0.1472  0.7797  0.5612
 5429TIP3    H237779   5.961   0.363  17.006 -2.1958 -2.3992  1.5337
 5430TIP3   OH237780   3.236   2.910  10.121 -0.0217 -0.3368 -0.1186
 5430TIP3    H137781   3.329   2.926  10.102  0.5893 -1.1772  1.8669
 5430TIP3    H237782   3.234   2.894  10.216 -2.2524 -0.0144 -0.0752
 5431TIP3   OH237783   0.086   4.425   3.688  0.5882  0.4473  0.3901
 5431TIP3    H137784   0.130   4.494   3.639 -0.0936 -0.5005 -1.6715
 5431TIP3    H237785   0.070   4.356   3.624 -2.1708 -0.0562  1.4671
 5432TIP3   OH237786   6.642   0.851   0.664 -0.5383  0.6511 -0.1203
 5432TIP3    H137787   6.694   0.779   0.628 -1.6148 -1.0407  1.5145
 5432TIP3    H237788   6.680   0.929   0.624  1.2100 -0.7245 -1.3745
 5433TIP3   OH237789   4.073   5.790   3.527  0.1088 -0.0961 -0.2132
 5433TIP3    H137790   3.983   5.760   3.512 -0.4301  1.1534  0.3841
 5433TIP3    H237791   4.082   5.866   3.470  1.3289 -1.1094 -1.4301
 5434TIP3   OH237792   2.822   3.074   1.303 -0.5457  0.0789  0.3807
 5434TIP3    H137793   2.801   3.109   1.389 -4.1368  1.2919 -0.7944
 5434TIP3    H237794   2.862   3.146   1.255 -1.2810  0.3647  0.1779
 5435TIP3   OH237795   5.256   0.814   6.518  0.5587  0.1464  0.5748
 5435TIP3    H137796   5.281   0.726   6.489  2.0364  0.8824 -0.5333
 5435TIP3    H237797   5.161   0.810   6.527  0.4866 -1.2872 -0.4384
 5436TIP3   OH237798   5.854   4.407  10.601 -0.4542 -0.8208 -0.1755
 5436TIP3    H137799   5.931   4.352  10.611 -0.4130 -0.4403  1.9187
 5436TIP3    H237800   5.800   4.360  10.536  1.9520 -0.5270 -2.5782
 5437TIP3   OH237801   2.925   1.861   4.331 -0.4769 -0.7064 -0.0444
 5437TIP3    H137802   2.904   1.769   4.342 -3.2699 -0.0509  0.8260
 5437TIP3    H237803   2.942   1.894   4.419 -0.5832 -0.1659 -0.2166
 5438TIP3   OH237804   5.766   0.176  11.296 -0.1278  0.8085 -0.1284
 5438TIP3    H137805   5.773   0.249  11.234  0.5067  0.4539 -0.4938
 5438TIP3    H237806   5.705   0.207  11.363 -1.5602  0.8517 -1.4060
 5439TIP3   OH237807   0.793   1.238  17.252  0.7322 -0.2189 -0.4666
 5439TIP3    H137808   0.790   1.300  17.325 -2.1277 -0.6561 -0.0885
 5439TIP3    H237809   0.886   1.227  17.233  1.4556  1.6198  1.6327
 5440TIP3   OH237810   1.373   3.544   3.232  0.5113 -0.4417 -0.2687
 5440TIP3    H137811   1.291   3.518   3.274  0.4203  2.0712  1.3317
 5440TIP3    H237812   1.440   3.529   3.299  0.9439  0.1030 -0.5756
 5441TIP3   OH237813   6.542   3.514  13.915 -0.2327 -0.1664  0.2485
 5441TIP3    H137814   6.617   3.549  13.962  1.1955 -0.5128 -1.6857
 5441TIP3    H237815   6.536   3.422  13.944  0.7950 -0.4527 -0.4257
 5442TIP3   OH237816   3.673   2.713  11.266 -0.3643  0.4876 -0.2165
 5442TIP3    H137817   3.638   2.625  11.282 -0.9008  0.5153 -1.1461
 5442TIP3    H237818   3.651   2.763  11.344 -0.3026 -0.1282  0.1998
 5443TIP3   OH237819   5.302   4.936   4.354 -0.1778  0.6642  0.0192
 5443TIP3    H137820   5.249   4.893   4.421 -1.6560  1.2323 -0.7579
 5443TIP3    H237821   5.360   4.867   4.321  0.8440  0.4452  2.0849
 5444TIP3   OH237822   2.358   3.398  17.045  0.4826  0.0474 -0.0311
 5444TIP3    H137823   2.397   3.467  16.992  0.6871 -1.0559 -1.3795
 5444TIP3    H237824   2.298   3.353  16.985 -0.5893 -0.1909  1.1619
 5445TIP3   OH237825   4.712   3.559   1.894 -0.8310  0.3207 -0.4680
 5445TIP3    H137826   4.650   3.628   1.919 -2.2603 -0.7559 -0.9155
 5445TIP3    H237827   4.784   3.569   1.956 -2.0926  0.7257  1.0008
 5446TIP3   OH237828   3.338   0.137   5.054 -0.6414 -0.4943 -0.0904
 5446TIP3    H137829   3.350   0.056   5.104 -1.0549  0.0562  0.9203
 5446TIP3    H237830   3.427   0.168   5.037 -0.3729  1.2108  3.5016
 5447TIP3   OH237831   4.337   2.526   1.842  0.5964  0.2055  0.8172
 5447TIP3    H137832   4.406   2.477   1.888 -0.4281 -1.3968  0.7139
 5447TIP3    H237833   4.337   2.490   1.753 -0.0264  0.5829  0.6575
 5448TIP3   OH237834   4.971   6.258  15.117 -0.3512  0.3698  0.9845
 5448TIP3    H137835   4.909   6.268  15.045 -0.8060 -0.8612  1.1792
 5448TIP3    H237836   5.021   6.180  15.095  0.0216  0.4154  1.6317
 5449TIP3   OH237837   3.375   5.817   3.713 -0.1352 -0.5437  0.2742
 5449TIP3    H137838   3.458   5.858   3.740 -0.6408  0.7180 -0.0151
 5449TIP3    H237839   3.345   5.870   3.639 -1.6698 -0.4132  0.9665
 5450TIP3   OH237840   3.780   2.248  16.146 -0.5759 -0.3811 -0.3159
 5450TIP3    H137841   3.842   2.194  16.194  0.0083  1.6599  1.3572
 5450TIP3    H237842   3.834   2.318  16.108 -1.6096  0.4426 -0.3047
 5451TIP3   OH237843   3.220   3.028   3.751  0.1418  0.1664  0.7401
 5451TIP3    H137844   3.148   3.055   3.809  0.9917  3.2369  0.5210
 5451TIP3    H237845   3.271   2.967   3.804 -1.5546 -0.6234  1.5562
 5452TIP3   OH237846   4.458   5.346   5.110  0.1261 -0.3504  0.7499
 5452TIP3    H137847   4.434   5.351   5.203 -1.7823  2.1861  0.2013
 5452TIP3    H237848   4.539   5.397   5.104 -0.2322  0.2321  0.8695
 5453TIP3   OH237849   5.551   6.752  13.982  0.1262  0.5041 -0.3141
 5453TIP3    H137850   5.589   6.677  14.030 -1.3180 -0.7723 -1.0780
 5453TIP3    H237851   5.532   6.717  13.895  0.3483  2.0839 -1.0307
 5454TIP3   OH237852   5.365   1.811   0.452 -0.0415  0.2151 -0.2115
 5454TIP3    H137853   5.341   1.778   0.365  0.9891 -0.1101 -0.3871
 5454TIP3    H237854   5.282   1.840   0.490 -0.8117 -1.3603 -0.5716
 5455TIP3   OH237855   4.930   6.605   0.087 -0.5394  0.6160 -0.2585
 5455TIP3    H137856   5.023   6.617   0.065 -0.4245 -0.1947 -0.2474
 5455TIP3    H237857   4.908   6.518   0.053 -0.6794 -0.1866  1.7031
 5456TIP3   OH237858   4.601   5.818   5.060 -0.2969 -0.2626  0.1078
 5456TIP3    H137859   4.528   5.837   5.119 -2.0863 -2.4121 -1.2759
 5456TIP3    H237860   4.602   5.892   5.000 -1.1145 -0.0562  0.3352
 5457TIP3   OH237861   2.153   6.279   0.712  0.7554 -0.0508 -1.1042
 5457TIP3    H137862   2.123   6.291   0.621 -1.6803 -0.7624 -0.4905
 5457TIP3    H237863   2.208   6.201   0.709 -0.5506 -0.9976 -1.7875
 5458TIP3   OH237864   0.088   5.908   4.116  0.1667  0.0809  0.4654
 5458TIP3    H137865   0.034   5.829   4.126  0.4072 -0.1662 -0.1727
 5458TIP3    H237866   0.111   5.932   4.206  0.4181 -0.8046  0.6478
 5459TIP3   OH237867   4.355   0.998  15.041 -0.5223 -0.8675  0.3410
 5459TIP3    H137868   4.314   1.085  15.043  1.3378  0.1192 -0.7643
 5459TIP3    H237869   4.305   0.950  14.975 -0.6939 -0.1313 -0.0827
 5460TIP3   OH237870   4.818   2.692  12.417 -0.6160 -0.2091  0.3324
 5460TIP3    H137871   4.901   2.704  12.370 -0.2735 -0.9696  0.7217
 5460TIP3    H237872   4.829   2.609  12.463 -1.6536 -0.3755  0.2906
 5461TIP3   OH237873   5.784   1.024   5.006  0.0922 -0.3012  0.5500
 5461TIP3    H137874   5.725   1.099   5.001 -0.3266 -0.6479  0.2241
 5461TIP3    H237875   5.858   1.055   5.059  0.7839  0.9255 -1.0394
 5462TIP3   OH237876   0.745   3.394   2.880  0.0853  0.3539 -0.0604
 5462TIP3    H137877   0.777   3.466   2.935 -2.3203  1.9384 -0.5977
 5462TIP3    H237878   0.680   3.349   2.934  0.1942 -0.2313 -0.4078
 5463TIP3   OH237879   4.228   5.840   2.363  0.5605  0.1131 -0.0569
 5463TIP3    H137880   4.186   5.833   2.450  0.6775  0.4112  0.0226
 5463TIP3    H237881   4.227   5.933   2.343 -0.7447 -0.0661 -1.0060
 5464TIP3   OH237882   3.026   6.787   4.931 -0.1713 -0.2491 -0.0386
 5464TIP3    H137883   2.946   6.788   4.984  0.4345  1.7378  0.9091
 5464TIP3    H237884   3.006   6.726   4.860 -1.6651 -1.5953  1.4441
 5465TIP3   OH237885   5.361   6.523   6.811  0.1717 -0.3188  0.2907
 5465TIP3    H137886   5.284   6.469   6.791  0.1736 -0.2556  0.1162
 5465TIP3    H237887   5.334   6.611   6.787 -0.5625  0.1032  2.4508
 5466TIP3   OH237888   4.275   1.306   0.508 -0.7888  0.5136  0.2877
 5466TIP3    H137889   4.251   1.376   0.447  1.3606  1.5550  0.5273
 5466TIP3    H237890   4.352   1.340   0.553 -1.5470 -0.7335  2.7188
 5467TIP3   OH237891   0.718   1.730   2.585  0.0369 -0.4981  0.2621
 5467TIP3    H137892   0.626   1.747   2.563 -0.0640  0.3161  1.2467
 5467TIP3    H237893   0.764   1.809   2.555  0.5530 -1.2299 -0.9479
 5468TIP3   OH237894   6.404   6.758  11.715 -0.1773 -0.0061  0.0611
 5468TIP3    H137895   6.355   6.785  11.793  1.1548 -1.4710  1.4766
 5468TIP3    H237896   6.408   6.662  11.721  0.9418 -0.0656 -1.1837
 5469TIP3   OH237897   2.778   0.121  12.707  0.0454 -0.3708  0.6866
 5469TIP3    H137898   2.785   0.186  12.637  0.0726  0.1796  1.1934
 5469TIP3    H237899   2.865   0.081  12.710 -0.6681 -2.2617 -1.3408
 5470TIP3   OH237900   1.464   5.568   6.092  0.5042  0.0721 -0.5815
 5470TIP3    H137901   1.394   5.508   6.119 -0.5751  1.5298  0.0054
 5470TIP3    H237902   1.540   5.541   6.144 -0.1575 -0.3509  0.1865
 5471TIP3   OH237903   5.334   5.704  15.115 -0.1196  0.6245 -0.3578
 5471TIP3    H137904   5.389   5.778  15.141 -0.1688  1.2365 -1.8898
 5471TIP3    H237905   5.293   5.732  15.033 -1.8043 -0.2800  0.1191
 5472TIP3   OH237906   1.679   1.140  12.502  0.4685 -0.6164 -0.2053
 5472TIP3    H137907   1.688   1.150  12.408  0.5212 -1.8301 -0.3402
 5472TIP3    H237908   1.616   1.069  12.513  1.5987 -1.5336  0.6472
 5473TIP3   OH237909   4.947   4.305  15.634  0.4965 -0.4510 -0.2806
 5473TIP3    H137910   4.855   4.283  15.648 -0.0320  0.8609 -1.4422
 5473TIP3    H237911   4.987   4.222  15.607 -0.0917 -1.2594  1.2134
 5474TIP3   OH237912   0.521   0.017   2.122 -0.2847 -0.0970  0.0776
 5474TIP3    H137913   0.513  -0.053   2.057 -0.0315  0.0566 -0.1215
 5474TIP3    H237914   0.600   0.065   2.096  0.0125 -0.2401  0.6993
 5475TIP3   OH237915   2.500   2.690   6.344 -0.5100 -0.4559 -0.4242
 5475TIP3    H137916   2.419   2.648   6.369 -0.3981 -0.1894  0.4006
 5475TIP3    H237917   2.515   2.756   6.411 -0.6384  0.8517 -1.6225
 5476TIP3   OH237918   4.346   2.278   1.206 -0.1157 -0.4913 -0.3404
 5476TIP3    H137919   4.378   2.191   1.230  1.1364  0.1644  0.4419
 5476TIP3    H237920   4.323   2.270   1.113  1.0558 -1.3615 -0.5773
 5477TIP3   OH237921   4.750   2.838   1.683 -0.1503  0.2670 -0.4341
 5477TIP3    H137922   4.660   2.863   1.703 -0.1063  0.3325 -0.3149
 5477TIP3    H237923   4.750   2.818   1.590 -0.7709 -1.7523 -0.0528
 5478TIP3   OH237924   6.117   4.739  13.894  0.3097  0.3432 -0.5852
 5478TIP3    H137925   6.107   4.777  13.981 -1.4799 -1.3510  0.0275
 5478TIP3    H237926   6.040   4.768  13.845  0.8919  0.6263 -1.3650
 5479TIP3   OH237927   1.318   1.676  16.832  0.0410  0.7128  0.1565
 5479TIP3    H137928   1.252   1.624  16.877  0.6076 -0.2115 -0.0495
 5479TIP3    H237929   1.279   1.695  16.747  1.8799 -4.4695 -2.3114
 5480TIP3   OH237930   6.685   0.056   0.321 -0.0221 -0.6961  0.3304
 5480TIP3    H137931   6.741  -0.006   0.368 -1.3065 -1.3653  1.0451
 5480TIP3    H237932   6.728   0.067   0.236  2.2965  0.4558  1.5476
 5481TIP3   OH237933   0.604   2.973   3.132 -0.0249 -0.6942 -0.4524
 5481TIP3    H137934   0.581   2.901   3.073  1.1254 -0.3432 -1.3666
 5481TIP3    H237935   0.698   2.964   3.145 -0.4204 -1.4836  2.3471
 5482TIP3   OH237936   2.352   4.927  13.819  0.7021  0.5057 -0.7547
 5482TIP3    H137937   2.434   4.944  13.864  0.4176  0.1839 -0.0947
 5482TIP3    H237938   2.287   4.977  13.868  0.3428 -0.0539 -0.6474
 5483TIP3   OH237939   4.358   5.749  12.689  0.3750 -0.1946  0.1070
 5483TIP3    H137940   4.442   5.787  12.714 -0.4568  1.7947  0.0463
 5483TIP3    H237941   4.300   5.824  12.679 -2.1186 -1.6026  2.6020
 5484TIP3   OH237942   1.312   3.243   0.529 -0.0275 -0.2389 -0.4583
 5484TIP3    H137943   1.249   3.171   0.520 -0.5199  0.1082  0.1027
 5484TIP3    H237944   1.369   3.235   0.453 -1.8358  0.5179 -1.9802
 5485TIP3   OH237945   0.734   1.433   3.432 -0.2613  0.1678 -0.3777
 5485TIP3    H137946   0.827   1.457   3.438  0.2914 -1.7718 -0.5432
 5485TIP3    H237947   0.723   1.402   3.343 -1.1199  0.5085 -0.3949
 5486TIP3   OH237948   1.404   1.945   2.112  0.1988  0.2886 -0.0549
 5486TIP3    H137949   1.364   1.962   2.197  0.2459  0.8654 -0.1474
 5486TIP3    H237950   1.497   1.931   2.132 -0.0923 -1.5949  0.2302
 5487TIP3   OH237951   4.464   4.459   2.604  0.0089  0.7348 -0.7583
 5487TIP3    H137952   4.369   4.449   2.606  0.1609 -0.6827  0.4195
 5487TIP3    H237953   4.478   4.554   2.600 -1.4511  1.0756  1.0183
 5488TIP3   OH237954   0.508   4.455   1.124  0.1957 -0.6807  0.3378
 5488TIP3    H137955   0.509   4.387   1.056 -1.3229  2.0271 -2.6536
 5488TIP3    H237956   0.582   4.511   1.102 -0.3583  0.2694  0.8797
 5489TIP3   OH237957   1.131   0.064   5.585  0.0744  0.0827  0.1296
 5489TIP3    H137958   1.140  -0.028   5.563  0.7148  0.2890 -0.4852
 5489TIP3    H237959   1.055   0.094   5.535 -0.2949 -0.1698  0.5337
 5490TIP3   OH237960   3.010   5.343  12.706  0.3153  0.1581  0.1120
 5490TIP3    H137961   2.938   5.283  12.686  2.1083 -2.3743  0.6326
 5490TIP3    H237962   3.083   5.311  12.652  1.4166  1.8127  0.5549
 5491TIP3   OH237963   3.923   2.312  12.034 -0.1474  0.1260  0.2544
 5491TIP3    H137964   3.852   2.254  12.007  0.9313 -0.1611 -2.2082
 5491TIP3    H237965   3.959   2.347  11.952  1.0987  2.0315  1.5280
 5492TIP3   OH237966   0.070   4.221   3.524  0.1026 -0.1729  0.0558
 5492TIP3    H137967   0.098   4.185   3.440 -0.0160  0.3706 -0.2204
 5492TIP3    H237968  -0.026   4.221   3.520  0.1006  0.4410 -0.0733
 5493TIP3   OH237969   2.129   4.575  14.966 -0.1949  0.6585  0.0150
 5493TIP3    H137970   2.078   4.507  14.923 -2.1572  2.0383  0.0217
 5493TIP3    H237971   2.115   4.560  15.060  2.0332 -0.8143  0.2039
 5494TIP3   OH237972   4.265   4.157   5.228  0.1692  0.3614 -0.0170
 5494TIP3    H137973   4.314   4.217   5.171 -0.0223  1.0122  0.4865
 5494TIP3    H237974   4.184   4.140   5.181  0.7633 -0.5308 -0.7477
 5495TIP3   OH237975   5.968   3.298  11.330 -0.0131  0.2768  0.0441
 5495TIP3    H137976   5.899   3.231  11.326  0.0756  0.2537 -2.5708
 5495TIP3    H237977   6.049   3.248  11.322  0.1604  0.5390  0.1806
 5496TIP3   OH237978   5.321   4.922  14.029 -0.2930 -0.3237 -0.1741
 5496TIP3    H137979   5.255   4.952  14.091  0.6322  0.3969  0.5024
 5496TIP3    H237980   5.359   5.002  13.993 -1.3655 -0.7114 -2.3374
 5497TIP3   OH237981   6.436   0.228  13.741 -0.5204  0.0834 -0.3709
 5497TIP3    H137982   6.415   0.141  13.776  2.6862  0.1958  2.2214
 5497TIP3    H237983   6.531   0.233  13.742 -0.5565  3.4933 -0.8968
 5498TIP3   OH237984   6.239   6.099   1.354 -0.5609  0.1339  0.0242
 5498TIP3    H137985   6.181   6.176   1.346 -1.0773 -0.0630  1.6359
 5498TIP3    H237986   6.188   6.036   1.405  1.5228  0.4680  2.7337
 5499TIP3   OH237987   4.764   4.996  13.844 -0.0186 -0.7224 -0.3504
 5499TIP3    H137988   4.704   5.069  13.858  0.8754  0.1099 -0.7350
 5499TIP3    H237989   4.712   4.918  13.864 -0.3868  0.0905  2.1526
 5500TIP3   OH237990   0.523   3.582  14.949 -0.0636 -0.0981 -0.0017
 5500TIP3    H137991   0.569   3.598  14.866 -1.0341  0.1057 -0.5084
 5500TIP3    H237992   0.589   3.599  15.016  0.6902 -0.1074 -0.7227
 5501TIP3   OH237993   6.074   4.206  14.656 -0.2936  0.1516 -0.4190
 5501TIP3    H137994   6.111   4.251  14.732 -0.1647  0.8155 -0.8600
 5501TIP3    H237995   5.981   4.228  14.657 -0.2618  0.2959 -0.5391
 5502TIP3   OH237996   6.215   1.260   5.017 -0.0061  0.6980 -0.3712
 5502TIP3    H137997   6.310   1.272   5.016  0.2486 -0.6139  1.6492
 5502TIP3    H237998   6.185   1.313   5.091 -0.8355  0.9079 -0.8380
 5503TIP3   OH237999   3.942   4.437  16.339 -0.3592  0.5569  0.0535
 5503TIP3    H138000   3.925   4.427  16.432 -1.8125  0.8202 -0.1685
 5503TIP3    H238001   3.865   4.400  16.296  0.3306  0.3526 -1.0532
 5504TIP3   OH238002   6.810   1.083  16.013 -0.5961 -0.0293  0.4369
 5504TIP3    H138003   6.784   1.174  16.027  0.1625  0.3955 -0.7490
 5504TIP3    H238004   6.857   1.084  15.930 -0.0829 -1.4136  0.6812
 5505TIP3   OH238005   2.229   4.218   0.144  0.3830 -0.7322 -0.1468
 5505TIP3    H138006   2.211   4.246   0.234  1.0676 -0.3579 -0.1170
 5505TIP3    H238007   2.324   4.224   0.136  0.3411 -0.9244 -0.8450
 5506TIP3   OH238008   3.044   5.230   4.053  0.0518  0.2473 -0.3086
 5506TIP3    H138009   3.057   5.302   3.992 -1.8822 -0.5558 -1.7846
 5506TIP3    H238010   3.132   5.208   4.084  0.7558  2.7231 -0.3519
 5507TIP3   OH238011   5.653   0.096   5.644 -0.1563  0.2356 -0.0747
 5507TIP3    H138012   5.574   0.149   5.639  0.4360  1.1669  0.2259
 5507TIP3    H238013   5.724   0.159   5.656  0.3400 -0.7077  2.6491
 5508TIP3   OH238014   3.310   4.794   0.334 -0.3899 -0.3150 -0.2016
 5508TIP3    H138015   3.316   4.788   0.239  0.8489 -0.4994 -0.1372
 5508TIP3    H238016   3.338   4.708   0.365 -1.7697 -0.5937  0.3133
 5509TIP3   OH238017   6.703   0.556   2.503 -0.2488 -0.1345 -0.2715
 5509TIP3    H138018   6.625   0.604   2.530 -0.2809 -0.9245  1.1378
 5509TIP3    H238019   6.670   0.479   2.456 -0.6789 -2.5533  3.5156
 5510TIP3   OH238020   0.621   4.210   6.863 -0.0479 -0.0390  0.0672
 5510TIP3    H138021   0.703   4.194   6.910 -0.9332 -2.8819  0.8555
 5510TIP3    H238022   0.587   4.292   6.900  1.4272  0.1047  1.1886
 5511TIP3   OH238023   4.730   3.531   5.990 -0.3384  0.1774 -0.0757
 5511TIP3    H138024   4.807   3.587   5.997  0.3195 -0.2844 -2.5306
 5511TIP3    H238025   4.730   3.480   6.071 -1.1005  3.7085  2.3824
 5512TIP3   OH238026   0.165   4.343  15.289  0.0163 -0.1611  0.0228
 5512TIP3    H138027   0.123   4.379  15.210 -2.6692  0.5994  1.6587
 5512TIP3    H238028   0.206   4.262  15.259 -0.8909  0.0996 -2.1695
 5513TIP3   OH238029   6.386   4.520   2.462 -0.7253 -0.0392  0.5665
 5513TIP3    H138030   6.450   4.590   2.473  0.4342 -0.8216 -0.8772
 5513TIP3    H238031   6.356   4.529   2.371 -1.7316 -0.4707  0.8414
 5514TIP3   OH238032   5.281   4.140  12.908  0.1136 -0.1939  0.4490
 5514TIP3    H138033   5.192   4.159  12.877  1.2740  3.1669 -1.3984
 5514TIP3    H238034   5.278   4.160  13.001 -1.0479 -0.0448  0.4034
 5515TIP3   OH238035   6.245   1.582  15.703  0.0773  0.5179 -0.3700
 5515TIP3    H138036   6.220   1.604  15.613 -2.6718  0.2053  0.2319
 5515TIP3    H238037   6.170   1.532  15.737  1.8815 -1.1116  1.4719
 5516TIP3   OH238038   3.428   4.747   1.306 -0.4476 -0.1773  0.6614
 5516TIP3    H138039   3.358   4.717   1.248  0.0665  0.2534 -0.1907
 5516TIP3    H238040   3.403   4.837   1.329  0.3446  0.3618 -0.5027
 5517TIP3   OH238041   3.199   4.052   0.876  0.3607  0.0488  0.1338
 5517TIP3    H138042   3.140   4.110   0.828 -0.7763 -0.8504  0.3943
 5517TIP3    H238043   3.285   4.095   0.871  0.3130 -0.0254 -2.7198
 5518TIP3   OH238044   2.039   2.860   1.811  1.2747  0.2774  0.2065
 5518TIP3    H138045   2.117   2.915   1.799  1.4649 -0.1622 -0.6924
 5518TIP3    H238046   1.965   2.917   1.790  1.4339  0.3548 -0.1518
 5519TIP3   OH238047   5.709   4.272   3.575  0.4523  0.0577 -0.1549
 5519TIP3    H138048   5.754   4.357   3.581 -1.2318  1.0298 -0.5032
 5519TIP3    H238049   5.643   4.275   3.644  1.5459 -1.7676  1.0339
 5520TIP3   OH238050   0.238   0.897   2.469 -0.3717 -0.1216  0.2545
 5520TIP3    H138051   0.263   0.939   2.387 -0.0545  3.0003  1.7812
 5520TIP3    H238052   0.151   0.861   2.452 -0.7087  1.2685 -1.1892
 5521TIP3   OH238053   5.005   1.473   3.215  0.8060 -0.2758 -0.3525
 5521TIP3    H138054   4.941   1.439   3.153  2.1258 -0.9996 -1.3898
 5521TIP3    H238055   5.058   1.534   3.163  1.9134 -0.8630  0.0469
 5522TIP3   OH238056   1.689   2.755   5.676 -0.4345  0.1731  0.2578
 5522TIP3    H138057   1.776   2.764   5.637 -0.4356  0.2532  0.2742
 5522TIP3    H238058   1.707   2.729   5.767 -0.3885  1.4785  0.6399
 5523TIP3   OH238059   4.921   4.659  13.891 -0.2728 -0.7177  0.5264
 5523TIP3    H138060   4.968   4.632  13.813  0.0216  1.4149 -0.0890
 5523TIP3    H238061   4.989   4.691  13.951 -0.7915  2.6535 -0.4771
 5524TIP3   OH238062   0.401   1.970   6.329  0.1930  0.1813 -0.4428
 5524TIP3    H138063   0.387   1.877   6.347  0.2820  0.2286 -0.1321
 5524TIP3    H238064   0.338   1.990   6.259 -0.4923  0.1159  0.1439
 5525TIP3   OH238065   5.524   4.452  16.606 -0.2984 -0.4336 -0.3400
 5525TIP3    H138066   5.451   4.450  16.544  1.9731  2.1453 -3.4339
 5525TIP3    H238067   5.541   4.545  16.620 -0.2720 -0.9065  3.8624
 5526TIP3   OH238068   4.334   2.330  14.112 -0.1000  0.9091 -0.8157
 5526TIP3    H138069   4.345   2.334  14.207  0.2469  1.2660 -0.8670
 5526TIP3    H238070   4.280   2.252  14.097  1.4857 -0.3018 -0.4650
 5527TIP3   OH238071   0.993   0.273  16.635  0.0293 -0.3501 -0.6501
 5527TIP3    H138072   1.075   0.318  16.656 -2.3742  3.1901  2.3964
 5527TIP3    H238073   0.982   0.209  16.705 -0.0550 -0.4986 -0.7979
 5528TIP3   OH238074   5.678   3.328  13.828 -0.4288  1.1112 -0.5097
 5528TIP3    H138075   5.672   3.420  13.853  0.1579  0.9248  0.3291
 5528TIP3    H238076   5.762   3.298  13.861 -0.2413  0.4764 -1.4879
 5529TIP3   OH238077   0.572   0.534  14.508 -0.1061  0.5656  0.4842
 5529TIP3    H138078   0.578   0.556  14.601 -2.9849  1.0224  0.6657
 5529TIP3    H238079   0.648   0.478  14.491 -0.2833 -0.7413  3.4701
 5530TIP3   OH238080   4.963   1.936   3.924 -0.1432  0.3166 -0.0199
 5530TIP3    H138081   4.885   1.928   3.978 -0.5310 -0.4382 -0.6638
 5530TIP3    H238082   4.951   2.017   3.875  0.5329  1.3746  1.4918
 5531TIP3   OH238083   1.946   4.361   2.919 -0.4488  0.2763 -0.1878
 5531TIP3    H138084   1.980   4.287   2.970  1.6109  1.9970  1.1752
 5531TIP3    H238085   1.984   4.350   2.832  0.1232 -0.0993  0.1036
 5532TIP3   OH238086   4.463   1.770  11.577  0.6052  0.1419  0.8119
 5532TIP3    H138087   4.461   1.791  11.670 -0.4597  0.1195  0.8088
 5532TIP3    H238088   4.417   1.843  11.535  0.5671 -0.1315  0.3688
 5533TIP3   OH238089   2.541   6.355   0.705  0.0249 -0.1052 -0.4864
 5533TIP3    H138090   2.534   6.371   0.799 -0.6900  0.7731 -0.6816
 5533TIP3    H238091   2.635   6.350   0.688  0.1905  0.9183  0.0837
 5534TIP3   OH238092   5.816   3.515   5.242  0.0994 -0.2113 -0.4634
 5534TIP3    H138093   5.730   3.516   5.199  0.9119 -1.3034 -2.1832
 5534TIP3    H238094   5.795   3.524   5.336 -1.8888 -0.5726 -0.8230
 5535TIP3   OH238095   3.846   2.450  17.004  0.1248 -0.2829  0.4307
 5535TIP3    H138096   3.776   2.504  17.040  1.3711  0.8387  1.2513
 5535TIP3    H238097   3.843   2.467  16.910 -0.0692  0.5205  0.5764
 5536TIP3   OH238098   4.218   5.131   4.103  0.7371 -0.8928 -0.6022
 5536TIP3    H138099   4.202   5.127   4.009  0.2885  1.6198 -0.6962
 5536TIP3    H238100   4.138   5.096   4.142 -0.5023  1.1605 -1.1805
 5537TIP3   OH238101   0.711   2.873   4.163  0.2621  0.6911  0.1604
 5537TIP3    H138102   0.643   2.812   4.135 -0.7230  1.6109  0.4882
 5537TIP3    H238103   0.713   2.941   4.095  0.4188  0.9964  0.4653
 5538TIP3   OH238104   2.495   6.214  16.511  0.2613 -0.4531  0.3444
 5538TIP3    H138105   2.414   6.262  16.531  0.1380 -1.0462  1.3536
 5538TIP3    H238106   2.515   6.237  16.420 -0.0327  1.1462  0.6534
 5539TIP3   OH238107   1.040   5.564   6.122 -0.2744  0.1428 -0.7512
 5539TIP3    H138108   1.120   5.512   6.116 -0.8077 -0.7116 -0.4911
 5539TIP3    H238109   0.969   5.502   6.108 -0.9258  0.7890 -0.3757
 5540TIP3   OH238110   1.763   5.579  12.787 -0.0304 -0.0859  0.0310
 5540TIP3    H138111   1.797   5.662  12.754  0.5501 -0.4574 -0.3164
 5540TIP3    H238112   1.743   5.528  12.708 -1.6390  0.2136  0.2117
 5541TIP3   OH238113   6.604   1.581  15.384 -0.3865  0.5108 -0.4284
 5541TIP3    H138114   6.562   1.655  15.429  1.2173  0.8206  0.6365
 5541TIP3    H238115   6.605   1.606  15.292 -0.0119  1.7593 -0.0998
 5542TIP3   OH238116   5.010   6.051   5.752  0.4657  0.0737  0.1182
 5542TIP3    H138117   5.033   6.074   5.842  1.3134 -0.9029  0.1803
 5542TIP3    H238118   4.934   5.994   5.761  0.8836 -0.4700  0.2682
 5543TIP3   OH238119   5.302   3.976  14.562  0.3724 -0.2989 -0.2196
 5543TIP3    H138120   5.245   4.043  14.524  1.5826  0.8691 -0.0419
 5543TIP3    H238121   5.282   3.976  14.655 -0.4198 -1.0003 -0.3761
 5544TIP3   OH238122   3.462   4.402   1.293  0.0635  0.2290 -0.1690
 5544TIP3    H138123   3.556   4.384   1.280  0.5179  0.4750  2.2889
 5544TIP3    H238124   3.439   4.463   1.223  1.3430 -0.9906 -1.7319
 5545TIP3   OH238125   0.738   4.392  12.711 -0.5569  0.4871 -0.4125
 5545TIP3    H138126   0.655   4.345  12.723  0.6994 -1.5237  0.9826
 5545TIP3    H238127   0.785   4.341  12.645  0.4138  0.3685  0.3517
 5546TIP3   OH238128   2.799   2.439  16.835 -0.1130  0.2090 -0.4651
 5546TIP3    H138129   2.710   2.410  16.819  0.6522 -2.6325 -0.0436
 5546TIP3    H238130   2.822   2.490  16.757 -1.5500 -0.3937 -1.3169
 5547TIP3   OH238131   3.939   5.735   6.719  0.1413 -0.1951  0.5806
 5547TIP3    H138132   3.943   5.814   6.666  0.7179  0.0588  0.9905
 5547TIP3    H238133   3.991   5.671   6.671 -1.0536 -0.6157 -0.2029
 5548TIP3   OH238134   2.605   2.037  14.935 -0.1130  0.0876 -0.3409
 5548TIP3    H138135   2.582   2.126  14.908 -0.0492  0.1982 -0.0378
 5548TIP3    H238136   2.689   2.046  14.980  1.5901 -0.5885 -3.1525
 5549TIP3   OH238137   3.281   1.762   6.439  0.4636 -0.2876 -0.2395
 5549TIP3    H138138   3.226   1.756   6.517  0.4600 -0.9897 -0.2861
 5549TIP3    H238139   3.265   1.679   6.393  1.9535 -0.7461  0.0191
 5550TIP3   OH238140   4.389   3.522   5.723 -0.4784 -0.2422  0.6578
 5550TIP3    H138141   4.431   3.571   5.793 -1.7268  1.9206 -0.0267
 5550TIP3    H238142   4.441   3.543   5.645 -1.4934  0.7093  0.2114
 5551TIP3   OH238143   6.470   3.356   5.744 -0.0888 -0.4901  0.5140
 5551TIP3    H138144   6.405   3.426   5.744  1.1748  0.8355 -2.2226
 5551TIP3    H238145   6.552   3.400   5.720  0.8531 -2.8137 -0.8244
 5552TIP3   OH238146   3.219   4.917  15.599 -0.1222 -0.1226  0.7239
 5552TIP3    H138147   3.191   4.871  15.678  2.7140  0.5487  2.2727
 5552TIP3    H238148   3.181   4.868  15.526 -0.1463 -2.7546  2.4026
 5553TIP3   OH238149   2.061   2.534  11.871 -0.1677  0.1889 -0.6519
 5553TIP3    H138150   2.013   2.534  11.788 -1.3895 -0.1965  0.0267
 5553TIP3    H238151   2.034   2.616  11.913 -0.5807 -0.2462 -0.0667
 5554TIP3   OH238152   3.987   4.017   5.619 -0.1795 -0.3660 -0.1800
 5554TIP3    H138153   4.049   3.945   5.628  1.0979  0.6918 -0.1194
 5554TIP3    H238154   3.979   4.053   5.707  0.1750  0.3462 -0.4352
 5555TIP3   OH238155   0.228   2.022   0.857  0.2127 -0.1978 -0.2886
 5555TIP3    H138156   0.310   1.990   0.893 -0.8964 -0.7187  2.0224
 5555TIP3    H238157   0.226   2.115   0.880 -0.3125 -0.4398  0.7214
 5556TIP3   OH238158   4.076   2.589   3.840  0.0053 -0.2332  0.1940
 5556TIP3    H138159   4.016   2.632   3.902 -0.9462 -0.5951 -0.4479
 5556TIP3    H238160   4.163   2.620   3.865 -0.1546 -1.6114  2.7554
 5557TIP3   OH238161   6.645   2.776   4.200 -0.3069 -0.0195 -0.4224
 5557TIP3    H138162   6.558   2.797   4.168 -0.7610  0.9494  1.2912
 5557TIP3    H238163   6.701   2.845   4.164 -0.5258  0.1787 -0.3856
 5558TIP3   OH238164   6.258   0.635   0.730  0.1690 -0.0158  0.5805
 5558TIP3    H138165   6.305   0.689   0.666  0.6619 -1.1309 -0.0132
 5558TIP3    H238166   6.306   0.648   0.812  0.2261  0.5155  0.4676
 5559TIP3   OH238167   3.351   1.591   6.001 -0.3395  0.5483  0.1600
 5559TIP3    H138168   3.435   1.584   6.047 -1.3267  0.9614  2.1199
 5559TIP3    H238169   3.324   1.500   5.987 -0.0305  0.4150  0.4146
 5560TIP3   OH238170   1.107   5.763  15.528 -0.2746 -0.3753 -0.4272
 5560TIP3    H138171   1.113   5.667  15.521  0.9697 -0.3683  0.2202
 5560TIP3    H238172   1.168   5.785  15.598 -1.7848  0.7703  0.5587
 5561TIP3   OH238173   4.631   0.388   1.015 -0.5569  0.3801 -0.0759
 5561TIP3    H138174   4.642   0.480   1.039 -1.6550  0.9755 -1.7219
 5561TIP3    H238175   4.610   0.344   1.098 -0.0741  1.6037  0.7226
 5562TIP3   OH238176   6.599   6.648  13.672 -0.0396  0.2796 -0.0437
 5562TIP3    H138177   6.663   6.577  13.671  2.1058  2.0728 -2.0346
 5562TIP3    H238178   6.648   6.724  13.703 -1.8646  1.2701  0.5944
 5563TIP3   OH238179   5.597   4.284   3.167  0.1139 -0.0380 -0.1857
 5563TIP3    H138180   5.555   4.322   3.090 -1.3464 -0.6395  0.2884
 5563TIP3    H238181   5.597   4.190   3.152  0.5818 -0.1049  0.1846
 5564TIP3   OH238182   1.015   5.054  14.183 -0.2538 -0.1355 -0.7289
 5564TIP3    H138183   0.921   5.065  14.168 -0.1909 -0.6515 -1.5155
 5564TIP3    H238184   1.034   5.112  14.257 -1.4515 -1.0832  0.3473
 5565TIP3   OH238185   2.146   0.687   5.173 -0.6913  0.1087  0.1487
 5565TIP3    H138186   2.235   0.657   5.154 -0.5664  0.8556 -0.4878
 5565TIP3    H238187   2.133   0.666   5.266  0.1477  0.0018  0.2503
 5566TIP3   OH238188   1.278   0.855  16.250 -0.6491 -0.6032 -0.2293
 5566TIP3    H138189   1.264   0.761  16.240  1.8407 -0.9900 -0.6606
 5566TIP3    H238190   1.373   0.865  16.259 -0.7897  1.9122 -0.6598
 5567TIP3   OH238191   5.770   5.220   0.498 -0.3719  0.2714  0.1034
 5567TIP3    H138192   5.778   5.278   0.422  0.4705  0.3992  0.2807
 5567TIP3    H238193   5.675   5.208   0.509 -0.5174 -1.2067 -2.0561
 5568TIP3   OH238194   3.265   1.378   3.172  0.2202 -0.3861 -0.2578
 5568TIP3    H138195   3.352   1.343   3.188  0.6496 -0.0698 -1.7104
 5568TIP3    H238196   3.245   1.430   3.249  2.1455  1.1159 -0.7012
 5569TIP3   OH238197   4.083   1.928   0.780 -0.0706 -0.2696  0.4365
 5569TIP3    H138198   4.160   1.938   0.837  0.0013 -0.2266  0.3325
 5569TIP3    H238199   4.106   1.854   0.723  0.0285 -0.0476  0.1877
 5570TIP3   OH238200   2.505   2.445   1.764 -0.0917 -0.0144 -0.0532
 5570TIP3    H138201   2.448   2.497   1.821  0.6281  1.9441 -1.0321
 5570TIP3    H238202   2.485   2.477   1.676  0.4424 -1.3799 -0.6939
 5571TIP3   OH238203   0.741   4.966  13.143 -0.3396 -0.1754 -0.4682
 5571TIP3    H138204   0.739   5.059  13.121 -1.9264 -0.0506  0.0649
 5571TIP3    H238205   0.663   4.930  13.102  0.7491 -1.4978 -1.4878
 5572TIP3   OH238206   5.030   5.608  12.871 -0.4131 -0.3724 -0.5680
 5572TIP3    H138207   4.993   5.520  12.880  0.2272 -0.8590 -2.3234
 5572TIP3    H238208   5.123   5.597  12.891 -0.7615  0.4849  1.9358
 5573TIP3   OH238209   0.730   3.663  12.155 -0.4115 -0.2493 -0.2387
 5573TIP3    H138210   0.640   3.693  12.142 -0.3027  0.1817 -0.0155
 5573TIP3    H238211   0.783   3.726  12.105 -0.2483 -0.6263 -0.5430
 5574TIP3   OH238212   0.400   5.953   5.601  0.2987 -0.2844  0.2188
 5574TIP3    H138213   0.483   5.935   5.644  1.3532 -1.3383 -2.1022
 5574TIP3    H238214   0.339   5.890   5.640  1.4938 -1.9890 -0.5583
 5575TIP3   OH238215   4.369   1.194  11.553 -0.6082  0.2327  0.3258
 5575TIP3    H138216   4.456   1.231  11.539  0.2180 -0.8551  2.2370
 5575TIP3    H238217   4.333   1.244  11.626 -0.8114 -0.5456  0.7696
 5576TIP3   OH238218   5.010   1.789   0.963 -0.4574  0.3985  0.4257
 5576TIP3    H138219   4.943   1.789   0.894  1.2842  0.5176 -1.3592
 5576TIP3    H238220   5.069   1.717   0.938  0.6745  0.9913  1.3295
 5577TIP3   OH238221   2.362   4.574  14.652  0.6690  0.2559  0.0187
 5577TIP3    H138222   2.394   4.592  14.741  0.6321 -0.5970  0.2082
 5577TIP3    H238223   2.428   4.516  14.615 -0.3427 -1.0493  0.2045
 5578TIP3   OH238224   5.427   3.131   0.047  0.6028  0.0747 -0.1880
 5578TIP3    H138225   5.482   3.070   0.097  1.0182  1.7263  1.4889
 5578TIP3    H238226   5.460   3.217   0.072 -2.8331  1.1770  1.0575
 5579TIP3   OH238227   2.929   6.681   0.171 -0.1949  0.3678  0.6159
 5579TIP3    H138228   2.947   6.772   0.148  0.1211 -0.2735 -2.0659
 5579TIP3    H238229   3.012   6.648   0.207  0.1231  0.8084  0.2985
 5580TIP3   OH238230   3.572   6.110  11.702 -0.3799  0.0310  0.2128
 5580TIP3    H138231   3.633   6.164  11.651 -0.4681 -0.0486  0.0223
 5580TIP3    H238232   3.497   6.097  11.644 -1.4515  1.7645  1.1504
 5581TIP3   OH238233   4.126   3.382   1.305  0.2723 -0.0699 -0.6386
 5581TIP3    H138234   4.208   3.425   1.331  0.1059  0.1326 -0.4477
 5581TIP3    H238235   4.057   3.439   1.339  0.0414 -0.8214  0.1807
 5582TIP3   OH238236   6.739   1.897   0.663 -0.3635  0.5367  0.3623
 5582TIP3    H138237   6.658   1.889   0.613 -1.0960  1.1262  1.4296
 5582TIP3    H238238   6.716   1.950   0.739  1.3126  1.7700  0.0722
 5583TIP3   OH238239   2.056   6.104   3.605 -0.2744  0.2644 -0.2179
 5583TIP3    H138240   2.058   6.054   3.687 -0.2476  1.1776  0.3436
 5583TIP3    H238241   1.963   6.125   3.592 -0.0881  1.6070  0.5025
 5584TIP3   OH238242   6.019   2.644   5.246 -0.2741  0.0662 -0.2538
 5584TIP3    H138243   6.093   2.601   5.290 -1.5461  0.0313  1.9896
 5584TIP3    H238244   6.013   2.729   5.289 -1.7161 -0.0479 -0.2035
 5585TIP3   OH238245   5.031   1.921   0.448  0.3685  0.2260 -0.1758
 5585TIP3    H138246   5.044   1.840   0.496  0.5174  0.5460  0.3332
 5585TIP3    H238247   5.026   1.895   0.356 -2.4368 -0.7140  0.1518
 5586TIP3   OH238248   2.353   1.183   3.684 -0.2098  0.6709  0.1488
 5586TIP3    H138249   2.353   1.270   3.725 -0.4537  1.2580 -1.0497
 5586TIP3    H238250   2.307   1.127   3.747  1.2748  1.0443  1.6271
 5587TIP3   OH238251   2.447   4.334   4.791 -0.4812 -0.0659 -0.0941
 5587TIP3    H138252   2.409   4.307   4.874 -0.8082 -1.1918 -0.5826
 5587TIP3    H238253   2.382   4.308   4.726  0.3232 -0.3486 -0.8044
 5588TIP3   OH238254   4.428   1.557   5.887  0.2595 -0.2507 -0.1203
 5588TIP3    H138255   4.483   1.484   5.860 -0.2602 -0.2102 -1.3437
 5588TIP3    H238256   4.410   1.540   5.979 -0.1876 -1.8893 -0.4826
 5589TIP3   OH238257   0.663   1.913   2.888  0.1556  0.3271 -0.0537
 5589TIP3    H138258   0.743   1.867   2.865 -0.7232 -1.1491 -0.2388
 5589TIP3    H238259   0.620   1.857   2.953  0.5392  2.3774  2.1141
 5590TIP3   OH238260   0.833   5.238   1.001 -0.0230 -0.1747 -0.2050
 5590TIP3    H138261   0.788   5.314   1.039 -0.5639 -0.3043 -0.5802
 5590TIP3    H238262   0.797   5.163   1.049  1.1369 -0.1439  0.7712
 5591TIP3   OH238263   3.191   2.703   6.717 -0.0596  0.2413 -0.2187
 5591TIP3    H138264   3.154   2.733   6.634  1.1089  0.5952 -0.6332
 5591TIP3    H238265   3.187   2.779   6.775  2.5029  1.1977 -1.1339
 5592TIP3   OH238266   2.407   2.593  15.340 -0.1058 -0.1629  0.4173
 5592TIP3    H138267   2.375   2.504  15.323 -0.4133  0.0699 -0.2588
 5592TIP3    H238268   2.502   2.587  15.330 -0.2974  0.1845 -2.7281
 5593TIP3   OH238269   2.850   0.185  11.120 -0.5757  0.0546 -0.6921
 5593TIP3    H138270   2.917   0.118  11.132  0.1578  0.5820 -1.6665
 5593TIP3    H238271   2.772   0.137  11.092 -0.1033 -0.4252 -1.2218
 5594TIP3   OH238272   2.173   1.997  13.372 -0.3684  0.0654  0.1436
 5594TIP3    H138273   2.099   1.998  13.312 -1.2162 -1.6924  1.0833
 5594TIP3    H238274   2.164   1.914  13.420  2.3672 -0.3607  0.0828
 5595TIP3   OH238275   5.462   4.450   0.054  0.1610 -0.2333 -0.3967
 5595TIP3    H138276   5.383   4.396   0.053 -0.4782  0.6790 -0.4172
 5595TIP3    H238277   5.430   4.540   0.045  1.0310  0.3647  1.8490
 5596TIP3   OH238278   3.246   2.619   4.975 -0.6332 -0.1544  0.1624
 5596TIP3    H138279   3.292   2.679   5.034 -0.2400 -0.3936  0.1025
 5596TIP3    H238280   3.178   2.673   4.934 -0.6237  0.1195  0.5040
 5597TIP3   OH238281   2.417   0.899   0.994  0.1540  0.1345  0.6144
 5597TIP3    H138282   2.414   0.992   1.017 -2.1147  0.0180  0.9730
 5597TIP3    H238283   2.409   0.897   0.899 -0.4007  0.2979  0.6549
 5598TIP3   OH238284   0.892   1.445  13.227  0.1909 -0.4382  0.6562
 5598TIP3    H138285   0.949   1.520  13.244  0.1229  0.1643 -1.4901
 5598TIP3    H238286   0.940   1.392  13.164 -1.4084 -0.0966 -0.9404
 5599TIP3   OH238287   6.708   5.383   1.593  0.2658  0.1776  0.2334
 5599TIP3    H138288   6.645   5.453   1.611  0.1897 -0.2837  1.8639
 5599TIP3    H238289   6.680   5.348   1.508 -1.3065  0.3871  0.6299
 5600TIP3   OH238290   0.452   0.852   0.057  0.3844 -0.0463  0.3324
 5600TIP3    H138291   0.365   0.831   0.091  0.3730 -0.9408 -0.1993
 5600TIP3    H238292   0.507   0.780   0.087  0.8599  0.3214  0.3521
 5601TIP3   OH238293   0.700   0.122  16.372 -0.3875  0.0476  0.0741
 5601TIP3    H138294   0.715   0.211  16.339 -0.4263  0.2285  0.5318
 5601TIP3    H238295   0.615   0.127  16.415 -0.3473 -0.1913  0.1811
 5602TIP3   OH238296   2.816   2.211   5.316  0.3742  0.0421  0.6319
 5602TIP3    H138297   2.819   2.116   5.301 -0.4076  0.3472 -1.8163
 5602TIP3    H238298   2.854   2.249   5.238 -2.5230  1.8074 -0.0520
 5603TIP3   OH238299   0.476   6.539  12.535 -0.2360 -0.3768  0.0646
 5603TIP3    H138300   0.381   6.549  12.535 -0.2563  0.0346  2.3977
 5603TIP3    H238301   0.509   6.625  12.561  0.8032 -0.5390 -0.6310
 5604TIP3   OH238302   4.563   3.010  13.143  0.3121  0.1527 -0.2827
 5604TIP3    H138303   4.604   2.935  13.100  2.7300  0.7472  0.8363
 5604TIP3    H238304   4.573   3.082  13.081 -1.7709 -0.2882 -1.2417
 5605TIP3   OH238305   2.212   6.633  11.490 -0.4308 -0.5262  0.1372
 5605TIP3    H138306   2.238   6.563  11.551 -2.0611 -0.1844  1.2739
 5605TIP3    H238307   2.287   6.642  11.432  0.9936 -1.2322  1.7659
 5606TIP3   OH238308   6.466   2.057  14.537 -0.2652  0.0939  0.5004
 5606TIP3    H138309   6.500   1.990  14.478  0.2076  0.6203  0.1529
 5606TIP3    H238310   6.545   2.098  14.574 -0.2466  3.2408 -2.4515
 5607TIP3   OH238311   1.552   0.507   6.510  0.2733 -0.2727  0.9752
 5607TIP3    H138312   1.568   0.422   6.470  0.4856 -0.7297  2.0105
 5607TIP3    H238313   1.612   0.510   6.585  1.2751  1.3518  0.1568
 5608TIP3   OH238314   2.989   0.612   3.498 -0.2121 -0.2224 -0.3619
 5608TIP3    H138315   2.948   0.608   3.585 -2.3059  3.6897 -0.9219
 5608TIP3    H238316   2.918   0.589   3.438 -0.0703  1.1789 -1.1155
 5609TIP3   OH238317   2.369   2.373  13.273  0.1312 -0.0636  0.2615
 5609TIP3    H138318   2.414   2.380  13.357 -1.6158 -0.1793  1.2561
 5609TIP3    H238319   2.374   2.460  13.235  1.7244 -0.2264  0.0262
 5610TIP3   OH238320   2.027   5.314  11.940  0.3166  0.2750  0.6965
 5610TIP3    H138321   2.034   5.228  11.900 -0.3043 -0.3876  1.9702
 5610TIP3    H238322   2.088   5.369  11.889 -1.2435 -0.2023 -1.8692
 5611TIP3   OH238323   5.568   0.494  17.164  0.4168 -0.5317  0.0402
 5611TIP3    H138324   5.564   0.399  17.174  0.3916 -0.4448  0.9297
 5611TIP3    H238325   5.659   0.512  17.141  0.8613 -0.6397  1.5962
 5612TIP3   OH238326   0.532   2.715   2.684  0.3383  0.1377 -0.5553
 5612TIP3    H138327   0.622   2.708   2.652  0.5526 -0.9756  0.2166
 5612TIP3    H238328   0.523   2.642   2.746 -0.6631  1.0524  0.4272
 5613TIP3   OH238329   3.376   6.617   4.598  0.2306  0.3044  0.7335
 5613TIP3    H138330   3.315   6.553   4.635  0.8638 -1.1871 -0.7136
 5613TIP3    H238331   3.405   6.669   4.674 -1.3791 -0.1648  1.7185
 5614TIP3   OH238332   5.547   5.528   5.246 -0.1656  0.3927  0.2898
 5614TIP3    H138333   5.533   5.500   5.337  0.0357  0.5849  0.3834
 5614TIP3    H238334   5.466   5.506   5.201  0.4489 -1.5665  0.0335
 5615TIP3   OH238335   3.481   2.094  11.727 -0.2569 -0.3709  0.3675
 5615TIP3    H138336   3.434   2.169  11.692 -0.0973 -0.8176 -0.8725
 5615TIP3    H238337   3.530   2.128  11.801 -1.1794  0.4633  0.6068
 5616TIP3   OH238338   0.136   6.327   3.141 -0.5213 -0.1281 -0.1400
 5616TIP3    H138339   0.108   6.362   3.226  0.6768 -1.4450  0.8549
 5616TIP3    H238340   0.230   6.345   3.138 -0.7977  1.2307 -1.8917
 5617TIP3   OH238341   0.442   5.600   2.389 -0.0140 -0.5129  0.2830
 5617TIP3    H138342   0.536   5.601   2.372 -0.3703 -1.1063 -2.1198
 5617TIP3    H238343   0.423   5.686   2.427  1.4511 -0.3107  0.6028
 5618TIP3   OH238344   2.183   6.168   5.256 -0.0391 -0.1652 -0.2106
 5618TIP3    H138345   2.247   6.098   5.243  2.1216  1.7880 -0.5804
 5618TIP3    H238346   2.148   6.184   5.168  0.4405  0.0992 -0.3559
 5619TIP3   OH238347   2.111   4.971   1.246 -0.6853  0.6236 -0.1202
 5619TIP3    H138348   2.155   4.996   1.328 -1.2054 -0.5795  0.5446
 5619TIP3    H238349   2.060   5.048   1.223 -2.6589  0.1293  2.1631
 5620TIP3   OH238350   3.396   0.346   4.250  0.0698 -0.2399  0.1328
 5620TIP3    H138351   3.355   0.309   4.172  1.6522  0.7694 -1.2577
 5620TIP3    H238352   3.390   0.440   4.239  3.3399  0.0245 -0.6212
 5621TIP3   OH238353   2.875   5.427   4.597  0.0660 -0.2310 -0.0599
 5621TIP3    H138354   2.858   5.515   4.566  1.5876  0.0673 -0.1417
 5621TIP3    H238355   2.956   5.435   4.648  1.6926 -1.9762 -2.1696
 5622TIP3   OH238356   6.616   6.482  12.236  0.1041 -0.2784  0.6351
 5622TIP3    H138357   6.680   6.473  12.165  0.4046 -2.6119  1.1234
 5622TIP3    H238358   6.539   6.520  12.195 -0.3908 -3.2224 -1.4532
 5623TIP3   OH238359   2.013   1.880  14.945 -0.0684 -0.4470  0.2862
 5623TIP3    H138360   1.951   1.934  14.898  0.3552 -0.0048  0.2321
 5623TIP3    H238361   2.005   1.907  15.037  1.6726  1.2713 -0.0038
 5624TIP3   OH238362   0.129   5.988   4.371 -0.3968 -0.6335 -0.9508
 5624TIP3    H138363   0.056   5.990   4.433 -0.0226  1.2669 -0.5180
 5624TIP3    H238364   0.204   5.961   4.423 -0.0189  1.2604 -0.4397
 5625TIP3   OH238365   2.240   6.305   3.648 -0.4345  0.6987  0.2775
 5625TIP3    H138366   2.163   6.248   3.647 -0.9163  1.2772  1.9752
 5625TIP3    H238367   2.312   6.248   3.620 -1.4693  0.1852 -1.5078
 5626TIP3   OH238368   4.707   5.313   6.425 -0.1088 -0.1354 -0.0191
 5626TIP3    H138369   4.651   5.274   6.358  2.7366 -1.6215 -1.6897
 5626TIP3    H238370   4.796   5.286   6.402  1.6140  3.5419  1.4326
 5627TIP3   OH238371   4.839   4.329   3.500  0.3993  0.5222 -0.2061
 5627TIP3    H138372   4.748   4.299   3.500  0.4087  0.4709 -1.0602
 5627TIP3    H238373   4.856   4.354   3.591 -0.2889  0.0028  0.0716
 5628TIP3   OH238374   5.008   0.187   3.580  0.4125 -0.5298  1.1105
 5628TIP3    H138375   4.980   0.266   3.533 -1.3758 -2.2737 -0.9090
 5628TIP3    H238376   4.981   0.203   3.671 -0.0893  1.0879  0.7129
 5629TIP3   OH238377   4.863   4.099   0.530 -0.3177 -0.0621 -0.0317
 5629TIP3    H138378   4.864   4.194   0.530 -1.1988 -0.0406  0.7155
 5629TIP3    H238379   4.792   4.075   0.591  0.8520 -1.1897  0.9582
 5630TIP3   OH238380   0.801   5.682  10.747 -0.5151  0.1514 -0.3531
 5630TIP3    H138381   0.780   5.771  10.718  0.8126  0.2150 -1.2116
 5630TIP3    H238382   0.883   5.662  10.704  0.5763 -0.5151  1.8999
 5631TIP3   OH238383   5.857   1.581   2.099  0.0858  0.5112  0.5035
 5631TIP3    H138384   5.848   1.635   2.178 -1.5898  0.9897  0.0469
 5631TIP3    H238385   5.777   1.528   2.097  1.5088 -1.7317  0.7127
 5632TIP3   OH238386   3.580   5.263  14.061 -0.8293 -0.0717  0.3178
 5632TIP3    H138387   3.533   5.226  13.987  0.5781  1.0095 -1.2037
 5632TIP3    H238388   3.665   5.290  14.024 -1.6792  4.6492  1.1594
 5633TIP3   OH238389   3.038   4.658  11.652 -0.0756  0.4360  0.2576
 5633TIP3    H138390   3.083   4.701  11.725  0.7629 -1.0766  0.6743
 5633TIP3    H238391   3.108   4.613  11.603 -0.9545 -0.9313  0.1926
 5634TIP3   OH238392   4.127   2.956   2.117  0.0149 -0.5343 -0.2370
 5634TIP3    H138393   4.148   2.887   2.053 -1.1318 -0.4005 -0.7760
 5634TIP3    H238394   4.169   3.034   2.081 -1.3982 -0.2431 -1.3737
 5635TIP3   OH238395   6.641   5.631  14.430  0.3027  0.2377  0.1730
 5635TIP3    H138396   6.557   5.592  14.408  0.0903  1.6356 -1.8135
 5635TIP3    H238397   6.624   5.681  14.510  0.5142 -3.2203  2.5719
 5636TIP3   OH238398   2.356   4.030  12.611 -0.5900  0.4420 -0.0365
 5636TIP3    H138399   2.380   3.976  12.536 -3.4594 -1.3434  0.1915
 5636TIP3    H238400   2.352   3.970  12.684 -0.1617  1.7349  1.0970
 5637TIP3   OH238401   1.246   0.270  16.414  0.5009  0.2294 -0.2069
 5637TIP3    H138402   1.273   0.265  16.323 -0.4655  1.1239 -0.5645
 5637TIP3    H238403   1.241   0.179  16.443 -0.9240 -0.1725 -1.5856
 5638TIP3   OH238404   2.526   5.050   0.380 -0.6337 -0.2332  0.2204
 5638TIP3    H138405   2.568   5.127   0.342 -0.4786  1.0194  2.7915
 5638TIP3    H238406   2.527   4.986   0.309  1.8197  1.1346 -1.1235
 5639TIP3   OH238407   2.371   1.939   0.279  0.1858  0.3230  0.0859
 5639TIP3    H138408   2.290   1.900   0.246 -0.3050  0.8503  0.6474
 5639TIP3    H238409   2.439   1.903   0.223 -0.4778  0.1585 -0.6322
 5640TIP3   OH238410   1.952   4.848  15.552 -0.4147  0.7182 -0.0013
 5640TIP3    H138411   2.016   4.919  15.542 -0.7358  0.8622 -1.1747
 5640TIP3    H238412   1.886   4.884  15.610  0.1839  0.8315  0.6299
 5641TIP3   OH238413   6.712   4.655   1.771 -0.0743 -0.0965  0.1617
 5641TIP3    H138414   6.714   4.571   1.724  1.2099  0.3155 -0.5555
 5641TIP3    H238415   6.626   4.656   1.814 -0.3055 -1.5590 -0.2125
 5642TIP3   OH238416   4.062   0.597   0.855 -0.1279 -0.4566  0.0443
 5642TIP3    H138417   4.047   0.690   0.842 -1.1569 -0.3971  1.3587
 5642TIP3    H238418   4.018   0.577   0.938  0.4007 -2.0305 -0.0095
 5643TIP3   OH238419   0.821   0.472  12.040 -0.4273 -0.0399  0.1166
 5643TIP3    H138420   0.866   0.498  11.960  0.4870 -0.9286  0.3232
 5643TIP3    H238421   0.889   0.431  12.094 -1.0442  0.4493  1.3169
 5644TIP3   OH238422   4.457   4.261  13.619  0.3003  0.1219 -0.1777
 5644TIP3    H138423   4.465   4.356  13.613 -0.3512  0.2797  1.0428
 5644TIP3    H238424   4.364   4.244  13.609  0.3491 -0.3348  0.1164
 5645TIP3   OH238425   2.381   1.246  11.761 -0.1698  0.4845 -0.2803
 5645TIP3    H138426   2.342   1.306  11.698 -0.4270  0.8677  0.2429
 5645TIP3    H238427   2.332   1.259  11.841  1.1245  1.0969  0.4480
 5646TIP3   OH238428   6.563   3.158  11.563 -0.5922 -0.3757  0.0967
 5646TIP3    H138429   6.620   3.199  11.498 -0.1883  0.4082  0.9355
 5646TIP3    H238430   6.604   3.178  11.647 -2.1088  0.2305  0.7271
 5647TIP3   OH238431   4.020   1.822   0.301 -0.3369 -0.3506 -0.4130
 5647TIP3    H138432   3.936   1.815   0.345 -0.1505  0.2018  0.0535
 5647TIP3    H238433   4.003   1.875   0.223 -0.3941 -0.0685 -0.2136
 5648TIP3   OH238434   4.708   0.363   3.450  0.2502 -0.1360 -0.2773
 5648TIP3    H138435   4.625   0.398   3.418  1.3051  3.4330  0.4109
 5648TIP3    H238436   4.684   0.309   3.525 -1.4935  0.9806  0.0307
 5649TIP3   OH238437   0.486   3.970  14.669 -0.0976 -0.3834  0.3689
 5649TIP3    H138438   0.405   4.021  14.661  0.9273  1.1642 -0.5950
 5649TIP3    H238439   0.530   3.980  14.584  1.0826 -1.2420  0.8502
 5650TIP3   OH238440   0.021   6.671   1.279  0.4470  0.2178 -1.0284
 5650TIP3    H138441   0.038   6.596   1.221 -1.9367 -0.6333 -0.7436
 5650TIP3    H238442  -0.064   6.651   1.319  1.8698  0.8040  2.6963
 5651TIP3   OH238443   2.830   1.494  15.741  0.3235 -0.2217  0.1738
 5651TIP3    H138444   2.876   1.574  15.720  1.9107 -1.4580 -1.3429
 5651TIP3    H238445   2.870   1.464  15.823  0.2563  0.1467  0.3400
 5652TIP3   OH238446   2.058   2.799  13.484 -0.1779  0.6168 -0.1240
 5652TIP3    H138447   1.990   2.866  13.473  0.2984  1.3064  0.9322
 5652TIP3    H238448   2.068   2.761  13.397 -0.7307  1.6732 -0.6748
 5653TIP3   OH238449   1.178   0.863   6.632 -0.3045 -0.0815  0.2776
 5653TIP3    H138450   1.195   0.934   6.570 -0.4206 -0.5652 -0.3114
 5653TIP3    H238451   1.225   0.788   6.596  0.4196 -0.1337  1.2703
 5654TIP3   OH238452   2.943   3.445   2.189 -0.4189 -0.5987  0.1547
 5654TIP3    H138453   2.850   3.470   2.185 -0.0501  0.7522 -1.0111
 5654TIP3    H238454   2.987   3.523   2.224  0.4197 -0.7163 -0.5900
 5655TIP3   OH238455   6.282   1.031   0.809 -0.4514  0.3801  0.7585
 5655TIP3    H138456   6.317   1.090   0.742  0.1022 -0.2706  0.4643
 5655TIP3    H238457   6.243   0.959   0.759  0.0806 -0.1753  1.1329
 5656TIP3   OH238458   0.109   2.779  12.066 -0.3241  0.4705 -0.1702
 5656TIP3    H138459   0.076   2.790  12.155  0.4148  3.5887 -0.1488
 5656TIP3    H238460   0.124   2.869  12.035  1.4830 -0.5733 -2.6744
 5657TIP3   OH238461   1.774   6.176  16.653  0.3613 -0.1483 -0.3876
 5657TIP3    H138462   1.845   6.202  16.594 -0.3273  0.2860 -1.0406
 5657TIP3    H238463   1.771   6.080  16.645  0.6570 -0.1408 -0.6091
 5658TIP3   OH238464   0.976   6.738  13.782  0.9299 -0.1002  0.0829
 5658TIP3    H138465   0.933   6.706  13.703 -0.9406  1.0570  0.5563
 5658TIP3    H238466   0.942   6.682  13.852  1.5142 -0.2462  0.2547
 5659TIP3   OH238467   0.734   1.565  12.307  0.4054  0.2407  0.0452
 5659TIP3    H138468   0.652   1.607  12.332  1.4373  2.2412  0.2541
 5659TIP3    H238469   0.715   1.523  12.223 -0.9345  0.2753  0.3078
 5660TIP3   OH238470   6.354   2.743   0.135  0.3655 -0.1724 -0.1014
 5660TIP3    H138471   6.309   2.800   0.073  1.1474 -0.0735 -0.5879
 5660TIP3    H238472   6.318   2.768   0.221 -1.4937 -1.0251 -0.5789
 5661TIP3   OH238473   3.562   0.800   3.245  0.6778  0.1516  0.5839
 5661TIP3    H138474   3.552   0.881   3.193  2.2215 -0.8883 -1.4681
 5661TIP3    H238475   3.479   0.754   3.232  0.8798  0.1067 -0.6270
 5662TIP3   OH238476   3.235   2.264  11.087 -0.2174 -0.0958  0.1621
 5662TIP3    H138477   3.217   2.191  11.146  1.4392 -0.9217 -0.3035
 5662TIP3    H238478   3.156   2.318  11.091 -0.9346 -1.1899  1.5601
 5663TIP3   OH238479   5.195   1.967  11.290  0.3769 -0.3544  0.0967
 5663TIP3    H138480   5.141   1.956  11.368 -0.7587 -1.0537 -0.7588
 5663TIP3    H238481   5.217   1.877  11.264 -0.8038 -0.2443 -1.4099
 5664TIP3   OH238482   6.219   5.650   6.391  0.1922  0.1401 -0.4230
 5664TIP3    H138483   6.249   5.563   6.368 -1.0770 -0.3545 -0.2939
 5664TIP3    H238484   6.261   5.670   6.474 -1.2598 -1.3270  0.7270
 5665TIP3   OH238485   2.308   3.865   5.101  0.1472 -0.4612 -0.0927
 5665TIP3    H138486   2.324   3.941   5.158  0.7869 -1.9181  1.7523
 5665TIP3    H238487   2.213   3.854   5.102  0.2049 -1.0210  1.4990
 5666TIP3   OH238488   0.943   3.027   6.175  0.2506  0.3930 -0.1604
 5666TIP3    H138489   0.910   2.951   6.222 -0.6295 -0.6603 -2.3462
 5666TIP3    H238490   0.988   3.079   6.242 -1.6934 -0.5241  2.0034
 5667TIP3   OH238491   0.046   5.122   4.359 -0.2380 -0.4701 -0.3244
 5667TIP3    H138492  -0.040   5.096   4.328  0.3845 -1.9562 -0.8851
 5667TIP3    H238493   0.091   5.157   4.282 -0.4407  0.6831  0.0483
 5668TIP3   OH238494   1.287   6.006   1.489 -0.1037 -0.0371 -0.7944
 5668TIP3    H138495   1.240   6.089   1.493  0.6869  0.4223 -0.8787
 5668TIP3    H238496   1.221   5.940   1.512 -0.5653  0.6743 -0.0061
 5669TIP3   OH238497   5.024   1.051   0.726 -0.1711  0.1086  0.2014
 5669TIP3    H138498   4.962   1.003   0.781 -1.2146  0.3662 -0.7198
 5669TIP3    H238499   4.969   1.106   0.669  0.9411  1.3380  0.2581
 5670TIP3   OH238500   3.239   4.410  16.423 -0.0009  0.5673  0.2041
 5670TIP3    H138501   3.297   4.469  16.470 -0.0004  1.4130 -0.8247
 5670TIP3    H238502   3.242   4.328  16.473 -0.8518  1.7447  2.3063
 5671TIP3   OH238503   5.162   2.577  15.153 -0.6956 -0.1782  0.1709
 5671TIP3    H138504   5.122   2.550  15.070  0.3300  0.4134 -0.5389
 5671TIP3    H238505   5.247   2.533  15.154 -1.2427 -1.2865  1.5787
 5672TIP3   OH238506   1.790   5.877  14.315  0.6276 -0.0676 -0.5921
 5672TIP3    H138507   1.873   5.845  14.280 -0.5913 -2.3590 -1.6287
 5672TIP3    H238508   1.799   5.871  14.410  1.0641 -2.0262 -0.7195
 5673TIP3   OH238509   0.481   3.413  12.888  0.0098 -0.0555  0.5723
 5673TIP3    H138510   0.497   3.406  12.794 -1.3014 -0.5228  0.3595
 5673TIP3    H238511   0.566   3.396  12.929  0.9880  1.7807 -0.5517
 5674TIP3   OH238512   2.810   0.252   3.648  0.0384 -0.4496 -0.4640
 5674TIP3    H138513   2.905   0.237   3.642  0.3010  0.9593 -0.0548
 5674TIP3    H238514   2.795   0.270   3.740 -0.6136 -0.4760 -0.5635
 5675TIP3   OH238515   2.673   6.678  13.425 -0.1481  0.3596  0.0930
 5675TIP3    H138516   2.648   6.697  13.515 -1.9341 -0.6424 -0.1664
 5675TIP3    H238517   2.591   6.659  13.379  0.9402 -2.1034 -1.0386
 5676TIP3   OH238518   0.393   6.121  16.180 -0.0153  0.0420  0.4505
 5676TIP3    H138519   0.429   6.150  16.264  0.2014 -1.5497  0.9294
 5676TIP3    H238520   0.349   6.199  16.145  0.8076  1.0272  1.5248
 5677TIP3   OH238521   3.349   2.847   5.776 -0.2721 -0.1470 -0.1563
 5677TIP3    H138522   3.414   2.784   5.746  0.3709 -0.3382  1.5289
 5677TIP3    H238523   3.287   2.854   5.704  1.0812 -0.6896 -1.4269
 5678TIP3   OH238524   1.507   5.606   2.348  0.2165  0.1270  0.1637
 5678TIP3    H138525   1.413   5.602   2.331 -0.0803  0.2158  1.6439
 5678TIP3    H238526   1.514   5.620   2.443  1.7220  0.0784  0.0885
 5679TIP3   OH238527   4.313   4.032  15.106 -0.4801 -0.0860  0.2504
 5679TIP3    H138528   4.353   4.100  15.161  0.3957  0.4961 -1.0298
 5679TIP3    H238529   4.264   3.978  15.166  0.3938  0.5536  1.5951
 5680TIP3   OH238530   4.603   4.119   3.514 -0.4546 -0.3563  0.6932
 5680TIP3    H138531   4.517   4.103   3.476 -0.0368 -0.3965 -0.2580
 5680TIP3    H238532   4.654   4.041   3.494  0.0789  0.0508  0.4297
 5681TIP3   OH238533   6.666   6.200   5.579  0.8030 -0.1895 -0.0619
 5681TIP3    H138534   6.591   6.147   5.608  0.2499  1.5076  1.8430
 5681TIP3    H238535   6.681   6.173   5.488  0.9794 -4.0448  0.9121
 5682TIP3   OH238536   2.875   2.112  16.715 -0.1096  0.2997  0.1576
 5682TIP3    H138537   2.955   2.163  16.705  0.4472  0.0823  2.7847
 5682TIP3    H238538   2.827   2.155  16.786 -0.3146 -1.9112  1.4514
 5683TIP3   OH238539   1.521   2.321  13.980 -0.5681  0.0051 -0.3381
 5683TIP3    H138540   1.614   2.300  13.973 -1.0603 -1.9485 -1.8144
 5683TIP3    H238541   1.497   2.356  13.894 -1.5960 -1.3894 -0.6556
 5684TIP3   OH238542   2.298   5.621  13.676  0.1829  0.1946  0.3576
 5684TIP3    H138543   2.369   5.614  13.611 -0.0627 -0.2782  0.1356
 5684TIP3    H238544   2.235   5.555  13.649  0.9287 -1.3471  2.1697
 5685TIP3   OH238545   5.921   2.826  11.852  0.7751  0.1586 -0.7721
 5685TIP3    H138546   5.885   2.738  11.859  1.1031  0.0499 -0.3949
 5685TIP3    H238547   5.854   2.877  11.806 -0.3463  0.2353  0.8639
 5686TIP3   OH238548   2.332   1.402   1.636 -0.5636 -0.1665 -0.2816
 5686TIP3    H138549   2.425   1.381   1.624 -0.8414 -1.3681 -0.4816
 5686TIP3    H238550   2.327   1.438   1.725  0.1111  0.0406 -0.3229
 5687TIP3   OH238551   1.058   1.290   4.645 -1.2974  0.2503 -0.1383
 5687TIP3    H138552   1.080   1.204   4.610  2.3478  0.6701  0.7470
 5687TIP3    H238553   1.019   1.272   4.730  0.3563 -0.5955  0.4901
 5688TIP3   OH238554   5.726   2.854   3.403 -0.6735  0.6743 -0.3546
 5688TIP3    H138555   5.688   2.895   3.480  0.6162  2.6116 -0.6801
 5688TIP3    H238556   5.820   2.870   3.411 -0.1921 -1.4811 -0.9868
 5689TIP3   OH238557   5.266   5.466   5.225  0.2840 -0.7977 -0.4905
 5689TIP3    H138558   5.271   5.451   5.130 -1.4173 -0.7436 -0.6234
 5689TIP3    H238559   5.213   5.546   5.233  1.3320 -0.1907  0.4834
 5690TIP3   OH238560   3.850   5.377   5.312  0.7959 -0.0476 -0.2060
 5690TIP3    H138561   3.806   5.307   5.361  0.3401 -0.4830 -1.2060
 5690TIP3    H238562   3.790   5.398   5.242  1.2592  0.8611 -0.3375
 5691TIP3   OH238563   5.569   4.664   1.641  0.5873 -0.4885 -0.5264
 5691TIP3    H138564   5.534   4.729   1.701 -0.6912 -1.5435 -0.0987
 5691TIP3    H238565   5.664   4.673   1.649  0.4496 -0.1954  1.2202
 5692TIP3   OH238566   3.987   1.471  12.283  0.3569 -0.1659  0.4948
 5692TIP3    H138567   3.975   1.552  12.233  0.8374 -0.2772  0.1891
 5692TIP3    H238568   3.936   1.484  12.363 -3.4013 -1.3689 -1.4938
 5693TIP3   OH238569   2.338   4.283   0.438 -0.1754  0.4502 -0.1559
 5693TIP3    H138570   2.417   4.250   0.394 -0.3904 -1.7946  0.9833
 5693TIP3    H238571   2.368   4.305   0.526 -0.8284 -0.7270  0.3902
 5694TIP3   OH238572   4.624   5.051   4.255  0.0204 -0.5134 -0.4225
 5694TIP3    H138573   4.646   5.023   4.166  0.1335  0.4565 -0.7114
 5694TIP3    H238574   4.647   5.144   4.257 -1.6215 -0.0892  0.0854
 5695TIP3   OH238575   4.843   1.517   4.107 -0.5569 -0.1218 -0.3289
 5695TIP3    H138576   4.750   1.496   4.095 -0.9005  1.9063 -1.8210
 5695TIP3    H238577   4.849   1.550   4.196 -0.6204 -3.0280  0.8641
 5696TIP3   OH238578   1.253   1.872   0.712  0.7627 -0.0227 -0.1134
 5696TIP3    H138579   1.194   1.946   0.697  1.6605  1.4122  2.7154
 5696TIP3    H238580   1.339   1.905   0.687  0.9736 -0.6225 -0.1937
 5697TIP3   OH238581   1.928   1.352  13.239 -0.1841  0.1833 -0.3072
 5697TIP3    H138582   1.968   1.396  13.315  1.1824 -0.6340 -0.5284
 5697TIP3    H238583   1.862   1.294  13.277 -0.1363  0.4528  0.1939
 5698TIP3   OH238584   2.353   1.574  13.114 -0.5984 -0.5724 -0.2264
 5698TIP3    H138585   2.340   1.540  13.203  0.2907  2.4692  1.1966
 5698TIP3    H238586   2.268   1.611  13.090 -1.1671 -2.3860 -1.1997
 5699TIP3   OH238587   3.818   1.517  11.420 -0.0552 -0.4537 -0.0506
 5699TIP3    H138588   3.739   1.516  11.366 -0.4211  0.4247  0.4515
 5699TIP3    H238589   3.843   1.609  11.425 -0.4859 -0.3948  1.9090
 5700TIP3   OH238590   6.797   2.618   0.820 -0.5928 -0.2325  0.0761
 5700TIP3    H138591   6.868   2.620   0.885 -0.4048  1.7723 -0.1298
 5700TIP3    H238592   6.822   2.684   0.756 -1.7723 -0.7808 -0.9887
 5701TIP3   OH238593   4.992   3.681   2.953  0.4076 -0.1116 -0.1633
 5701TIP3    H138594   4.911   3.655   2.908 -0.2665  0.7608  0.4925
 5701TIP3    H238595   5.014   3.606   3.008 -0.3395 -0.1033  0.1607
 5702TIP3   OH238596   6.368   6.088   1.115 -0.3213  0.0188  0.4675
 5702TIP3    H138597   6.459   6.109   1.136 -0.1413 -0.6263  0.3613
 5702TIP3    H238598   6.321   6.096   1.198 -0.0988  0.0039  0.5953
 5703TIP3   OH238599   2.675   2.543  11.899  0.4799 -0.9219  0.0552
 5703TIP3    H138600   2.744   2.607  11.880 -0.1535 -0.2127  0.1235
 5703TIP3    H238601   2.718   2.458  11.887  1.0762 -0.4982 -1.0185
 5704TIP3   OH238602   4.190   6.698   1.310 -0.0980  0.5946  0.2120
 5704TIP3    H138603   4.230   6.624   1.356  0.3018  0.2220 -0.7208
 5704TIP3    H238604   4.194   6.674   1.218 -2.5181  0.5475  0.0634
 5705TIP3   OH238605   4.330   5.209   5.780  0.0703  0.2873  0.2759
 5705TIP3    H138606   4.257   5.263   5.751 -1.5080 -1.1459  1.3226
 5705TIP3    H238607   4.332   5.220   5.875  3.1972  2.5825  0.0728
 5706TIP3   OH238608   0.107   4.785   5.519  0.5836  0.7568  0.4072
 5706TIP3    H138609   0.107   4.797   5.424  0.6385 -1.1126  0.1334
 5706TIP3    H238610   0.138   4.695   5.532  2.0695  1.4577  2.2777
 5707TIP3   OH238611   5.412   2.492  16.610  0.0628  0.1259  0.1552
 5707TIP3    H138612   5.417   2.429  16.538  1.7934  0.3279  0.0553
 5707TIP3    H238613   5.472   2.457  16.676 -1.2792  0.1001  1.3939
 5708TIP3   OH238614   0.351   6.123   3.477  0.1656  0.3439  0.1711
 5708TIP3    H138615   0.444   6.103   3.486 -0.0601 -0.7154  0.2680
 5708TIP3    H238616   0.308   6.038   3.480 -0.6907  0.6850 -1.4042
 5709TIP3   OH238617   2.031   1.860  16.863 -0.1714  0.2437 -0.1297
 5709TIP3    H138618   2.114   1.839  16.906  1.6116  1.1417 -2.8752
 5709TIP3    H238619   1.966   1.854  16.933  2.1891 -0.3384  2.1922
 5710TIP3   OH238620   5.748   2.766   2.290  0.1145 -0.0841  0.3598
 5710TIP3    H138621   5.683   2.768   2.360  0.2661  2.2355  0.5113
 5710TIP3    H238622   5.789   2.852   2.293  2.6167 -1.1675 -0.3089
 5711TIP3   OH238623   2.949   3.858   1.508 -1.3436 -0.2319  0.3391
 5711TIP3    H138624   2.890   3.913   1.558 -2.6539  1.5239 -2.8041
 5711TIP3    H238625   2.993   3.918   1.448  0.6388 -2.0504 -0.1674
 5712TIP3   OH238626   5.658   3.706  13.066  0.3124 -0.3629 -0.1183
 5712TIP3    H138627   5.599   3.748  13.128  1.3694  0.8213  0.1393
 5712TIP3    H238628   5.611   3.628  13.037 -0.4793 -0.6148  1.6844
 5713TIP3   OH238629   1.183   2.500  15.004 -0.5256 -0.3750  0.0169
 5713TIP3    H138630   1.268   2.512  14.962 -0.2315 -2.0501  0.0482
 5713TIP3    H238631   1.129   2.571  14.970  0.6958  0.3319 -0.5082
 5714TIP3   OH238632   6.493   1.297  12.677 -0.0643 -0.2229  0.9067
 5714TIP3    H138633   6.401   1.313  12.698 -0.7378 -1.0869 -1.1620
 5714TIP3    H238634   6.533   1.274  12.761 -1.8674 -0.4261  1.7593
 5715TIP3   OH238635   2.810   4.383   3.173 -0.1566 -0.4715  0.3345
 5715TIP3    H138636   2.877   4.432   3.126  2.1531 -1.8522  1.9570
 5715TIP3    H238637   2.754   4.347   3.105 -1.3090  3.3206 -0.9744
 5716TIP3   OH238638   0.772   2.584  11.625  0.6716 -0.0116 -0.0618
 5716TIP3    H138639   0.759   2.495  11.656  1.6580  0.7202  2.8768
 5716TIP3    H238640   0.686   2.625  11.630  0.4485 -0.4619 -0.2098
 5717TIP3   OH238641   0.051   0.246  15.517  0.4317 -0.0367 -0.2151
 5717TIP3    H138642   0.049   0.342  15.510 -0.7898  0.2798  2.8813
 5717TIP3    H238643   0.144   0.224  15.519  0.9449  1.7147  3.7880
 5718TIP3   OH238644   1.371   1.881   5.642 -0.2890 -0.3731 -0.2117
 5718TIP3    H138645   1.439   1.844   5.698 -0.9719  0.7470  1.4506
 5718TIP3    H238646   1.391   1.974   5.638 -1.6363 -0.0302  0.2567
 5719TIP3   OH238647   4.351   3.063  13.326  0.6719  0.2161 -0.3270
 5719TIP3    H138648   4.325   3.135  13.269  3.4321  0.9287 -0.8437
 5719TIP3    H238649   4.419   3.017  13.277  0.5895 -1.3505  0.9453
 5720TIP3   OH238650   3.159   1.336   4.788 -0.2054  0.1188  0.0882
 5720TIP3    H138651   3.088   1.399   4.803  1.3145  2.1374 -0.6969
 5720TIP3    H238652   3.145   1.305   4.699  0.2925  1.1440 -0.3729
 5721TIP3   OH238653   3.300   5.114  10.998 -0.2036 -0.6534  0.4257
 5721TIP3    H138654   3.366   5.086  11.061 -0.1914  0.1848  0.8041
 5721TIP3    H238655   3.289   5.039  10.939  1.0902 -0.8029  0.3425
 5722TIP3   OH238656   1.892   1.223   3.955  0.3148 -0.0667  0.0142
 5722TIP3    H138657   1.815   1.256   4.002  0.1745 -2.0728  1.3044
 5722TIP3    H238658   1.856   1.175   3.880  0.1107 -2.5734  1.6135
 5723TIP3   OH238659   5.472   3.149   2.971 -0.3591 -0.1164  0.0940
 5723TIP3    H138660   5.561   3.125   2.998  0.5378  1.8685 -0.8768
 5723TIP3    H238661   5.447   3.220   3.031 -1.3302 -0.6743  0.3740
 5724TIP3   OH238662   2.249   1.228   1.333 -0.3879  0.0321  0.2638
 5724TIP3    H138663   2.277   1.229   1.241  1.5117 -0.3031  0.8033
 5724TIP3    H238664   2.280   1.144   1.366 -0.0017  0.6585  1.5249
 5725TIP3   OH238665   1.904   4.751   0.523 -0.2810 -0.5101 -0.1313
 5725TIP3    H138666   1.846   4.700   0.578 -0.0046  0.0415  0.6850
 5725TIP3    H238667   1.886   4.720   0.434 -1.2951 -0.8461  0.1790
 5726TIP3   OH238668   2.614   1.244  13.926  0.0887 -0.0719  0.9292
 5726TIP3    H138669   2.572   1.269  14.009 -2.2241 -1.0678  0.1659
 5726TIP3    H238670   2.632   1.151  13.936 -1.2432 -0.4739 -0.0122
 5727TIP3   OH238671   4.720   0.352  14.377 -0.5719 -0.7344  0.0997
 5727TIP3    H138672   4.745   0.272  14.424 -2.4966 -0.1082  2.4213
 5727TIP3    H238673   4.726   0.421  14.443 -4.0164  0.1188 -0.2597
 5728TIP3   OH238674   2.627   5.031  14.342  0.4720  0.1354 -0.1116
 5728TIP3    H138675   2.678   5.105  14.374 -0.2950 -0.0105  1.5183
 5728TIP3    H238676   2.669   5.007  14.259  2.7598  0.2879  0.9433
 5729TIP3   OH238677   6.291   5.723  15.363 -0.4748  0.1561  0.8115
 5729TIP3    H138678   6.247   5.639  15.350 -0.9913  0.5930 -0.4518
 5729TIP3    H238679   6.258   5.755  15.446 -1.2895 -0.2820  0.6639
 5730TIP3   OH238680   1.570   0.257   0.594 -0.6962  0.5088 -0.0139
 5730TIP3    H138681   1.534   0.339   0.628  0.7047  0.3235  2.1067
 5730TIP3    H238682   1.655   0.249   0.636 -0.8827 -2.1421  0.0288
 5731TIP3   OH238683   5.894   4.711  16.352  0.1928 -0.2134  0.1722
 5731TIP3    H138684   5.841   4.775  16.399 -0.5237  0.5461 -1.5929
 5731TIP3    H238685   5.906   4.639  16.414  1.3418  1.7450  2.3518
 5732TIP3   OH238686   4.992   4.022  16.801  0.2126 -0.3962  0.8494
 5732TIP3    H138687   4.999   4.009  16.895  0.9882  0.8413  0.9926
 5732TIP3    H238688   5.010   3.936  16.763 -1.7934 -1.3088  1.8391
 5733TIP3   OH238689   4.309   4.889   6.023 -0.7072  0.2612 -0.2235
 5733TIP3    H138690   4.350   4.836   6.092 -0.8952 -0.3535 -0.5731
 5733TIP3    H238691   4.216   4.866   6.027 -0.4044 -1.8039 -2.3500
 5734TIP3   OH238692   5.707   0.025  15.240  0.6666  0.1848 -0.0547
 5734TIP3    H138693   5.792   0.057  15.211  1.2604 -1.1707  0.0885
 5734TIP3    H238694   5.728  -0.033  15.314 -0.4871  0.7267  0.7296
 5735TIP3   OH238695   4.305   2.603   1.496  0.0643 -0.5388  0.1473
 5735TIP3    H138696   4.253   2.642   1.566  1.3163 -2.2726  2.1555
 5735TIP3    H238697   4.296   2.509   1.509  3.0489 -0.9279  0.1703
 5736TIP3   OH238698   1.742   0.232   1.446 -0.3118  0.1328  0.3467
 5736TIP3    H138699   1.713   0.177   1.373 -1.6219 -0.0228  0.9626
 5736TIP3    H238700   1.746   0.171   1.520 -0.1169  0.5291  0.6600
 5737TIP3   OH238701   3.242   1.721  14.485  0.1087 -0.1522  0.5803
 5737TIP3    H138702   3.304   1.691  14.418  1.0216 -1.1623  1.8240
 5737TIP3    H238703   3.224   1.643  14.537  0.5728  0.8907  2.3992
 5738TIP3   OH238704   2.099   0.035  16.041 -0.3771 -0.0893 -0.1693
 5738TIP3    H138705   2.140  -0.043  16.078 -0.5596  0.7761  1.9673
 5738TIP3    H238706   2.006   0.011  16.033 -0.1583 -0.6754 -1.2690
 5739TIP3   OH238707   2.057   0.300  11.646  0.1841  0.4274 -0.1500
 5739TIP3    H138708   1.979   0.267  11.690 -0.2228  0.3765 -0.8919
 5739TIP3    H238709   2.112   0.223  11.634 -0.2831  0.1923 -0.8913
 5740TIP3   OH238710   3.263   5.724  13.030  0.0899 -0.3960  0.7483
 5740TIP3    H138711   3.318   5.712  13.108  1.3325 -1.4216 -0.2410
 5740TIP3    H238712   3.177   5.691  13.055  1.1123 -3.1679  0.9534
 5741TIP3   OH238713   0.271   6.550   3.001 -0.0046  0.5112  0.0056
 5741TIP3    H138714   0.241   6.628   2.955 -0.9906  1.5055  2.2017
 5741TIP3    H238715   0.190   6.505   3.028  0.4961  0.4188  1.4480
 5742TIP3   OH238716   0.024   1.216  13.201  0.0395 -0.9492  0.1365
 5742TIP3    H138717   0.118   1.204  13.185  0.6952  1.7683  1.4792
 5742TIP3    H238718  -0.015   1.214  13.113  1.6032 -0.3845 -0.6125
 5743TIP3   OH238719   4.828   1.370  12.395 -0.4782  0.1712 -0.2076
 5743TIP3    H138720   4.824   1.411  12.308  1.2033  3.0202  0.9318
 5743TIP3    H238721   4.860   1.281  12.378 -0.4733  0.5456 -2.5046
 5744TIP3   OH238722   2.325   2.542  11.258 -0.1803 -0.1205  0.2676
 5744TIP3    H138723   2.301   2.488  11.182 -1.9977  0.7569  0.1743
 5744TIP3    H238724   2.396   2.597  11.226  0.2978 -1.0033 -0.2466
 5745TIP3   OH238725   0.697   3.183   5.491  0.0515  0.1567 -0.1826
 5745TIP3    H138726   0.638   3.108   5.479  0.1628 -0.1445  0.9616
 5745TIP3    H238727   0.780   3.143   5.517  0.3703  0.6382 -0.4618
 5746TIP3   OH238728   5.655   5.731   5.404  0.1023  0.2098  0.0238
 5746TIP3    H138729   5.653   5.814   5.356 -0.6560  0.3689  0.3071
 5746TIP3    H238730   5.669   5.664   5.338 -0.1962  0.4921 -0.3280
 5747TIP3   OH238731   3.445   4.309   6.491 -0.9454  0.3068  0.2597
 5747TIP3    H138732   3.508   4.343   6.555  0.3628 -0.0258 -0.8033
 5747TIP3    H238733   3.378   4.267   6.543  0.1190  0.0014  1.4192
 5748TIP3   OH238734   5.564   3.814  14.534  0.1979 -0.4805  0.2498
 5748TIP3    H138735   5.482   3.864  14.534  0.1601 -0.5382  1.2454
 5748TIP3    H238736   5.630   3.877  14.505 -0.0753 -0.2413  0.1387
 5749TIP3   OH238737   4.938   3.206   5.838  0.2345 -0.3243 -0.1811
 5749TIP3    H138738   4.908   3.115   5.835 -0.9363  0.0600 -0.5831
 5749TIP3    H238739   5.001   3.208   5.910 -1.7709 -0.8793  1.6923
 5750TIP3   OH238740   2.102   2.312  14.895 -0.0133 -0.0000 -0.7246
 5750TIP3    H138741   2.041   2.360  14.951 -0.1571 -0.2407 -0.6747
 5750TIP3    H238742   2.048   2.247  14.851 -0.1770  1.1004 -2.2341
 5751TIP3   OH238743   2.258   1.129   4.027 -0.1361  0.4992 -0.1180
 5751TIP3    H138744   2.348   1.125   4.060 -0.3104 -2.0374  0.2654
 5751TIP3    H238745   2.215   1.053   4.066 -2.2377  1.1950 -0.9418
 5752TIP3   OH238746   5.723   1.813  13.824  0.2245  0.2268 -0.1324
 5752TIP3    H138747   5.792   1.826  13.758  1.0994  0.7032  0.8503
 5752TIP3    H238748   5.698   1.901  13.851  0.4003  0.0230  0.7074
 5753TIP3   OH238749   0.759   4.947   0.475  0.3044  0.1196  0.3247
 5753TIP3    H138750   0.716   4.868   0.508  0.2450  1.4841  3.9579
 5753TIP3    H238751   0.688   4.998   0.435 -0.1547 -0.5566  0.2613
 5754TIP3   OH238752   0.678   4.468   6.102 -0.5327 -0.2749  0.4749
 5754TIP3    H138753   0.682   4.524   6.024  0.2347 -0.1965  0.5612
 5754TIP3    H238754   0.770   4.457   6.128 -0.8386  0.5031  1.9496
 5755TIP3   OH238755   0.022   5.245   1.184 -0.0453  0.0792  0.1298
 5755TIP3    H138756  -0.046   5.256   1.250 -1.4131 -0.0922 -1.2030
 5755TIP3    H238757   0.037   5.150   1.181 -2.1919 -0.2790 -1.8682
 5756TIP3   OH238758   2.047   2.362  12.773  0.3742  0.0225 -0.4684
 5756TIP3    H138759   1.958   2.390  12.793  0.5102 -0.0395  0.2602
 5756TIP3    H238760   2.103   2.424  12.820  0.6980 -0.3297 -0.3837
 5757TIP3   OH238761   1.869   5.130  14.256 -0.3931 -0.3526 -0.2144
 5757TIP3    H138762   1.810   5.195  14.219 -1.1420 -1.6553 -1.3787
 5757TIP3    H238763   1.832   5.046  14.230  1.0490 -1.2411  0.4788
 5758TIP3   OH238764   0.104   5.750   4.574  0.3530  0.1538 -0.0830
 5758TIP3    H138765   0.131   5.660   4.556  0.3322 -0.4420  2.4732
 5758TIP3    H238766   0.039   5.769   4.506  2.3046 -0.7325 -2.3249
 5759TIP3   OH238767   6.701   2.784  14.313  0.6076 -0.3492  0.4961
 5759TIP3    H138768   6.727   2.693  14.327 -2.4725 -1.2645  1.1395
 5759TIP3    H238769   6.681   2.818  14.400 -1.6011 -0.2785  0.0395
 5760TIP3   OH238770   6.376   2.281  14.381 -0.0655  0.3070 -0.0634
 5760TIP3    H138771   6.400   2.214  14.445 -3.0064 -0.0704  0.7873
 5760TIP3    H238772   6.376   2.235  14.297 -1.6133 -0.7298  0.4531
 5761TIP3   OH238773   5.278   4.236   4.351 -0.1718 -0.8971 -0.3036
 5761TIP3    H138774   5.244   4.209   4.266  0.8116 -1.5403 -0.5104
 5761TIP3    H238775   5.367   4.267   4.332 -1.0815  2.2607 -0.0521
 5762TIP3   OH238776   0.780   3.092  11.717 -0.2228 -0.0770  0.6359
 5762TIP3    H138777   0.712   3.072  11.781 -0.4565 -0.7437  0.1868
 5762TIP3    H238778   0.828   3.010  11.708 -1.1154 -0.4367 -1.1526
 5763TIP3   OH238779   2.004   4.785  12.130  0.0308  0.2857 -0.2708
 5763TIP3    H138780   2.072   4.850  12.111  0.0237  0.4014  0.0980
 5763TIP3    H238781   1.923   4.836  12.130 -0.0967  0.1005 -0.9947
 5764TIP3   OH238782   0.958   3.601   2.544  0.1867 -0.0086 -0.3016
 5764TIP3    H138783   0.960   3.509   2.515 -1.4211 -0.4054  0.6985
 5764TIP3    H238784   0.999   3.600   2.630 -1.2411 -0.1183  0.4134
 5765TIP3   OH238785   1.664   6.150  14.304  0.5865 -0.6051  0.2725
 5765TIP3    H138786   1.675   6.174  14.396  0.2918 -0.9479  0.3993
 5765TIP3    H238787   1.681   6.056  14.302 -1.8717 -1.1127  0.4216
 5766TIP3   OH238788   0.993   1.072   0.671  0.0068  0.1398 -0.2189
 5766TIP3    H138789   1.013   1.164   0.688  1.0022 -0.1807  0.4930
 5766TIP3    H238790   0.960   1.070   0.582 -0.6864  1.2744 -0.0017
 5767TIP3   OH238791   4.613   5.654  10.897  0.5107  0.2595  0.2170
 5767TIP3    H138792   4.589   5.702  10.818 -0.5569 -0.1612  0.2763
 5767TIP3    H238793   4.692   5.606  10.873  1.8000  2.2573  0.2499
 5768TIP3   OH238794   5.393   2.871  15.663 -0.5283  0.1717  0.3760
 5768TIP3    H138795   5.485   2.850  15.676 -0.5553 -0.1634  0.0564
 5768TIP3    H238796   5.371   2.930  15.735 -0.1533 -0.0123  0.6452
 5769TIP3   OH238797   2.332   3.825  15.557 -0.1677 -0.0556 -0.2585
 5769TIP3    H138798   2.321   3.833  15.651 -2.9381  1.6505 -0.6112
 5769TIP3    H238799   2.414   3.869  15.538 -0.1382  0.5887  1.2450
 5770TIP3   OH238800   6.751   6.538   3.784  0.5675  0.1226  0.5552
 5770TIP3    H138801   6.757   6.443   3.787 -0.5781  0.0463  1.1108
 5770TIP3    H238802   6.756   6.560   3.691  0.0382 -0.5606  0.3590
 5771TIP3   OH238803   5.741   3.245   5.506  0.2907  0.1846 -0.1782
 5771TIP3    H138804   5.760   3.338   5.519  1.5433 -0.1248  0.3206
 5771TIP3    H238805   5.814   3.212   5.453  0.1294 -0.6192  0.0856
 5772TIP3   OH238806   6.288   3.774  10.352  0.1284  0.3763 -0.0621
 5772TIP3    H138807   6.378   3.804  10.364 -0.3809  1.1464  2.2374
 5772TIP3    H238808   6.240   3.851  10.321  0.0526  0.2541 -0.2503
 5773TIP3   OH238809   6.588   1.014   4.893  0.3437  0.2561 -0.2331
 5773TIP3    H138810   6.561   0.944   4.953  1.2217 -1.5024 -1.7506
 5773TIP3    H238811   6.529   1.005   4.818  0.5672  1.0652 -0.5170
 5774TIP3   OH238812   1.894   4.668  11.782  0.0054 -0.2157 -0.2970
 5774TIP3    H138813   1.840   4.598  11.745 -0.6286 -1.3627  2.5448
 5774TIP3    H238814   1.939   4.626  11.855  2.1711  1.5889 -0.4973
 5775TIP3   OH238815   4.650   4.880   1.931  0.7002 -0.6871  0.5124
 5775TIP3    H138816   4.672   4.792   1.902  1.4946 -0.5655  0.7277
 5775TIP3    H238817   4.621   4.869   2.021  1.6472 -0.6340  0.8386
 5776TIP3   OH238818   6.076   3.629  15.064 -0.2277  0.0648 -0.4666
 5776TIP3    H138819   6.124   3.655  15.142  0.1590 -0.7591 -0.4260
 5776TIP3    H238820   6.012   3.565  15.094  0.2003 -0.5735 -0.8743
 5777TIP3   OH238821   6.114   0.050  13.776  0.4125 -0.2172  0.0446
 5777TIP3    H138822   6.127   0.141  13.751 -1.0022 -0.2296 -0.8703
 5777TIP3    H238823   6.033   0.050  13.826 -0.8268 -1.2131 -1.8085
 5778TIP3   OH238824   0.690   4.760   2.462  0.4134 -0.7663 -0.3940
 5778TIP3    H138825   0.772   4.804   2.483  0.7270 -1.1154 -0.8869
 5778TIP3    H238826   0.630   4.831   2.437  1.2516 -0.6894 -2.3306
 5779TIP3   OH238827   5.725   4.510  13.936  0.5613  0.0940 -0.9056
 5779TIP3    H138828   5.795   4.566  13.903  0.0761  0.4742 -1.3048
 5779TIP3    H238829   5.656   4.571  13.962  1.1706 -0.1366  1.4614
 5780TIP3   OH238830   2.065   5.612   4.594 -0.3448 -0.0596  0.2654
 5780TIP3    H138831   2.038   5.692   4.639  0.4328  0.0682  0.5087
 5780TIP3    H238832   2.017   5.542   4.638 -0.5839  0.2072  0.4290
 5781TIP3   OH238833   4.256   3.848  15.305  0.3248  0.2337 -0.1642
 5781TIP3    H138834   4.314   3.891  15.369  0.5558  0.3831 -0.4738
 5781TIP3    H238835   4.176   3.830  15.355  0.0728  1.3652 -0.1157
 5782TIP3   OH238836   5.182   3.874  15.998 -0.1067 -0.4052 -0.2326
 5782TIP3    H138837   5.273   3.887  15.970 -1.0346  1.5509 -2.7249
 5782TIP3    H238838   5.137   3.845  15.918 -2.2055  1.5094  0.1709
 5783TIP3   OH238839   3.661   2.538  16.783  0.9427  0.6281  0.2936
 5783TIP3    H138840   3.666   2.453  16.739  1.3161  1.1815 -0.7866
 5783TIP3    H238841   3.568   2.550  16.801  0.7605  0.4369 -0.4790
 5784TIP3   OH238842   2.122   1.591   1.528  0.8531  0.6840 -0.6435
 5784TIP3    H138843   2.155   1.510   1.567 -2.1913 -0.1426  0.4833
 5784TIP3    H238844   2.119   1.653   1.601 -2.3410 -0.0620 -0.0058
 5785TIP3   OH238845   0.485   5.770  11.242 -0.3698  0.4713  0.2365
 5785TIP3    H138846   0.450   5.682  11.226 -0.3020  0.7088 -1.3370
 5785TIP3    H238847   0.492   5.810  11.155 -0.2589  1.9903  0.9117
 5786TIP3   OH238848   1.222   0.179  12.391  0.6789 -0.6316  0.2596
 5786TIP3    H138849   1.223   0.094  12.436  0.9514  0.4867  2.5127
 5786TIP3    H238850   1.138   0.180  12.345  0.2754 -1.7653  0.9291
 5787TIP3   OH238851   2.002   5.159  12.577 -0.0484 -0.3002 -0.6168
 5787TIP3    H138852   2.071   5.221  12.553 -0.6338  0.7846  0.3892
 5787TIP3    H238853   1.955   5.143  12.495 -0.5375  1.4419 -0.7125
 5788TIP3   OH238854   3.265   5.237   0.897  0.6600  0.1255 -0.7471
 5788TIP3    H138855   3.283   5.320   0.853 -0.5864 -0.9096 -3.4476
 5788TIP3    H238856   3.229   5.180   0.828  1.7233 -2.7800  0.8851
 5789TIP3   OH238857   2.180   5.684   1.921 -0.5165 -0.2404 -0.4398
 5789TIP3    H138858   2.131   5.685   2.003 -1.4194  1.7487 -0.9505
 5789TIP3    H238859   2.270   5.664   1.948 -1.0013 -0.7832  0.8743
 5790TIP3   OH238860   0.116   5.963  11.494 -0.0650  0.3764 -0.9098
 5790TIP3    H138861   0.193   6.015  11.513 -0.0790 -0.0976  0.5182
 5790TIP3    H238862   0.086   5.930  11.579 -1.5859  0.1880 -1.4762
 5791TIP3   OH238863   2.405   5.074  16.590  0.3576  0.1273  0.6832
 5791TIP3    H138864   2.473   5.132  16.626  0.5933  2.2452 -2.6704
 5791TIP3    H238865   2.455   5.008  16.540  0.0759  1.2637 -1.1960
 5792TIP3   OH238866   1.793   2.702   4.303 -0.2862  0.1215  0.4461
 5792TIP3    H138867   1.848   2.626   4.323  0.1616  0.2112 -0.3870
 5792TIP3    H238868   1.728   2.704   4.373  0.6157 -0.1413  1.3033
 5793TIP3   OH238869   6.341   4.577  17.228 -0.0466  0.5144 -0.6306
 5793TIP3    H138870   6.258   4.591  17.273  1.5282 -1.4757  3.5132
 5793TIP3    H238871   6.372   4.665  17.207 -2.0779  1.4446  0.0553
 5794TIP3   OH238872   6.127   3.071  17.047  0.0873 -0.2594  0.3460
 5794TIP3    H138873   6.060   3.137  17.028  0.2169  0.0211  0.8217
 5794TIP3    H238874   6.202   3.097  16.994  0.0921 -0.1021  0.4304
 5795TIP3   OH238875   5.886   0.127   5.118  0.0136  0.8567  0.7130
 5795TIP3    H138876   5.863   0.153   5.207  0.4386 -3.3442  2.2407
 5795TIP3    H238877   5.802   0.109   5.076 -0.1400  2.0699  0.4432
 5796TIP3   OH238878   0.512   2.879  16.689  0.8111 -0.0006  0.3954
 5796TIP3    H138879   0.461   2.829  16.626  0.7089  0.7518 -0.1416
 5796TIP3    H238880   0.446   2.924  16.743  0.8837  0.8167 -0.1707
 5797TIP3   OH238881   4.879   3.299  10.727  0.1205  0.1920 -0.4002
 5797TIP3    H138882   4.957   3.268  10.681 -0.2191 -0.2604 -0.6752
 5797TIP3    H238883   4.913   3.359  10.794  0.5938  1.1909 -1.4889
 5798TIP3   OH238884   1.816   0.072  13.786 -0.4126 -0.0307 -0.3102
 5798TIP3    H138885   1.900   0.062  13.832 -0.0996  1.0423 -0.6188
 5798TIP3    H238886   1.767   0.133  13.839 -0.8726 -0.3849 -0.3219
 5799TIP3   OH238887   5.202   1.545  14.085  0.4383 -0.4383 -0.1927
 5799TIP3    H138888   5.188   1.587  14.170 -2.1025 -0.9496 -0.3009
 5799TIP3    H238889   5.295   1.520  14.086  0.5628 -0.0961  2.2759
 5800TIP3   OH238890   0.944   1.213   6.772 -0.7065 -0.3796  0.8342
 5800TIP3    H138891   1.034   1.241   6.753 -0.3080 -0.6970  2.1366
 5800TIP3    H238892   0.889   1.278   6.728  0.1276 -0.5596 -0.5677
 5801TIP3   OH238893   1.615   1.756   1.951  0.0257 -0.3082 -0.4332
 5801TIP3    H138894   1.635   1.829   1.893 -0.0906  0.2813  0.2588
 5801TIP3    H238895   1.563   1.696   1.898  1.3996 -0.6348 -1.4860
 5802TIP3   OH238896   3.910   0.257  13.096 -0.0008 -0.2538  0.0727
 5802TIP3    H138897   3.950   0.170  13.104  0.4849  0.0110  0.6004
 5802TIP3    H238898   3.983   0.317  13.107 -0.4083  0.2307  0.1379
 5803TIP3   OH238899   0.418   1.032   2.766  0.6310  0.2854 -0.4254
 5803TIP3    H138900   0.390   0.942   2.754  0.2365  0.5205 -1.4480
 5803TIP3    H238901   0.454   1.036   2.855  1.0852 -0.9763 -0.5428
 5804TIP3   OH238902   4.594   3.736   5.202  0.2581  0.1852  0.2055
 5804TIP3    H138903   4.500   3.752   5.197  0.4015  1.1774  0.4998
 5804TIP3    H238904   4.610   3.710   5.292  0.3049  0.2835  0.2257
 5805TIP3   OH238905   0.360   2.901  13.615  0.7940 -0.1910  0.4850
 5805TIP3    H138906   0.454   2.917  13.615  1.1507 -2.0547  1.3674
 5805TIP3    H238907   0.334   2.910  13.707 -0.1020  1.2365  0.1315
 5806TIP3   OH238908   5.769   2.478   2.961  1.0663  0.1061 -0.3806
 5806TIP3    H138909   5.716   2.453   2.885 -1.5362 -1.7727  1.8896
 5806TIP3    H238910   5.858   2.453   2.937  0.0774 -1.9618 -2.2024
 5807TIP3   OH238911   5.539   5.897   3.931 -0.8382  0.5734 -0.0572
 5807TIP3    H138912   5.605   5.858   3.988 -1.5256 -0.7953 -0.1618
 5807TIP3    H238913   5.527   5.986   3.965  1.2651  0.9817 -0.2419
 5808TIP3   OH238914   1.401   4.567   3.207  0.4558  0.2043 -0.2277
 5808TIP3    H138915   1.402   4.615   3.290  1.7259 -0.2308  0.0363
 5808TIP3    H238916   1.476   4.507   3.213 -1.0077 -1.7708 -0.5745
 5809TIP3   OH238917   5.995   2.214  12.882  0.5863  0.4694 -0.2940
 5809TIP3    H138918   6.075   2.163  12.897 -0.6003 -1.3488  0.0401
 5809TIP3    H238919   5.976   2.253  12.968  0.5782  0.1127 -0.1322
 5810TIP3   OH238920   5.387   1.483  11.104 -0.0778 -0.0062 -0.6349
 5810TIP3    H138921   5.334   1.417  11.060  0.2947 -0.0533 -1.0094
 5810TIP3    H238922   5.477   1.452  11.098 -0.1189 -0.5851  1.1621
 5811TIP3   OH238923   1.077   2.554  12.872 -0.1890  0.5389  0.1185
 5811TIP3    H138924   1.124   2.479  12.911 -0.0094  0.5908  0.0057
 5811TIP3    H238925   1.006   2.572  12.933  1.1084  1.7347  1.3651
 5812TIP3   OH238926   2.972   4.019   1.008 -0.0833 -0.2363  0.2173
 5812TIP3    H138927   2.942   4.109   0.993 -0.1957 -0.4351 -0.8550
 5812TIP3    H238928   3.066   4.022   0.989 -0.1316 -0.3882 -0.0534
 5813TIP3   OH238929   0.399   4.103   6.924  0.5721 -0.1920  0.1714
 5813TIP3    H138930   0.476   4.155   6.901  0.6838 -1.2402 -2.0868
 5813TIP3    H238931   0.400   4.029   6.863 -1.5339 -0.9260  0.9182
 5814TIP3   OH238932   6.061   4.366   4.486  0.3102  0.3478 -0.0291
 5814TIP3    H138933   5.978   4.411   4.497  0.2108  0.1168  0.1867
 5814TIP3    H238934   6.042   4.274   4.507  0.2933  0.0342 -1.3609
 5815TIP3   OH238935   2.132   0.214  14.206  0.3717  0.1786 -0.3393
 5815TIP3    H138936   2.097   0.294  14.245  1.7656  0.6199  0.0434
 5815TIP3    H238937   2.184   0.174  14.275  0.9707 -0.2342 -1.0193
 5816TIP3   OH238938   0.214   2.245  13.984 -0.5338 -0.6776 -0.1855
 5816TIP3    H138939   0.244   2.214  13.899 -0.2167 -0.0386 -0.3122
 5816TIP3    H238940   0.195   2.338  13.971  1.5134 -0.0389  0.9368
 5817TIP3   OH238941   4.669   2.437  12.072 -0.2755 -0.5007  0.9442
 5817TIP3    H138942   4.608   2.492  12.022 -2.8755 -3.0013  1.0539
 5817TIP3    H238943   4.698   2.370  12.010  0.4112 -0.7727  1.5378
 5818TIP3   OH238944   3.648   1.159  16.689  0.1216  0.6316 -0.2378
 5818TIP3    H138945   3.602   1.202  16.616 -1.0363  0.9255  0.6364
 5818TIP3    H238946   3.632   1.215  16.764 -2.1734 -1.6711  1.1611
 5819TIP3   OH238947   5.152   3.826  16.672 -0.4940 -0.1396  0.3685
 5819TIP3    H138948   5.209   3.875  16.613 -2.0469  2.1934  0.6626
 5819TIP3    H238949   5.212   3.779  16.729  1.1063  0.8334 -0.4375
 5820TIP3   OH238950   2.655   6.231  13.002 -0.4986  0.3406 -0.9454
 5820TIP3    H138951   2.597   6.155  13.009  0.9773 -0.8114 -0.6100
 5820TIP3    H238952   2.702   6.218  12.920  2.2530 -1.0619  0.6797
 5821TIP3   OH238953   5.739   4.034   2.265  0.3462 -0.0354 -0.4890
 5821TIP3    H138954   5.705   4.030   2.176 -1.8992  1.6677  0.2283
 5821TIP3    H238955   5.691   3.965   2.312  0.5564 -0.0403 -0.2795
 5822TIP3   OH238956   4.420   5.345   2.027  0.5037  0.0470  0.2995
 5822TIP3    H138957   4.468   5.264   2.046 -1.9045 -1.0428  2.2857
 5822TIP3    H238958   4.452   5.408   2.092  1.3118  0.2885 -0.3056
 5823TIP3   OH238959   1.875   4.151  16.289 -0.0695  0.8715 -0.6309
 5823TIP3    H138960   1.810   4.212  16.257 -0.0364  0.9334 -0.5824
 5823TIP3    H238961   1.864   4.073  16.236  0.3980  1.1924 -1.2102
 5824TIP3   OH238962   1.730   6.669  14.971  0.0714 -0.6330 -0.7980
 5824TIP3    H138963   1.666   6.737  14.989  0.2282 -1.0516  1.6393
 5824TIP3    H238964   1.739   6.669  14.875 -1.2343  1.5204 -0.9806
 5825TIP3   OH238965   3.489   1.886   1.370  0.2927  0.1736  0.3282
 5825TIP3    H138966   3.550   1.818   1.397  0.7938  0.8363  0.8908
 5825TIP3    H238967   3.403   1.851   1.390  0.2889 -1.6307 -2.3099
 5826TIP3   OH238968   1.278   0.363   2.690  0.7516 -0.0515 -0.0993
 5826TIP3    H138969   1.357   0.358   2.637  0.0593 -0.5513 -1.1272
 5826TIP3    H238970   1.303   0.415   2.766  2.3341 -1.0858  0.1218
 5827TIP3   OH238971   5.242   4.329   3.838 -0.4839 -0.5489 -0.3606
 5827TIP3    H138972   5.196   4.247   3.853  0.4306 -0.8449  1.0367
 5827TIP3    H238973   5.293   4.343   3.918  3.3791 -1.2550 -2.4418
 5828TIP3   OH238974   0.573   2.215   2.147  0.1743 -0.0568 -0.5936
 5828TIP3    H138975   0.616   2.151   2.204 -0.6795  0.3111  0.5154
 5828TIP3    H238976   0.633   2.290   2.145 -0.7986  0.9010  1.8363
 5829TIP3   OH238977   2.143   0.366  12.492 -0.1973 -0.0557  0.5846
 5829TIP3    H138978   2.129   0.373  12.398 -2.0677  2.4832  0.9619
 5829TIP3    H238979   2.206   0.435  12.512 -0.3807 -0.0834  1.2891
 5830TIP3   OH238980   3.592   4.057  10.495 -0.6914 -0.0495  0.2009
 5830TIP3    H138981   3.511   4.101  10.518 -0.2765  1.1609 -0.5443
 5830TIP3    H238982   3.598   4.064  10.399  0.0621 -0.5256  0.1972
 5831TIP3   OH238983   2.634   0.108  14.391  0.2168  0.3229 -0.0616
 5831TIP3    H138984   2.557   0.093  14.337  0.1776  0.8390 -0.1519
 5831TIP3    H238985   2.604   0.097  14.481  0.0813  0.3391 -0.1052
 5832TIP3   OH238986   2.280   5.837   2.307  0.0822 -0.2820 -0.0235
 5832TIP3    H138987   2.194   5.805   2.334  0.1151 -0.4828 -0.1519
 5832TIP3    H238988   2.275   5.932   2.317 -0.1651 -0.2908 -0.0659
 5833TIP3   OH238989   4.451   0.388   6.187 -0.4519 -0.0513  0.6795
 5833TIP3    H138990   4.389   0.322   6.156 -0.1615 -0.7554  1.5666
 5833TIP3    H238991   4.537   0.355   6.160 -0.1415 -0.9040  2.5058
 5834TIP3   OH238992   1.066   5.233  13.304 -0.0379  0.4097 -0.0575
 5834TIP3    H138993   0.972   5.231  13.284 -0.0441 -1.8258 -0.0735
 5834TIP3    H238994   1.070   5.247  13.398 -0.4688 -0.7034  0.1455
 5835TIP3   OH238995   4.750   3.275   1.761 -0.1327 -0.2070  0.5758
 5835TIP3    H138996   4.770   3.224   1.839 -1.0259 -0.6909  0.5037
 5835TIP3    H238997   4.779   3.364   1.782 -1.7766  0.0367  2.0982
 5836TIP3   OH238998   0.642   6.617  13.879 -0.1753  0.0958 -0.3380
 5836TIP3    H138999   0.615   6.582  13.794  0.4877 -1.2753 -0.0024
 5836TIP3    H239000   0.626   6.712  13.872 -2.0499 -0.2436 -1.2519
 5837TIP3   OH239001   3.863   1.080   1.781 -0.3383  0.6857 -0.8288
 5837TIP3    H139002   3.809   1.159   1.786 -0.1643  0.9073 -2.1139
 5837TIP3    H239003   3.951   1.113   1.762 -0.3134  0.1698 -1.6234
 5838TIP3   OH239004   5.692   0.560  11.413  0.1673 -0.2426  0.7305
 5838TIP3    H139005   5.724   0.617  11.343  1.0535  1.1284  2.1886
 5838TIP3    H239006   5.599   0.548  11.393  0.0900  1.2431  0.0442
 5839TIP3   OH239007   1.821   6.500   1.075 -0.2523 -0.2859  0.4943
 5839TIP3    H139008   1.808   6.497   1.170 -0.0456 -0.5853  0.5140
 5839TIP3    H239009   1.859   6.415   1.053  0.7260  0.1797  0.2971
 5840TIP3   OH239010   1.598   1.983  16.781  0.1016  0.3816  0.1150
 5840TIP3    H139011   1.535   1.950  16.845 -0.5549  0.8533 -0.2675
 5840TIP3    H239012   1.552   2.055  16.738  0.7017  0.3649 -0.5702
 5841TIP3   OH239013   6.511   1.519  11.550  0.8321  0.4267  0.0372
 5841TIP3    H139014   6.592   1.482  11.515  0.6785 -0.6833  0.8258
 5841TIP3    H239015   6.498   1.599  11.499  1.2538 -0.5065 -1.6035
 5842TIP3   OH239016   5.645   4.045  12.114  0.6023 -0.5874  0.5477
 5842TIP3    H139017   5.610   4.063  12.201  1.3395  1.3509  0.5024
 5842TIP3    H239018   5.733   4.085  12.115  0.3228  0.1865 -1.3051
 5843TIP3   OH239019   6.170   3.949   5.927 -0.2456 -0.8289  1.1382
 5843TIP3    H139020   6.084   3.982   5.952 -0.8288  0.1451 -1.7492
 5843TIP3    H239021   6.229   3.980   5.995 -1.4555  2.6432  0.7940
 5844TIP3   OH239022   5.737   0.616  14.412 -0.7371 -0.4171 -0.6890
 5844TIP3    H139023   5.734   0.521  14.399 -1.0916 -0.6418  0.8772
 5844TIP3    H239024   5.748   0.651  14.324  0.1105 -1.9336 -1.2368
 5845TIP3   OH239025   3.105   3.158  13.467 -0.1246  0.4640  0.1224
 5845TIP3    H139026   3.097   3.179  13.560  0.3109 -0.0818  0.2840
 5845TIP3    H239027   3.157   3.230  13.430  0.7317  0.0573  0.5311
 5846TIP3   OH239028   4.402   3.709  16.978 -0.0913 -0.6225 -0.4311
 5846TIP3    H139029   4.366   3.677  16.895 -0.4306  0.5784 -0.7790
 5846TIP3    H239030   4.488   3.668  16.985 -0.3182 -1.2171 -1.0746
 5847TIP3   OH239031   4.783   6.213   4.722 -0.3495 -0.0795  0.0665
 5847TIP3    H139032   4.850   6.275   4.692 -0.4077  0.0484  0.2009
 5847TIP3    H239033   4.745   6.254   4.799  0.4866 -0.8539  0.9164
 5848TIP3   OH239034   2.420   5.904  14.493  0.0718  0.5289 -0.1077
 5848TIP3    H139035   2.460   5.982  14.454  1.0487 -0.2191 -0.6081
 5848TIP3    H239036   2.367   5.939  14.565  1.1384  1.5926  0.1885
 5849TIP3   OH239037   1.227   5.434   1.273  0.0220  0.9064 -0.0655
 5849TIP3    H139038   1.296   5.492   1.308 -2.9444  3.8987  1.3899
 5849TIP3    H239039   1.222   5.457   1.180  1.2037  0.3892 -0.2697
 5850TIP3   OH239040   6.311   0.218   1.773 -0.2007 -0.1311  0.1285
 5850TIP3    H139041   6.241   0.214   1.708  0.6825  0.2276 -0.8761
 5850TIP3    H239042   6.340   0.128   1.784 -0.4959 -0.2187  0.1926
 5851TIP3   OH239043   3.479   4.875  15.870  0.7115  0.4755  0.0654
 5851TIP3    H139044   3.547   4.808  15.869  1.0262  0.7715  0.6485
 5851TIP3    H239045   3.523   4.954  15.838  0.8234  0.8171  1.0190
 5852TIP3   OH239046   5.362   6.749  11.424  0.2352  0.3504 -0.6196
 5852TIP3    H139047   5.420   6.762  11.499  0.1651 -0.4914 -0.4020
 5852TIP3    H239048   5.274   6.758  11.460  0.2170  0.7305 -0.7614
 5853TIP3   OH239049   6.178   6.503   0.327 -0.0004  0.5968  0.1132
 5853TIP3    H139050   6.218   6.420   0.353  0.7785  0.3452 -1.6951
 5853TIP3    H239051   6.089   6.479   0.301 -0.6677  0.7989  2.1045
 5854TIP3   OH239052   1.088   6.609   2.057 -0.2908 -0.3639  0.3531
 5854TIP3    H139053   1.007   6.629   2.104  0.0463 -0.9792  1.2267
 5854TIP3    H239054   1.157   6.628   2.121  0.1336 -2.3175  0.5229
 5855TIP3   OH239055   1.639   6.737   0.739  0.5755  0.5579 -0.9022
 5855TIP3    H139056   1.707   6.672   0.759  0.3789  0.5646 -0.1996
 5855TIP3    H239057   1.657   6.763   0.648  2.6807  1.9358 -0.1758
 5856TIP3   OH239058   3.044   2.334   0.289  0.0446 -0.0599  0.3242
 5856TIP3    H139059   3.093   2.286   0.222  0.3064 -0.0223  0.4836
 5856TIP3    H239060   3.040   2.424   0.255  1.6794  0.3638  1.1270
 5857TIP3   OH239061   5.410   0.554   3.778 -0.1683  0.0218 -0.3251
 5857TIP3    H139062   5.497   0.564   3.817 -0.2434  0.1822 -0.1963
 5857TIP3    H239063   5.410   0.615   3.704 -0.4082  0.5216  0.0838
 5858TIP3   OH239064   3.447   1.028   3.148 -0.7894  0.0644 -0.0550
 5858TIP3    H139065   3.494   1.106   3.117 -0.0725 -0.0165  0.7785
 5858TIP3    H239066   3.397   1.059   3.224 -2.5739  0.2753 -1.2617
 5859TIP3   OH239067   3.313   5.519  12.170 -0.3524 -0.5658 -0.3625
 5859TIP3    H139068   3.234   5.571  12.186 -1.1430 -1.9018  0.3276
 5859TIP3    H239069   3.386   5.579  12.185 -1.2229  0.2976  0.5442
 5860TIP3   OH239070   3.853   5.172  13.868  0.0388  0.0601  0.5030
 5860TIP3    H139071   3.897   5.187  13.785  0.1089  1.0198  0.7008
 5860TIP3    H239072   3.835   5.260  13.902 -2.1835 -0.2940  0.3499
 5861TIP3   OH239073   3.168   2.531   4.196  0.0042  0.1282  0.0784
 5861TIP3    H139074   3.204   2.519   4.284  0.3572  0.9513  0.0516
 5861TIP3    H239075   3.169   2.443   4.158 -0.6423 -0.3191  1.0729
 5862TIP3   OH239076   6.668   6.395  16.633  0.7982  0.0361  0.1475
 5862TIP3    H139077   6.655   6.416  16.541 -0.5295  0.6192  0.4389
 5862TIP3    H239078   6.682   6.480  16.675 -1.5372  0.1091  0.8921
 5863TIP3   OH239079   0.904   6.598  12.878  0.0729 -0.1930  0.1488
 5863TIP3    H139080   0.909   6.617  12.784  0.6016  0.0310  0.2230
 5863TIP3    H239081   0.943   6.674  12.921 -1.5558  0.4306  0.6337
 5864TIP3   OH239082   4.042   3.170   4.670 -0.1946 -0.2204 -0.6700
 5864TIP3    H139083   4.017   3.260   4.690  2.4896  0.1824  1.3793
 5864TIP3    H239084   4.027   3.122   4.751 -0.3956 -1.3726 -1.3586
 5865TIP3   OH239085   1.287   0.997  13.980 -0.1698 -0.6108  0.6635
 5865TIP3    H139086   1.289   1.076  14.033 -0.3872  0.0750 -0.3308
 5865TIP3    H239087   1.245   0.932  14.036  0.5934 -0.2222  1.7287
 5866TIP3   OH239088   4.128   1.670  14.505  0.2266  0.2502  0.6730
 5866TIP3    H139089   4.128   1.597  14.443 -0.0990  0.7874  0.0187
 5866TIP3    H239090   4.051   1.655  14.560  0.3378 -0.0633  0.7411
 5867TIP3   OH239091   4.877   1.647   1.609  0.0397  0.1051 -0.0153
 5867TIP3    H139092   4.913   1.592   1.679  0.6674 -0.0377 -0.4345
 5867TIP3    H239093   4.910   1.606   1.528 -0.7864  0.1856 -0.3974
 5868TIP3   OH239094   3.703   2.787   5.145 -0.3929 -0.4307 -0.4009
 5868TIP3    H139095   3.760   2.740   5.206 -1.5148 -1.3092  0.0258
 5868TIP3    H239096   3.650   2.844   5.200  0.4392  0.8009 -0.8497
 5869TIP3   OH239097   0.030   1.307   3.051 -0.0197 -0.1563 -0.2177
 5869TIP3    H139098  -0.021   1.356   3.115  0.4577  1.2401 -0.8619
 5869TIP3    H239099   0.042   1.220   3.090 -1.3811  0.0495  0.7015
 5870TIP3   OH239100   3.085   0.113   4.197 -0.2911  0.6804 -0.0876
 5870TIP3    H139101   3.131   0.103   4.281  0.3208  1.9233 -0.2412
 5870TIP3    H239102   3.151   0.150   4.138 -0.7197 -0.1812 -1.1253
 5871TIP3   OH239103   6.618   0.953  16.515  0.3310  0.4347  0.0210
 5871TIP3    H139104   6.559   1.017  16.556 -0.8584 -1.2618  1.0901
 5871TIP3    H239105   6.614   0.972  16.422 -0.8382  1.2451  0.2202
 5872TIP3   OH239106   2.751   6.670  16.059 -0.0342  0.2575 -0.0332
 5872TIP3    H139107   2.785   6.620  15.985  0.0765 -0.5572  0.5504
 5872TIP3    H239108   2.660   6.690  16.035 -0.7147 -1.9034  0.5051
 5873TIP3   OH239109   4.714   6.497  11.429 -0.7525 -0.5912  0.5722
 5873TIP3    H139110   4.717   6.583  11.469 -1.4689 -0.5690  0.5937
 5873TIP3    H239111   4.802   6.482  11.396 -1.1125  1.0058 -1.2368
 5874TIP3   OH239112   0.036   0.707  14.893  0.3386 -0.2055 -0.9523
 5874TIP3    H139113  -0.043   0.715  14.839  0.7458 -1.4190 -1.7899
 5874TIP3    H239114   0.026   0.622  14.936 -0.7697  1.4323  2.3021
 5875TIP3   OH239115   2.660   4.855  15.925  0.4019  0.0716 -0.9020
 5875TIP3    H139116   2.649   4.872  15.831  1.0594 -0.7989 -1.1528
 5875TIP3    H239117   2.681   4.762  15.930 -0.5276 -0.1049  0.1949
 5876TIP3   OH239118   2.421   3.240   0.885  0.0612 -0.5740 -0.2506
 5876TIP3    H139119   2.515   3.256   0.875  0.0293 -1.1087 -1.6388
 5876TIP3    H239120   2.414   3.144   0.885 -0.5033 -0.5310 -0.3900
 5877TIP3   OH239121   2.129   0.374  16.739  0.1970  0.0606  0.6686
 5877TIP3    H139122   2.150   0.386  16.832  0.0506  0.0278  0.7067
 5877TIP3    H239123   2.040   0.409  16.731 -0.4241 -1.4113  0.8715
 5878TIP3   OH239124   3.024   0.294  16.811  0.2511 -0.6626 -0.1233
 5878TIP3    H139125   3.031   0.382  16.847  0.6236 -0.4778 -0.6339
 5878TIP3    H239126   2.956   0.252  16.864 -2.3419  0.9421 -1.9187
 5879TIP3   OH239127   5.429   2.440  15.115 -0.1022 -0.0313  0.4548
 5879TIP3    H139128   5.502   2.452  15.054  0.3775 -0.1488  0.9981
 5879TIP3    H239129   5.357   2.407  15.060 -0.0641  1.0410 -0.2553
 5880TIP3   OH239130   3.644   2.103   6.701 -0.4001  0.1932  0.0752
 5880TIP3    H139131   3.573   2.043   6.680  0.0744  0.2168 -1.8625
 5880TIP3    H239132   3.601   2.186   6.722 -0.9788 -0.0199 -0.2526
 5881TIP3   OH239133   2.956   1.917   3.183  0.4732  0.3993 -0.6840
 5881TIP3    H139134   3.049   1.914   3.159  0.4575  0.1059 -0.7101
 5881TIP3    H239135   2.923   1.994   3.137  0.3014 -0.5029 -2.1502
 5882TIP3   OH239136   6.190   4.987  14.312  0.2862  0.3513 -0.0126
 5882TIP3    H139137   6.164   4.919  14.374 -2.8889  1.4160  0.0280
 5882TIP3    H239138   6.221   5.059  14.366  2.4547 -0.5398  0.0028
 5883TIP3   OH239139   4.576   4.204   5.323  0.1242  0.3594  0.7387
 5883TIP3    H139140   4.641   4.170   5.262 -1.7804 -2.2969  0.0119
 5883TIP3    H239141   4.523   4.263   5.271 -1.0667 -1.3652 -0.1113
 5884TIP3   OH239142   1.949   1.624  14.865  0.8070  0.2697  0.4120
 5884TIP3    H139143   1.976   1.550  14.920  0.1782  0.0012  0.3710
 5884TIP3    H239144   1.967   1.701  14.918  1.1872  0.0709  0.5768
 5885TIP3   OH239145   1.554   0.504   6.223 -0.3236  0.5323  0.0735
 5885TIP3    H139146   1.610   0.426   6.225 -1.6644 -0.4389  0.8802
 5885TIP3    H239147   1.550   0.533   6.314  0.3087  1.6732 -0.2468
 5886TIP3   OH239148   1.338   3.295  11.857 -0.0905  0.6102 -0.1050
 5886TIP3    H139149   1.326   3.353  11.783 -0.5516  0.4640 -0.1497
 5886TIP3    H239150   1.271   3.227  11.846 -2.3285  2.2700  2.0762
 5887TIP3   OH239151   2.439   0.069  17.216 -0.1074  0.3932  0.4617
 5887TIP3    H139152   2.349   0.036  17.206  0.1498  0.3781 -2.6561
 5887TIP3    H239153   2.454   0.068  17.310 -2.7805 -1.2284  0.9806
 5888TIP3   OH239154   5.600   1.476   6.546  0.1764 -0.0487  0.2719
 5888TIP3    H139155   5.693   1.498   6.547  0.3125 -0.6215  0.4627
 5888TIP3    H239156   5.556   1.559   6.567  0.6036  0.3905 -0.5053
 5889TIP3   OH239157   0.709   1.118   5.476 -0.3645  0.0932 -0.6616
 5889TIP3    H139158   0.689   1.034   5.433 -1.4210 -0.1338  0.2248
 5889TIP3    H239159   0.698   1.183   5.407 -1.1227 -0.3565 -0.9842
 5890TIP3   OH239160   3.150   3.070   4.520  0.2073  0.6202  0.3882
 5890TIP3    H139161   3.191   2.984   4.509 -0.5225  0.3671 -0.5116
 5890TIP3    H239162   3.216   3.133   4.493  0.9347  0.3927  1.5544
 5891TIP3   OH239163   5.585   4.348  14.551 -0.7972  0.3316 -0.2060
 5891TIP3    H139164   5.492   4.329  14.533 -0.7196  0.9858 -1.4417
 5891TIP3    H239165   5.624   4.357  14.464  0.1864  1.2200  0.3094
 5892TIP3   OH239166   2.752   1.334  11.038  0.1130  0.2286  0.0129
 5892TIP3    H139167   2.782   1.418  11.073 -2.0449  0.1321  2.3816
 5892TIP3    H239168   2.665   1.353  11.002 -0.3749 -0.9379  0.5129
 5893TIP3   OH239169   4.445   2.277   2.841  0.4941 -0.2092  0.0246
 5893TIP3    H139170   4.458   2.305   2.931  0.0202 -0.1818  0.0874
 5893TIP3    H239171   4.522   2.311   2.794  0.3654  0.4410  0.2684
 5894TIP3   OH239172   2.443   5.979   2.567  0.1949  0.1185 -0.0410
 5894TIP3    H139173   2.400   5.894   2.561  0.5290  0.0112 -1.3207
 5894TIP3    H239174   2.381   6.040   2.526  0.3077  0.3458  0.1250
 5895TIP3   OH239175   6.434   1.658  13.313  0.1614  0.1235  0.2294
 5895TIP3    H139176   6.357   1.660  13.369 -1.0869  0.0544 -1.3873
 5895TIP3    H239177   6.412   1.592  13.246  1.9305 -0.4230  0.1441
 5896TIP3   OH239178   6.338   1.209  16.428  0.1120 -0.5982 -0.3714
 5896TIP3    H139179   6.342   1.118  16.459  1.2292 -0.2530  0.5875
 5896TIP3    H239180   6.429   1.239  16.431 -0.3095  0.7277 -0.1297
 5897TIP3   OH239181   0.969   6.341   1.054 -0.2564  0.0409  0.2382
 5897TIP3    H139182   1.023   6.382   1.121  1.0265 -1.3369  0.0990
 5897TIP3    H239183   0.951   6.412   0.991 -0.3706  1.0208  1.3435
 5898TIP3   OH239184   0.785   2.325  11.986 -0.8239 -0.0818  0.3075
 5898TIP3    H139185   0.867   2.356  11.949 -1.4712 -0.1498 -1.2672
 5898TIP3    H239186   0.796   2.334  12.081  1.0129 -0.1787  0.1383
 5899TIP3   OH239187   1.348   3.588  14.701 -0.1605  0.0732 -0.2549
 5899TIP3    H139188   1.418   3.533  14.736  0.2173  0.1740 -0.8366
 5899TIP3    H239189   1.279   3.526  14.677 -0.6583  0.0447  1.1595
 5900TIP3   OH239190   1.088   5.635  14.712  0.6501 -0.0470 -0.1781
 5900TIP3    H139191   1.159   5.573  14.694  1.3204  0.7383 -0.3360
 5900TIP3    H239192   1.018   5.581  14.748  1.4500 -0.8017  0.2993
 5901TIP3   OH239193   6.004   4.797   5.377 -0.1017  0.3427 -0.1113
 5901TIP3    H139194   5.953   4.724   5.410  1.2674 -0.7786 -0.3815
 5901TIP3    H239195   5.948   4.874   5.390 -1.0195 -0.5506  1.4634
 5902TIP3   OH239196   2.962   4.331   5.270 -0.0332 -0.2459  0.4192
 5902TIP3    H139197   2.976   4.377   5.187  1.6871 -2.1854 -0.4612
 5902TIP3    H239198   3.017   4.378   5.333  1.3496 -0.7523 -0.3644
 5903TIP3   OH239199   1.705   1.735  17.292  0.0684  0.0119  0.4152
 5903TIP3    H139200   1.665   1.666  17.238  0.9925 -0.3684  0.1970
 5903TIP3    H239201   1.777   1.691  17.337  0.7455  0.8575  0.1852
 5904TIP3   OH239202   3.721   5.636  14.769  0.9394  0.2760 -0.5000
 5904TIP3    H139203   3.768   5.564  14.811  0.3102 -1.0806 -1.9972
 5904TIP3    H239204   3.774   5.657  14.692 -0.1437 -0.3320 -1.4396
 5905TIP3   OH239205   0.312   0.135   1.991 -0.6549  0.4097 -0.4209
 5905TIP3    H139206   0.386   0.085   2.027 -1.5973 -1.7133 -1.2982
 5905TIP3    H239207   0.275   0.078   1.924 -2.8059  1.6186 -0.3364
 5906TIP3   OH239208   4.691   2.108  16.933 -0.9737 -0.1353  0.2064
 5906TIP3    H139209   4.770   2.071  16.971 -1.5664  0.3425  2.0066
 5906TIP3    H239210   4.632   2.033  16.923 -1.1225 -0.1455  1.0809
 5907TIP3   OH239211   2.554   2.090  11.309 -0.0774 -0.0095 -0.3249
 5907TIP3    H139212   2.497   2.167  11.304 -0.1926 -0.1436 -3.2785
 5907TIP3    H239213   2.587   2.090  11.398 -2.6710  1.5507  0.7712
 5908TIP3   OH239214   0.268   3.979   0.962  0.1522  0.1677 -0.3181
 5908TIP3    H139215   0.219   3.941   1.034 -0.4263  1.0532 -0.2236
 5908TIP3    H239216   0.331   4.039   1.004 -0.4573  0.9882 -0.5477
 5909TIP3   OH239217   2.245   1.012  17.222 -0.1543  0.3099  0.4378
 5909TIP3    H139218   2.156   0.987  17.196  0.0171  0.9718 -0.8874
 5909TIP3    H239219   2.232   1.083  17.285 -0.5730  0.6258  0.0071
 5910TIP3   OH239220   1.611   0.025  14.719 -0.1212  0.3371 -0.2773
 5910TIP3    H139221   1.690   0.062  14.758 -0.2122 -1.2301  1.5493
 5910TIP3    H239222   1.616   0.050  14.626  1.7547  1.4950  0.0824
 5911TIP3   OH239223   3.774   5.808  11.083  0.6175 -0.0298 -0.1158
 5911TIP3    H139224   3.851   5.756  11.063  0.8815  0.1151  0.5138
 5911TIP3    H239225   3.774   5.816  11.178 -0.6166 -0.6946 -0.0403
 5912TIP3   OH239226   5.865   1.368   0.349 -0.1769  0.5545 -0.6106
 5912TIP3    H139227   5.913   1.304   0.295 -1.3353 -0.3159 -0.6410
 5912TIP3    H239228   5.804   1.409   0.288  0.4320  1.5696 -0.5460
 5913TIP3   OH239229   3.048   0.027  11.142  0.6003  0.2437  0.4428
 5913TIP3    H139230   3.021  -0.051  11.094 -0.3679  0.1238  1.1709
 5913TIP3    H239231   3.103  -0.006  11.213  0.4644  0.2605  0.5551
 5914TIP3   OH239232   3.574   3.811  14.504  0.2121  0.1272 -0.0514
 5914TIP3    H139233   3.594   3.886  14.560 -1.3882  1.3299 -1.0095
 5914TIP3    H239234   3.479   3.799  14.514  0.4293 -1.7972  0.0789
 5915TIP3   OH239235   4.887   0.611  12.163 -0.4827  0.2374 -0.1088
 5915TIP3    H139236   4.957   0.608  12.098  0.6517  2.6859  0.8922
 5915TIP3    H239237   4.837   0.531  12.147  1.5935 -0.8219 -1.8918
 5916TIP3   OH239238   2.291   1.780   1.362 -0.1765  0.3927  0.7214
 5916TIP3    H139239   2.372   1.728   1.357 -0.4455  0.0044  0.3527
 5916TIP3    H239240   2.237   1.732   1.425 -0.9680 -0.5493 -0.6252
 5917TIP3   OH239241   3.643   0.609   1.209  0.3844  0.2567 -0.3713
 5917TIP3    H139242   3.679   0.586   1.295  0.7822  0.0501 -0.5889
 5917TIP3    H239243   3.607   0.527   1.176 -0.4944  0.5114 -0.0599
 5918TIP3   OH239244   1.100   1.920  15.061 -0.4081 -0.0359  0.4118
 5918TIP3    H139245   1.195   1.915  15.072 -0.3940 -1.2815 -0.0585
 5918TIP3    H239246   1.076   2.004  15.100  0.7526 -0.1412  1.4361
 5919TIP3   OH239247   2.377   0.240   5.295  0.4290 -0.0391 -0.5318
 5919TIP3    H139248   2.365   0.177   5.366 -0.5376  0.2601 -0.4233
 5919TIP3    H239249   2.386   0.185   5.216  2.7218 -0.4268 -0.0679
 5920TIP3   OH239250   4.653   2.512   4.542 -0.0150  0.1168 -0.0485
 5920TIP3    H139251   4.563   2.481   4.545  0.5201 -1.5420  0.5140
 5920TIP3    H239252   4.687   2.496   4.630  0.9865  0.1442 -0.4136
 5921TIP3   OH239253   3.308   0.884  16.267 -0.0620  0.0792 -0.1044
 5921TIP3    H139254   3.343   0.835  16.193  1.9140  1.1739  0.0443
 5921TIP3    H239255   3.323   0.827  16.343  2.1354  0.7479  0.0514
 5922TIP3   OH239256   6.085   2.387   4.508 -0.3759 -0.2745 -0.1638
 5922TIP3    H139257   6.087   2.478   4.540 -0.5787 -0.5714  0.7215
 5922TIP3    H239258   5.999   2.355   4.532  1.1615 -2.1201  3.6770
 5923TIP3   OH239259   0.947   6.449   5.541 -0.6522 -0.9315  0.3644
 5923TIP3    H139260   0.880   6.382   5.557  0.7766 -2.6704 -0.6225
 5923TIP3    H239261   1.013   6.406   5.487  0.5438  1.1771  0.0021
 5924TIP3   OH239262   4.243   2.409  13.130 -0.2091 -0.5396  0.0052
 5924TIP3    H139263   4.154   2.443  13.138  0.8894  2.4042  1.0661
 5924TIP3    H239264   4.268   2.385  13.219  0.4613 -0.1714 -0.0768
 5925TIP3   OH239265   6.041   5.168  16.268  0.3117 -0.6070  0.8355
 5925TIP3    H139266   6.124   5.208  16.240 -0.9757  1.8675  0.2592
 5925TIP3    H239267   6.027   5.096  16.207  2.0267 -1.1051  0.9696
 5926TIP3   OH239268   6.679   5.510   1.251 -0.4129  0.9981  0.1901
 5926TIP3    H139269   6.772   5.525   1.268 -0.1387  0.5556 -0.8342
 5926TIP3    H239270   6.647   5.466   1.329  0.9697 -1.6508 -0.6051
 5927TIP3   OH239271   2.575   0.369  12.759 -0.4721  0.2800 -0.1890
 5927TIP3    H139272   2.593   0.460  12.781 -1.5831 -0.0938  2.6856
 5927TIP3    H239273   2.499   0.373  12.701 -1.2689  1.1769  0.8716
 5928TIP3   OH239274   1.619   3.804   1.621 -0.4127 -0.1897  0.2030
 5928TIP3    H139275   1.643   3.845   1.704 -1.6412 -1.2697  1.1310
 5928TIP3    H239276   1.660   3.859   1.554  1.6494  0.0113  1.5393
 5929TIP3   OH239277   1.329   1.468  14.686  0.1328  0.4614  0.1654
 5929TIP3    H139278   1.329   1.490  14.593 -1.1691 -1.4602 -0.3425
 5929TIP3    H239279   1.397   1.402  14.695  0.0490  0.4223  0.5321
 5930TIP3   OH239280   6.152   1.497   5.180  0.0880 -0.2657 -0.2166
 5930TIP3    H139281   6.112   1.553   5.247 -1.2586 -2.4631  0.9407
 5930TIP3    H239282   6.241   1.482   5.212 -0.0558 -0.0654  0.2959
 5931TIP3   OH239283   4.646   6.736  11.026  0.2079 -0.1034  0.5599
 5931TIP3    H139284   4.630   6.690  10.944  1.6220 -0.1888  0.3022
 5931TIP3    H239285   4.574   6.708  11.083  0.8216 -2.4346  0.3254
 5932TIP3   OH239286   5.563   3.814   1.496  0.9105 -0.4212 -0.5718
 5932TIP3    H139287   5.590   3.890   1.446  1.1318  0.1017  0.3254
 5932TIP3    H239288   5.583   3.739   1.439 -0.3309  0.2200 -1.9176
 5933TIP3   OH239289   6.005   3.523   3.231  0.0729 -0.1718  0.6594
 5933TIP3    H139290   5.988   3.534   3.324  0.3214 -0.6138  0.7600
 5933TIP3    H239291   5.954   3.592   3.189  2.4085  2.0776  1.2844
 5934TIP3   OH239292   4.437   2.291  15.390 -0.7334 -0.2159 -0.0457
 5934TIP3    H139293   4.422   2.234  15.466 -1.5509  0.3210  0.2161
 5934TIP3    H239294   4.453   2.231  15.318  0.8076 -0.7322  0.6870
 5935TIP3   OH239295   1.888   3.696   3.096  0.3662  0.2264 -0.0342
 5935TIP3    H139296   1.911   3.617   3.146  3.4285  0.2649 -1.1860
 5935TIP3    H239297   1.850   3.663   3.015 -0.3471  0.0279  0.3730
 5936TIP3   OH239298   2.505   3.152  14.163  0.2627 -0.3792 -0.3628
 5936TIP3    H139299   2.470   3.079  14.111 -1.6737  1.2188 -1.4417
 5936TIP3    H239300   2.452   3.227  14.137  2.3053  1.4859  0.5763
 5937TIP3   OH239301   6.162   1.847  14.209 -0.0449  0.1691 -0.6677
 5937TIP3    H139302   6.120   1.914  14.155 -0.7586 -0.6595 -1.1575
 5937TIP3    H239303   6.106   1.770  14.200  1.2880 -0.8062 -0.8960
 5938TIP3   OH239304   6.537   4.368  15.387  0.7412 -0.6052  0.1587
 5938TIP3    H139305   6.486   4.347  15.466 -0.0850  1.1420  0.1343
 5938TIP3    H239306   6.623   4.393  15.421  0.7112 -0.8586  0.4287
 5939TIP3   OH239307   5.891   0.303   2.589 -0.0647 -0.3028  0.0826
 5939TIP3    H139308   5.859   0.289   2.678 -0.3234  1.1068  0.2256
 5939TIP3    H239309   5.829   0.364   2.550  0.5152 -0.2509 -0.7931
 5940TIP3   OH239310   1.899   1.974  12.791  0.6748 -0.2406  0.0646
 5940TIP3    H139311   1.956   2.020  12.853 -0.0358 -1.1865  1.4725
 5940TIP3    H239312   1.875   1.894  12.837 -1.4729 -0.0532 -0.6544
 5941TIP3   OH239313   6.141   1.890  10.909  0.3929  0.3483  0.2706
 5941TIP3    H139314   6.212   1.952  10.888 -0.1051  0.6420 -0.6211
 5941TIP3    H239315   6.187   1.809  10.933  1.0630  1.1302  1.7857
 5942TIP3   OH239316   3.105   4.154  12.242 -0.1740 -0.0392  0.1548
 5942TIP3    H139317   3.024   4.166  12.291 -0.1766 -0.6270  0.3123
 5942TIP3    H239318   3.077   4.120  12.157 -0.1821  1.1739 -0.3422
 5943TIP3   OH239319   3.910   4.814   5.676 -0.8011  0.2711 -0.0670
 5943TIP3    H139320   3.978   4.768   5.726  0.4022  2.6134  0.5867
 5943TIP3    H239321   3.833   4.812   5.733 -1.1227 -1.7280 -0.4859
 5944TIP3   OH239322   6.616   5.946  13.705 -0.1946 -0.2105 -0.4642
 5944TIP3    H139323   6.696   5.987  13.738  1.5493 -2.1023 -2.0900
 5944TIP3    H239324   6.550   5.965  13.773  1.5701  1.4554  0.9065
 5945TIP3   OH239325   1.561   2.957   3.373 -0.1035  0.0983 -0.1252
 5945TIP3    H139326   1.577   2.922   3.286 -0.6548  1.9093 -1.0006
 5945TIP3    H239327   1.643   3.000   3.397 -0.2886  0.5067 -0.2130
 5946TIP3   OH239328   5.976   4.645   2.395  0.0775 -0.0101 -0.4851
 5946TIP3    H139329   5.898   4.612   2.350 -0.9309  0.6325  0.7289
 5946TIP3    H239330   6.047   4.586   2.368 -1.4135 -2.5489  0.7537
 5947TIP3   OH239331   2.727   2.511   3.883  0.2000  0.3448 -0.1549
 5947TIP3    H139332   2.778   2.436   3.915  0.4616  0.1571 -0.9978
 5947TIP3    H239333   2.695   2.484   3.797 -1.8762  0.2271  0.6083
 5948TIP3   OH239334   2.948   3.288  15.011 -0.1826  0.3545 -0.3627
 5948TIP3    H139335   2.896   3.251  15.082 -1.2014  0.1232 -1.2145
 5948TIP3    H239336   2.936   3.382  15.019  0.2780  0.3719  0.1947
 5949TIP3   OH239337   1.950   4.400  14.004  0.0974  0.2020 -0.2215
 5949TIP3    H139338   1.980   4.393  14.095 -0.5476  0.5723  0.0252
 5949TIP3    H239339   1.855   4.401  14.010  0.0130 -0.8941 -0.9950
 5950TIP3   OH239340   3.533   5.469  16.079  0.0755  0.4658 -0.1753
 5950TIP3    H139341   3.530   5.375  16.060 -3.2809  0.3457  0.3150
 5950TIP3    H239342   3.586   5.476  16.158  1.8351 -0.7713 -1.2014
 5951TIP3   OH239343   0.718   1.776  14.373 -0.0951  0.1428  0.6999
 5951TIP3    H139344   0.787   1.813  14.428  0.0423 -0.1829  0.7541
 5951TIP3    H239345   0.641   1.828  14.393  0.1569  0.5637  0.5746
 5952TIP3   OH239346   0.892   1.936   1.275 -0.0815  0.2088  0.0141
 5952TIP3    H139347   0.851   1.981   1.350  0.7281 -1.7487  1.7432
 5952TIP3    H239348   0.939   1.863   1.315  0.0305 -1.1830 -2.4990
 5953TIP3   OH239349   0.069   1.798  15.516 -0.0699  0.0981  0.1903
 5953TIP3    H139350   0.087   1.874  15.461 -1.5323  0.0710 -0.3793
 5953TIP3    H239351   0.058   1.726  15.454 -0.0889 -0.2805  0.6292
 5954TIP3   OH239352   1.468   3.048   2.716 -0.0845 -0.2945 -0.0597
 5954TIP3    H139353   1.374   3.031   2.725  0.0577 -0.6929  0.8608
 5954TIP3    H239354   1.480   3.134   2.757  0.1998 -1.0291  1.4761
 5955TIP3   OH239355   0.601   0.903  14.212 -0.0170  0.1379 -0.3234
 5955TIP3    H139356   0.669   0.858  14.263 -0.6078  0.0813  0.4415
 5955TIP3    H239357   0.527   0.910  14.273 -0.5246  0.6293 -0.9863
 5956TIP3   OH239358   6.420   1.930  13.323 -0.3580 -0.3727  0.4545
 5956TIP3    H139359   6.435   1.930  13.228  0.2054  1.1376  0.5318
 5956TIP3    H239360   6.436   1.839  13.349 -0.8449 -0.8931 -0.9325
 5957TIP3   OH239361   2.926   3.351   3.758  0.0648  0.3775 -0.0611
 5957TIP3    H139362   2.950   3.327   3.848  0.1574 -0.2085 -0.2345
 5957TIP3    H239363   2.986   3.299   3.703 -0.2008  0.4955 -0.4645
 5958TIP3   OH239364   4.499   4.575   0.295 -0.2392 -0.4728  0.1253
 5958TIP3    H139365   4.567   4.519   0.333  0.0763 -0.3306 -0.2283
 5958TIP3    H239366   4.420   4.521   0.297 -0.0090 -0.8172  0.0845
 5959TIP3   OH239367   4.906   6.793   5.986  0.2184 -0.2243  0.2350
 5959TIP3    H139368   4.856   6.793   5.905  1.4045 -2.3162 -0.5627
 5959TIP3    H239369   4.934   6.884   5.997 -1.2307  0.3930 -0.8433
 5960TIP3   OH239370   6.393   4.821  12.075  0.1260 -0.4020  0.3329
 5960TIP3    H139371   6.362   4.895  12.022  2.1388  0.9062  0.8928
 5960TIP3    H239372   6.388   4.746  12.016 -1.2842  0.2938 -0.4771
 5961TIP3   OH239373   3.816   4.120  13.706  0.0176  0.0756 -0.7274
 5961TIP3    H139374   3.835   4.109  13.613 -0.8941  0.7674 -1.0203
 5961TIP3    H239375   3.804   4.031  13.739  0.7329 -0.1981 -1.1791
 5962TIP3   OH239376   4.626   4.867  11.911  0.8514  0.6163 -0.1228
 5962TIP3    H139377   4.621   4.817  11.993  0.4257  0.2783 -0.3530
 5962TIP3    H239378   4.619   4.801  11.842 -1.3050  1.1073 -0.4537
 5963TIP3   OH239379   4.432   4.609   3.325 -0.0039 -0.1681  0.0654
 5963TIP3    H139380   4.501   4.618   3.391 -0.6931 -1.1444  0.9554
 5963TIP3    H239381   4.357   4.655   3.363 -0.6857 -1.5230  0.4131
 5964TIP3   OH239382   2.098   4.845  17.153  0.3371  0.2804  0.1187
 5964TIP3    H139383   2.011   4.809  17.166 -0.6036  2.0926 -0.7980
 5964TIP3    H239384   2.128   4.868  17.241 -1.0723  1.6894  0.2674
 5965TIP3   OH239385   6.270   0.799   5.867 -0.2659  0.1942  0.0487
 5965TIP3    H139386   6.346   0.837   5.821 -0.3478  1.0496  0.5865
 5965TIP3    H239387   6.301   0.786   5.956 -0.9074  1.0751  0.4151
 5966TIP3   OH239388   5.614   1.002   2.818 -0.2725 -0.5337 -0.4502
 5966TIP3    H139389   5.699   1.043   2.800 -0.0887 -1.1326 -1.0101
 5966TIP3    H239390   5.628   0.951   2.897 -0.2707 -0.1869 -0.2237
 5967TIP3   OH239391   0.723   4.202  11.473 -0.1003  0.0610  0.1964
 5967TIP3    H139392   0.730   4.114  11.511  0.8824  0.7758  1.8206
 5967TIP3    H239393   0.644   4.199  11.419  0.1356 -1.9233 -0.1259
 5968TIP3   OH239394   4.543   0.456  16.397  0.2371  0.1387 -0.3700
 5968TIP3    H139395   4.604   0.470  16.325 -0.1002 -0.7396 -0.8396
 5968TIP3    H239396   4.532   0.361  16.401 -2.9894  0.3102 -1.9317
 5969TIP3   OH239397   5.152   4.360   2.780  0.0579  0.4253 -0.2495
 5969TIP3    H139398   5.130   4.391   2.693 -0.6579 -0.5912 -0.4453
 5969TIP3    H239399   5.069   4.330   2.817  0.4001  0.5657  0.6715
 5970TIP3   OH239400   2.375   2.851   3.823  0.2352  0.6276  0.1108
 5970TIP3    H139401   2.354   2.775   3.877 -0.0839  0.3437 -0.3996
 5970TIP3    H239402   2.439   2.900   3.874  0.0546  0.2864  0.6720
 5971TIP3   OH239403   5.706   5.039   4.564  0.4037  0.4618  0.2299
 5971TIP3    H139404   5.681   4.974   4.497  1.2806  0.2977  0.0482
 5971TIP3    H239405   5.743   5.111   4.514 -0.3437  1.0106  0.4531
 5972TIP3   OH239406   5.926   3.926   6.094  0.2827  0.4115 -0.2403
 5972TIP3    H139407   5.853   3.966   6.143 -0.8193  0.3302 -1.7622
 5972TIP3    H239408   5.929   3.836   6.127 -0.2103  0.4520 -0.0628
 5973TIP3   OH239409   2.491   0.510   2.486  0.1384 -0.3088 -0.1016
 5973TIP3    H139410   2.473   0.424   2.525 -0.1974  0.8573  2.5385
 5973TIP3    H239411   2.471   0.499   2.393  0.3055 -3.1165  0.1080
 5974TIP3   OH239412   2.037   2.172   3.424 -0.1716 -0.0846  0.0364
 5974TIP3    H139413   2.022   2.257   3.382  2.8632 -0.1361 -1.4234
 5974TIP3    H239414   1.976   2.112   3.380  0.5220  0.5638 -1.9045
 5975TIP3   OH239415   6.662   5.138   2.450 -0.0648 -0.7992  0.4711
 5975TIP3    H139416   6.738   5.129   2.508  1.1331 -3.1131 -1.3027
 5975TIP3    H239417   6.589   5.102   2.501  0.7883 -2.0062  0.8852
 5976TIP3   OH239418   5.342   1.629   6.291  0.3303 -0.6449 -0.5614
 5976TIP3    H139419   5.366   1.548   6.337 -1.7127 -1.0508 -0.1277
 5976TIP3    H239420   5.303   1.598   6.209  0.6866 -0.0400 -0.9649
 5977TIP3   OH239421   2.885   3.244   5.522 -0.1231 -0.0851 -0.3975
 5977TIP3    H139422   2.826   3.310   5.484  1.4178  0.1229 -2.5854
 5977TIP3    H239423   2.855   3.161   5.484  0.6668 -0.0442 -1.1196
 5978TIP3   OH239424   2.953   0.840  13.024  0.7520  0.5135  0.0987
 5978TIP3    H139425   2.913   0.754  13.013 -1.0295  0.6287  4.1101
 5978TIP3    H239426   3.043   0.822  13.049  0.1872 -0.2665  1.6606
 5979TIP3   OH239427   5.947   2.759   0.350  0.2456  0.4795  0.1132
 5979TIP3    H139428   5.874   2.786   0.405 -0.6192  0.5273 -1.0190
 5979TIP3    H239429   5.949   2.664   0.357 -1.8286  0.1820 -2.0775
 5980TIP3   OH239430   4.474   4.529  13.631 -0.7990  0.6015 -0.0859
 5980TIP3    H139431   4.472   4.566  13.543  0.3760 -0.2167 -0.4928
 5980TIP3    H239432   4.552   4.567  13.671  0.0765 -0.9039 -0.2962
 5981TIP3   OH239433   4.945   5.626   3.684 -0.1078  0.6901 -0.3090
 5981TIP3    H139434   5.034   5.640   3.715 -0.0640  1.1023 -0.6238
 5981TIP3    H239435   4.893   5.615   3.764  0.0525  1.4558 -0.0924
 5982TIP3   OH239436   1.291   0.514   2.112 -0.3343  0.1480 -0.8422
 5982TIP3    H139437   1.297   0.452   2.039 -0.2676  0.9612 -1.5493
 5982TIP3    H239438   1.320   0.465   2.188 -0.1268 -0.6443 -1.4212
 5983TIP3   OH239439   0.127   4.768  16.847  0.4289  0.4993  0.0939
 5983TIP3    H139440   0.089   4.808  16.769 -0.2850  4.0747  2.0435
 5983TIP3    H239441   0.219   4.795  16.845  0.7694 -0.6067 -0.1458
 5984TIP3   OH239442   6.373   0.804   0.085  0.4076 -0.2531  0.1099
 5984TIP3    H139443   6.306   0.808   0.152 -1.3665 -0.5653 -1.5624
 5984TIP3    H239444   6.439   0.867   0.113 -1.2892  1.1840  1.0407
 5985TIP3   OH239445   0.474   0.125   0.441  0.6001  0.3545 -0.4608
 5985TIP3    H139446   0.402   0.168   0.394  0.9543  0.9925 -0.4357
 5985TIP3    H239447   0.552   0.147   0.389  0.8624  0.2165 -0.1249
 5986TIP3   OH239448   3.342   5.531  15.237 -0.4083  0.2147 -0.8099
 5986TIP3    H139449   3.344   5.489  15.151 -0.7098  0.3407 -0.8800
 5986TIP3    H239450   3.281   5.477  15.287  2.0441 -1.7512  0.3233
 5987TIP3   OH239451   1.513   2.133  16.111 -0.2359  0.4740 -0.1076
 5987TIP3    H139452   1.423   2.164  16.123 -0.0218  1.5003 -1.0531
 5987TIP3    H239453   1.544   2.179  16.033  0.9291 -0.2930 -0.1139
 5988TIP3   OH239454   1.395   1.226  14.102 -0.2062 -0.1617 -1.1871
 5988TIP3    H139455   1.450   1.292  14.146  0.9024 -0.3611 -2.2426
 5988TIP3    H239456   1.407   1.243  14.009 -0.9240 -1.0575 -1.4556
 5989TIP3   OH239457   4.635   6.569   3.874 -0.0557  0.1626  0.3454
 5989TIP3    H139458   4.658   6.655   3.909  1.1211  0.2108 -0.4815
 5989TIP3    H239459   4.711   6.514   3.894  0.0292 -0.1779 -0.8468
 5990TIP3   OH239460   0.958   5.213   3.933  0.0316  0.0525  0.3462
 5990TIP3    H139461   0.915   5.268   3.998  0.5239  0.0250  0.7066
 5990TIP3    H239462   1.051   5.231   3.944  0.0380  1.7336 -1.8817
 5991TIP3   OH239463   6.722   1.678   1.608 -0.1403 -0.2391 -0.0106
 5991TIP3    H139464   6.748   1.759   1.652  0.3936 -0.1829 -0.4176
 5991TIP3    H239465   6.766   1.682   1.523 -0.5526 -0.7008 -0.2494
 5992TIP3   OH239466   0.890   1.460  12.053  0.0720 -0.3799 -0.0423
 5992TIP3    H139467   0.971   1.484  12.007  0.5447  0.3352  1.0949
 5992TIP3    H239468   0.839   1.541  12.055  0.3918 -0.1795  1.3027
 5993TIP3   OH239469   3.852   4.913  14.669  0.3431 -1.0887 -0.1725
 5993TIP3    H139470   3.899   4.910  14.753 -0.0640  0.7806  0.1654
 5993TIP3    H239471   3.920   4.921  14.603  0.6476 -2.1806 -0.0145
 5994TIP3   OH239472   0.453   0.667   2.940 -0.1943  0.1712  0.4607
 5994TIP3    H139473   0.440   0.711   3.024 -0.4259 -0.2721  0.6596
 5994TIP3    H239474   0.542   0.632   2.945  0.2061  1.1059  0.0706
 5995TIP3   OH239475   5.492   0.935   1.654  0.3748 -0.3316 -0.1327
 5995TIP3    H139476   5.549   0.900   1.722  0.8641 -1.1145 -0.9218
 5995TIP3    H239477   5.475   1.026   1.681  1.4616 -0.2853  0.4571
 5996TIP3   OH239478   2.171   5.814   5.078  0.0685 -0.0254 -0.1101
 5996TIP3    H139479   2.084   5.775   5.070 -0.1109 -0.1582  1.9479
 5996TIP3    H239480   2.231   5.740   5.076  0.0256 -0.0626  0.0189
 5997TIP3   OH239481   4.614   0.865   0.839 -0.0485  0.0695  0.4189
 5997TIP3    H139482   4.651   0.866   0.928  0.8713 -0.7175  0.0674
 5997TIP3    H239483   4.522   0.846   0.852  0.1935 -0.6547  1.1817
 5998TIP3   OH239484   4.918   0.120   4.240  0.4399 -0.3620 -0.2093
 5998TIP3    H139485   5.003   0.110   4.283  0.5859 -0.2639 -0.4776
 5998TIP3    H239486   4.859   0.148   4.310  0.6676 -0.2464 -0.0637
 5999TIP3   OH239487   5.790   2.132  10.873 -0.1077 -0.0859  0.1304
 5999TIP3    H139488   5.829   2.090  10.950  0.0064 -0.5977 -0.2021
 5999TIP3    H239489   5.864   2.157  10.819 -0.2192 -0.8882 -0.4139
 6000TIP3   OH239490   3.393   1.332  14.428 -0.1543 -0.2459  0.0931
 6000TIP3    H139491   3.313   1.287  14.453  0.0281 -0.6429 -0.0351
 6000TIP3    H239492   3.456   1.310  14.498  0.5821 -1.9610 -1.0552
 6001TIP3   OH239493   6.422   3.392  11.702  0.4021  0.6640 -0.7222
 6001TIP3    H139494   6.348   3.389  11.762 -0.0328  2.4388 -1.0988
 6001TIP3    H239495   6.439   3.301  11.679 -1.0363  0.1559  0.1313
 6002TIP3   OH239496   0.541   4.028   5.102 -0.1377  0.4746 -0.2750
 6002TIP3    H139497   0.466   4.044   5.044 -0.7917 -1.5350 -0.0722
 6002TIP3    H239498   0.615   4.014   5.042 -0.1606  1.2781 -0.5079
 6003TIP3   OH239499   1.627   4.298   1.411  0.0158  0.3220 -0.1138
 6003TIP3    H139500   1.593   4.213   1.440  0.5920  0.7652  1.9824
 6003TIP3    H239501   1.712   4.278   1.374 -0.9129 -0.3129 -2.0424
 6004TIP3   OH239502   4.448   3.570   0.058 -0.6609  0.3394  0.3623
 6004TIP3    H139503   4.374   3.510   0.062  0.3006 -0.9045  0.1151
 6004TIP3    H239504   4.451   3.612   0.144  0.8849 -2.7886  2.0064
 6005TIP3   OH239505   0.254   4.719  17.135  0.1955 -0.2145  0.2488
 6005TIP3    H139506   0.237   4.671  17.054  0.3852 -1.5097  0.9449
 6005TIP3    H239507   0.245   4.653  17.204 -1.3037  1.1330  1.4177
 6006TIP3   OH239508   4.355   5.402   5.412 -0.4334  0.3026  0.1441
 6006TIP3    H139509   4.283   5.427   5.355 -0.7976 -0.1100  0.4256
 6006TIP3    H239510   4.317   5.340   5.475  0.0617  0.4132  0.5618
 6007TIP3   OH239511   5.734   6.002  15.364  0.6052 -0.3157 -0.4143
 6007TIP3    H139512   5.790   6.032  15.292 -0.5068 -1.1878 -1.6877
 6007TIP3    H239513   5.697   6.083  15.400 -0.2846  0.0638 -2.0765
 6008TIP3   OH239514   1.613   3.176  12.718  0.0326  0.1295 -0.1695
 6008TIP3    H139515   1.605   3.134  12.632 -0.0871  2.2175 -1.2503
 6008TIP3    H239516   1.679   3.244  12.705  0.8609 -0.2508  1.7402
 6009TIP3   OH239517   0.430   1.252   3.128 -0.0374  0.2655  0.6715
 6009TIP3    H139518   0.416   1.289   3.041  0.5678  0.3187  0.5933
 6009TIP3    H239519   0.425   1.158   3.116  2.1649  0.1673  0.1687
 6010TIP3   OH239520   6.250   1.325   2.589 -0.2300 -0.7801  0.2335
 6010TIP3    H139521   6.336   1.363   2.573 -0.2313  0.4019  2.5697
 6010TIP3    H239522   6.189   1.389   2.552 -0.1369 -0.4472  0.6452
 6011TIP3   OH239523   4.387   0.530  14.542 -0.6006  0.1791  0.1482
 6011TIP3    H139524   4.447   0.486  14.603 -0.0979 -1.1166 -1.2229
 6011TIP3    H239525   4.393   0.479  14.461 -4.0458 -0.4434  0.1124
 6012TIP3   OH239526   6.750   6.609  14.612 -0.2551 -0.2580  0.2080
 6012TIP3    H139527   6.781   6.679  14.554 -0.4109  0.2844  0.7763
 6012TIP3    H239528   6.795   6.625  14.695 -3.7604  2.0616  1.9150
 6013TIP3   OH239529   4.463   3.197  15.235 -0.2688  0.2885 -0.0508
 6013TIP3    H139530   4.437   3.106  15.251 -1.7481  0.7275  0.1854
 6013TIP3    H239531   4.515   3.193  15.155  0.0078 -0.8072  0.1614
 6014TIP3   OH239532   2.358   2.178  14.490 -0.7396  0.5426 -0.3329
 6014TIP3    H139533   2.312   2.106  14.534 -1.5244 -0.0213 -1.9896
 6014TIP3    H239534   2.387   2.235  14.562 -3.1515  0.3952  0.8681
 6015TIP3   OH239535   2.241   2.444   3.712  0.1119  0.2558  0.0637
 6015TIP3    H139536   2.150   2.467   3.695 -0.0579 -1.7372 -2.1819
 6015TIP3    H239537   2.292   2.502   3.656  0.1555  0.6126  0.4734
 6016TIP3   OH239538   6.113   1.675  15.477 -0.3849 -0.5451  0.5504
 6016TIP3    H139539   6.160   1.719  15.406 -1.3629 -0.8897 -0.3476
 6016TIP3    H239540   6.078   1.746  15.531 -2.2514 -0.1143 -1.0758
 6017TIP3   OH239541   2.047   2.527  16.594  0.0309  0.4285  0.3571
 6017TIP3    H139542   2.118   2.468  16.619  0.2481  0.0813 -0.9860
 6017TIP3    H239543   1.981   2.471  16.554  0.1491  1.0523 -0.7580
 6018TIP3   OH239544   0.761   1.239  12.862  0.3144 -0.5212  0.0487
 6018TIP3    H139545   0.765   1.334  12.847  1.6433 -0.4735  0.5609
 6018TIP3    H239546   0.766   1.201  12.775 -0.7893 -0.1209 -0.2040
 6019TIP3   OH239547   1.372   2.496  16.059 -0.4600 -0.5946  0.2531
 6019TIP3    H139548   1.282   2.464  16.051 -0.9670  0.8661 -0.3685
 6019TIP3    H239549   1.391   2.536  15.974  0.4175 -0.0390  0.6935
 6020TIP3   OH239550   1.039   5.740  13.325 -0.2179  0.0864  0.4897
 6020TIP3    H139551   1.084   5.778  13.399 -1.1871  0.7776  0.7404
 6020TIP3    H239552   1.005   5.815  13.276  0.4925 -0.3517 -0.7126
 6021TIP3   OH239553   3.376   3.932  11.963  0.2403  0.2092 -0.2677
 6021TIP3    H139554   3.362   4.027  11.966 -1.6669 -0.0650  0.9758
 6021TIP3    H239555   3.295   3.896  11.928  1.0475 -0.9641 -0.9929
 6022TIP3   OH239556   6.613   5.011   1.481  0.0405 -0.3652 -1.0542
 6022TIP3    H139557   6.673   5.034   1.552  1.0602  0.2859 -2.0885
 6022TIP3    H239558   6.590   4.919   1.497  1.1576 -0.5638 -0.5171
 6023TIP3   OH239559   1.305   4.762  16.741 -0.6559  0.0308 -0.0024
 6023TIP3    H139560   1.263   4.769  16.656  1.7504  1.1610 -1.1824
 6023TIP3    H239561   1.311   4.667  16.757 -0.3605 -0.2155 -1.4972
 6024TIP3   OH239562   2.876   3.851  10.850 -0.1080  0.4050  0.0469
 6024TIP3    H139563   2.870   3.911  10.924  0.8822  0.5351  0.0385
 6024TIP3    H239564   2.847   3.766  10.884  2.8146 -0.1837  1.3818
 6025TIP3   OH239565   6.176   4.694  12.452 -0.4324 -0.3962 -0.7560
 6025TIP3    H139566   6.130   4.712  12.370 -0.3655  0.0071 -0.7076
 6025TIP3    H239567   6.266   4.724  12.437  0.0390 -1.8750 -1.1154
 6026TIP3   OH239568   4.540   3.014  12.770 -0.2908 -0.0617  0.3180
 6026TIP3    H139569   4.555   3.108  12.779  0.0705 -0.2212  1.6382
 6026TIP3    H239570   4.521   3.001  12.677  2.2108  0.9439 -0.3957
 6027TIP3   OH239571   3.053   2.391  13.811  0.6291  0.0624 -0.3126
 6027TIP3    H139572   3.060   2.308  13.764  0.9581 -0.6346  0.9171
 6027TIP3    H239573   3.133   2.439  13.787  0.2395  0.2149 -1.3518
 6028TIP3   OH239574   5.561   2.139  11.055 -0.0676 -0.1217  0.1531
 6028TIP3    H139575   5.560   2.081  10.980 -1.4326 -1.4220  1.1264
 6028TIP3    H239576   5.653   2.161  11.067  0.1249  0.7375 -2.3076
 6029TIP3   OH239577   1.596   4.501  13.695 -0.3660  0.1467 -0.2388
 6029TIP3    H139578   1.501   4.494  13.688 -0.5480 -0.4269  2.0190
 6029TIP3    H239579   1.619   4.442  13.767  1.5426  1.2815  0.1449
 6030TIP3   OH239580   0.225   6.709  16.808 -0.1357  0.0234  0.1826
 6030TIP3    H139581   0.241   6.797  16.843  3.6317 -0.4981  0.1765
 6030TIP3    H239582   0.234   6.719  16.714 -0.0684 -0.3301  0.1531
 6031TIP3   OH239583   0.778   2.122  14.972  0.0050 -0.5027 -0.0220
 6031TIP3    H139584   0.854   2.178  14.991  0.9260 -2.2133  1.7406
 6031TIP3    H239585   0.815   2.034  14.964 -1.5914 -1.1043 -1.0610
 6032TIP3   OH239586   3.365   3.438   4.092 -0.7847  0.2402 -0.0444
 6032TIP3    H139587   3.403   3.463   4.007  0.8597 -0.1143  0.5476
 6032TIP3    H239588   3.364   3.519   4.142 -1.3181  0.3532 -0.2290
 6033TIP3   OH239589   2.142   5.653  11.303  0.1850 -0.3579  0.1307
 6033TIP3    H139590   2.121   5.695  11.220  2.0326  1.0868  0.3419
 6033TIP3    H239591   2.058   5.651  11.350 -0.0281  3.2539  0.1392
 6034TIP3   OH239592   0.649   4.450  16.746 -0.1749 -0.3192  0.0725
 6034TIP3    H139593   0.687   4.396  16.676  2.6287  2.5807 -0.9166
 6034TIP3    H239594   0.709   4.438  16.820  0.9832  1.8972 -0.4311
 6035TIP3   OH239595   0.907   4.814  11.110  0.1323  0.2602  0.6853
 6035TIP3    H139596   0.991   4.793  11.069 -0.2766  0.9060 -0.5386
 6035TIP3    H239597   0.845   4.816  11.037 -1.2463 -1.5790  1.7346
 6036TIP3   OH239598   2.943   3.341   2.595  0.4346  0.5971 -0.3884
 6036TIP3    H139599   2.983   3.337   2.508  1.2030 -1.2632 -0.0119
 6036TIP3    H239600   3.018   3.334   2.655 -0.2220 -0.1025  0.3728
 6037TIP3   OH239601   0.682   4.157  10.464 -0.1871  0.1612  0.2927
 6037TIP3    H139602   0.775   4.159  10.443 -0.1547  0.4088  0.4510
 6037TIP3    H239603   0.649   4.241  10.434 -0.1696  0.4576  1.0786
 6038TIP3   OH239604   0.004   4.710   0.896 -0.1143 -0.2036  0.0511
 6038TIP3    H139605   0.083   4.717   0.841  0.1119  0.0877  0.4081
 6038TIP3    H239606  -0.046   4.789   0.877  0.5295  0.4924  1.1244
 6039TIP3   OH239607   6.769   1.911   1.934  0.3371 -1.1169 -0.3157
 6039TIP3    H139608   6.755   1.935   1.843  2.4390 -2.6579 -1.1176
 6039TIP3    H239609   6.702   1.845   1.952  1.0773 -2.1624 -1.3434
 6040TIP3   OH239610   6.300   2.635  11.997 -0.4281  0.2599 -0.4308
 6040TIP3    H139611   6.375   2.590  12.035 -1.8701 -0.6594  1.4978
 6040TIP3    H239612   6.338   2.692  11.929  1.8926 -0.7017 -0.0353
 6041TIP3   OH239613   2.733   1.655   4.544 -0.4907  0.6859 -0.0409
 6041TIP3    H139614   2.723   1.732   4.600 -1.3730  0.1841  0.5348
 6041TIP3    H239615   2.662   1.597   4.572  1.2008 -1.0952  0.8174
 6042TIP3   OH239616   4.974   5.523   2.930  0.2317  0.1643 -0.0707
 6042TIP3    H139617   4.911   5.453   2.913  0.2669  0.0169  0.3933
 6042TIP3    H239618   4.924   5.603   2.916  0.6332  0.0912 -2.2974
 6043TIP3   OH239619   3.268   0.345  16.673  0.4614  0.2123 -0.2627
 6043TIP3    H139620   3.172   0.353  16.675  0.4364 -0.0123 -0.5524
 6043TIP3    H239621   3.288   0.323  16.583  0.7993  0.3760 -0.2282
 6044TIP3   OH239622   5.139   5.879  15.756 -0.5568  0.7838 -0.3342
 6044TIP3    H139623   5.105   5.938  15.689 -1.5583  0.7089  0.1020
 6044TIP3    H239624   5.100   5.794  15.735 -0.6138  0.6881  0.1441
 6045TIP3   OH239625   1.774   2.661   2.973  0.1299 -0.4649  0.2503
 6045TIP3    H139626   1.729   2.701   2.898  0.5949 -0.9805 -0.3058
 6045TIP3    H239627   1.825   2.590   2.936 -0.1386 -1.1435  1.1493
 6046TIP3   OH239628   3.699   5.018   0.239 -0.1300 -0.1495 -0.3970
 6046TIP3    H139629   3.685   5.037   0.146  0.4385  1.0404 -0.2648
 6046TIP3    H239630   3.642   5.080   0.285  0.3022 -0.0885  0.0600
 6047TIP3   OH239631   2.770   0.913  15.584 -0.0126  0.1019  0.0282
 6047TIP3    H139632   2.723   0.942  15.506  1.0009  0.8985 -0.3072
 6047TIP3    H239633   2.757   0.984  15.647  1.2328  0.6142 -0.2791
 6048TIP3   OH239634   4.470   5.776   4.242  0.0768 -0.0973  0.0882
 6048TIP3    H139635   4.479   5.681   4.246 -0.6383 -0.1444  1.0700
 6048TIP3    H239636   4.397   5.795   4.301  0.1911  1.0585 -0.1242
 6049TIP3   OH239637   3.891   4.419   5.864  0.0608  0.3410 -0.3694
 6049TIP3    H139638   3.965   4.377   5.908  1.1226  2.5117  0.0480
 6049TIP3    H239639   3.826   4.430   5.933  0.8098  1.6480  0.1663
 6050TIP3   OH239640   1.753   0.036  17.003  0.1719  0.1607  0.2218
 6050TIP3    H139641   1.728   0.095  16.932 -2.0052 -0.4951  0.3457
 6050TIP3    H239642   1.716  -0.049  16.978 -0.4572 -0.1443  1.9756
 6051TIP3   OH239643   2.988   4.700  14.821  0.2497 -0.2121 -0.2035
 6051TIP3    H139644   3.060   4.674  14.763  1.0289 -2.4067  1.6266
 6051TIP3    H239645   3.016   4.672  14.908 -1.7302  1.2229  0.9647
 6052TIP3   OH239646   2.673   3.630  12.409  0.0484 -0.2538 -0.3375
 6052TIP3    H139647   2.693   3.616  12.502  0.3440  0.4835 -0.2848
 6052TIP3    H239648   2.703   3.550  12.366  0.3147 -0.4196  0.1475
 6053TIP3   OH239649   4.928   4.042   5.842 -0.2995 -0.1277  0.0354
 6053TIP3    H139650   4.951   4.135   5.843  3.0646 -0.8052 -1.0510
 6053TIP3    H239651   4.901   4.022   5.931  1.3583  1.4205  0.9404
 6054TIP3   OH239652   4.160   3.269   2.885 -0.3837 -0.7924  0.2267
 6054TIP3    H139653   4.121   3.196   2.933 -2.1457 -0.3089 -0.3967
 6054TIP3    H239654   4.182   3.233   2.799 -0.9498 -0.6824  0.0322
 6055TIP3   OH239655   1.352   3.725  14.393 -0.1185 -0.6399 -0.6378
 6055TIP3    H139656   1.404   3.799  14.422 -0.7000 -0.2917 -0.4663
 6055TIP3    H239657   1.320   3.684  14.473 -1.1694 -0.0768 -0.7532
 6056TIP3   OH239658   0.606   1.664   1.130 -0.5856  0.1272  0.4024
 6056TIP3    H139659   0.658   1.719   1.071 -0.4748 -0.2428  0.1526
 6056TIP3    H239660   0.541   1.724   1.167 -0.5756  0.3904  0.0037
 6057TIP3   OH239661   2.044   3.117   0.381 -0.1943  0.8131 -1.0589
 6057TIP3    H139662   1.950   3.129   0.372 -0.2899 -0.1348 -1.3672
 6057TIP3    H239663   2.082   3.192   0.337 -0.8018  1.1525 -1.0154
 6058TIP3   OH239664   6.725   1.927   3.590 -0.7319 -0.3286  0.4675
 6058TIP3    H139665   6.686   1.916   3.504 -1.7488  1.6665  0.6006
 6058TIP3    H239666   6.748   1.839   3.619 -0.1047 -1.0143 -1.9323
 6059TIP3   OH239667   6.288   3.444   1.066  0.6502  1.0452 -0.3382
 6059TIP3    H139668   6.375   3.440   1.026  0.3817 -2.4462 -0.9177
 6059TIP3    H239669   6.301   3.494   1.146  3.7545 -0.9705  0.6383
 6060TIP3   OH239670   3.536   2.694   5.373  0.2717  0.0213 -0.3272
 6060TIP3    H139671   3.630   2.676   5.382  0.6867  2.2086  0.3581
 6060TIP3    H239672   3.531   2.789   5.364 -1.7916 -0.1755 -1.9435
 6061TIP3   OH239673   0.476   2.109  14.892 -0.8721 -0.6490  0.3841
 6061TIP3    H139674   0.434   2.040  14.942  0.4355  0.7593  3.7570
 6061TIP3    H239675   0.570   2.100  14.912 -0.2010 -0.1445 -2.1452
 6062TIP3   OH239676   0.854   2.074  11.962 -0.5966  0.2077  0.3297
 6062TIP3    H139677   0.803   2.155  11.954 -2.0800 -0.5095  1.7890
 6062TIP3    H239678   0.908   2.088  12.040 -0.9184 -0.2313  0.6349
 6063TIP3   OH239679   2.457   1.774   2.895  0.5724  0.3921  0.4696
 6063TIP3    H139680   2.522   1.841   2.875  0.1061  1.4228  2.2168
 6063TIP3    H239681   2.460   1.765   2.990 -0.6873 -0.7276  0.4337
 6064TIP3   OH239682   0.022   6.206   5.805 -0.4314  0.9965  0.1395
 6064TIP3    H139683  -0.047   6.190   5.740  0.5486  0.8852 -0.9036
 6064TIP3    H239684   0.046   6.120   5.838  1.7198  0.5809 -2.1997
 6065TIP3   OH239685   0.417   2.200   1.116 -0.1244 -0.0092  0.1314
 6065TIP3    H139686   0.419   2.208   1.021  0.7541 -1.0772  0.0389
 6065TIP3    H239687   0.434   2.289   1.148  1.6247  0.0053 -0.7290
 6066TIP3   OH239688   3.832   1.255   4.665  0.1173  0.2032  0.6984
 6066TIP3    H139689   3.754   1.237   4.613 -0.2784 -0.0584  1.3610
 6066TIP3    H239690   3.799   1.272   4.754  0.6787  1.7595  0.6492
 6067TIP3   OH239691   1.435   4.781   4.111  0.3598 -0.7079  0.5097
 6067TIP3    H139692   1.438   4.688   4.132  2.2227 -0.9997 -0.8048
 6067TIP3    H239693   1.396   4.785   4.023  0.1666 -0.2354  0.6144
 6068TIP3   OH239694   6.688   6.799   5.946  0.1599  0.2948  0.7034
 6068TIP3    H139695   6.761   6.862   5.947  0.6407 -0.1234 -1.5189
 6068TIP3    H239696   6.614   6.848   5.981  0.5728  2.0916 -0.7336
 6069TIP3   OH239697   3.877   0.368  16.681  0.2130  0.3914 -0.0185
 6069TIP3    H139698   3.799   0.362  16.737 -0.3597 -0.9863 -0.9187
 6069TIP3    H239699   3.843   0.381  16.593  0.8447 -2.2935 -0.7518
 6070TIP3   OH239700   6.050   4.880  16.170  0.2490 -0.4347  0.3940
 6070TIP3    H139701   5.969   4.872  16.222  0.7154 -2.4343  0.9008
 6070TIP3    H239702   6.111   4.819  16.211  1.6446  0.1575 -0.7168
 6071TIP3   OH239703   5.778   3.804   3.985 -0.0343 -0.7629  0.3406
 6071TIP3    H139704   5.734   3.888   3.973  0.1184 -0.7615 -0.2624
 6071TIP3    H239705   5.848   3.822   4.048  1.2658  0.0464 -1.2738
 6072TIP3   OH239706   5.217   3.070  13.424 -0.4286 -0.4733  0.0644
 6072TIP3    H139707   5.240   3.146  13.477  1.5333 -0.6258 -0.5152
 6072TIP3    H239708   5.296   3.016  13.423 -1.5419 -2.1740 -0.1592
 6073TIP3   OH239709   0.583   0.635  16.346  0.5121 -0.9133 -0.3529
 6073TIP3    H139710   0.597   0.657  16.438 -0.6892  0.6446 -0.4888
 6073TIP3    H239711   0.625   0.707  16.298 -2.0406  0.3531 -0.8678
 6074TIP3   OH239712   4.959   6.087  13.684  0.0392 -0.2717  0.7251
 6074TIP3    H139713   5.006   6.065  13.765 -0.9410 -2.7948  0.7012
 6074TIP3    H239714   5.019   6.146  13.637  1.9088 -1.0798  1.9662
 6075TIP3   OH239715   5.126   1.566  11.827  0.0778 -0.1495  0.0297
 6075TIP3    H139716   5.221   1.576  11.830  0.4058 -2.2746 -1.1487
 6075TIP3    H239717   5.092   1.653  11.846  2.2581  0.7258  0.1902
 6076TIP3   OH239718   2.328   2.344   1.235 -0.4995 -0.4171  0.0919
 6076TIP3    H139719   2.303   2.329   1.144  2.5236 -1.4271 -0.6794
 6076TIP3    H239720   2.384   2.421   1.232 -0.2084 -0.5855  1.0647
 6077TIP3   OH239721   4.589   3.204   3.960  0.3030 -0.5144 -0.2290
 6077TIP3    H139722   4.504   3.226   3.922  0.5485  1.3551  0.2210
 6077TIP3    H239723   4.568   3.172   4.048  0.0939  1.4222  0.4813
 6078TIP3   OH239724   6.238   1.033  12.008  0.3890  0.1788  0.0897
 6078TIP3    H139725   6.175   1.013  11.938  2.4392 -2.0397 -1.2882
 6078TIP3    H239726   6.274   1.118  11.983 -0.2517  0.2921 -0.4948
 6079TIP3   OH239727   1.783   3.952   4.981  0.3641 -0.3030  0.4500
 6079TIP3    H139728   1.822   3.872   4.945  0.4352  0.3715 -1.0515
 6079TIP3    H239729   1.856   3.998   5.022  0.4553 -0.6882  0.7237
 6080TIP3   OH239730   1.136   6.508   0.597  0.1548 -0.6736 -0.4209
 6080TIP3    H139731   1.146   6.420   0.633  0.8352  0.1919  1.6518
 6080TIP3    H239732   1.212   6.520   0.540  0.1878 -1.3290 -0.5242
 6081TIP3   OH239733   3.648   5.226   3.636 -0.1418  0.0303  0.1476
 6081TIP3    H139734   3.625   5.317   3.616 -0.1273 -0.1382 -0.6657
 6081TIP3    H239735   3.566   5.178   3.622  0.0722 -0.2070 -0.3167
 6082TIP3   OH239736   5.803   2.287   0.499  0.4425 -0.4678  0.1877
 6082TIP3    H139737   5.792   2.219   0.565  1.0018  0.3770  1.1900
 6082TIP3    H239738   5.897   2.292   0.484  0.7954  2.0642  2.3901
 6083TIP3   OH239739   1.035   0.486   2.284  0.1744 -0.3708  0.6203
 6083TIP3    H139740   1.034   0.479   2.189  1.7682 -0.9701  0.6166
 6083TIP3    H239741   1.120   0.450   2.310 -0.1639 -0.0752  2.2606
 6084TIP3   OH239742   0.784   4.013   2.349  0.3014 -0.2258  0.4113
 6084TIP3    H139743   0.872   3.990   2.380  0.3095 -0.3013  0.3302
 6084TIP3    H239744   0.790   4.106   2.328  0.5429 -0.3836 -0.2344
 6085TIP3   OH239745   4.271   3.457  14.287 -0.3631  0.3746  0.0861
 6085TIP3    H139746   4.265   3.414  14.372  0.4247 -0.6841 -0.3786
 6085TIP3    H239747   4.350   3.511  14.293 -1.1664  1.5558  0.5495
 6086TIP3   OH239748   3.267   4.339  12.925  0.0634  0.2434  0.5003
 6086TIP3    H139749   3.250   4.358  13.017 -0.4525  0.3197  0.3936
 6086TIP3    H239750   3.361   4.354  12.914 -0.5398  5.1313 -0.1027
 6087TIP3   OH239751   0.669   0.595   6.084 -0.4150  0.3038 -0.2609
 6087TIP3    H139752   0.662   0.689   6.099  1.2531  0.3395  0.5140
 6087TIP3    H239753   0.762   0.580   6.069 -0.5104 -1.3391  0.5647
 6088TIP3   OH239754   2.690   4.932   4.838 -0.1704 -0.3990 -0.1701
 6088TIP3    H139755   2.712   5.017   4.876 -0.7717  0.4333 -1.6012
 6088TIP3    H239756   2.737   4.930   4.755 -0.8424 -1.1074 -0.5436
 6089TIP3   OH239757   2.415   2.932   3.553  0.3390  0.2723  0.3275
 6089TIP3    H139758   2.501   2.902   3.582  0.1084  1.0986  2.0021
 6089TIP3    H239759   2.355   2.902   3.621 -0.6961 -0.1500 -0.7313
 6090TIP3   OH239760   3.630   6.649   1.588 -0.9678 -0.3440 -0.1586
 6090TIP3    H139761   3.722   6.657   1.612 -1.2507  1.7836  0.4618
 6090TIP3    H239762   3.596   6.739   1.593 -2.7834 -0.8804 -1.5653
 6091TIP3   OH239763   5.656   5.388  16.803  0.1465  0.3322 -0.8423
 6091TIP3    H139764   5.668   5.376  16.897 -1.0669  2.6449 -0.3010
 6091TIP3    H239765   5.579   5.335  16.782 -0.5350  1.0154 -0.1595
 6092TIP3   OH239766   1.413   0.464   5.665  0.0219 -0.7844  0.4331
 6092TIP3    H139767   1.333   0.497   5.624  0.6677 -0.9201 -1.0335
 6092TIP3    H239768   1.472   0.539   5.666  1.2280 -1.5467 -2.2184
 6093TIP3   OH239769   1.216   1.307  17.300 -0.0540 -0.4163  0.1684
 6093TIP3    H139770   1.216   1.331  17.393 -0.9130 -0.3718  0.1634
 6093TIP3    H239771   1.304   1.331  17.269  0.3182 -0.6382  1.0158
 6094TIP3   OH239772   1.991   4.213   0.041  1.0500  0.0300 -0.3951
 6094TIP3    H139773   2.076   4.223   0.083 -0.2279 -0.7059  2.6760
 6094TIP3    H239774   1.955   4.133   0.080 -0.5267 -0.4361 -2.6228
 6095TIP3   OH239775   0.273   2.313  12.284  0.1051 -0.3253 -0.3331
 6095TIP3    H139776   0.279   2.217  12.276  2.3963 -0.2582 -0.1663
 6095TIP3    H239777   0.272   2.329  12.378 -2.2468 -0.2025 -0.3223
 6096TIP3   OH239778   2.817   3.765  14.537 -0.1878 -0.2160 -0.7807
 6096TIP3    H139779   2.798   3.813  14.456 -2.8138  0.1673 -0.0524
 6096TIP3    H239780   2.841   3.832  14.601 -0.0802 -0.2979 -0.7334
 6097TIP3   OH239781   4.386   1.525  11.462  0.2588  0.3853  0.3272
 6097TIP3    H139782   4.437   1.605  11.480  0.7914 -0.3424  2.3556
 6097TIP3    H239783   4.412   1.500  11.374 -1.1296  3.2940 -1.0359
 6098TIP3   OH239784   6.320   6.613   4.036  0.3822  0.1919 -0.1399
 6098TIP3    H139785   6.289   6.630   4.125  0.2980  0.6393 -0.2541
 6098TIP3    H239786   6.252   6.650   3.980  0.8994  0.7565 -0.3917
 6099TIP3   OH239787   2.285   5.300  16.700  0.2050  0.2252 -0.3266
 6099TIP3    H139788   2.292   5.237  16.629  1.6394  1.2620 -1.1557
 6099TIP3    H239789   2.373   5.301  16.740 -0.5987 -0.4647  1.6043
 6100TIP3   OH239790   1.744   6.051  15.073 -0.1145  0.0249  0.2746
 6100TIP3    H139791   1.808   6.059  15.144  0.2609  0.8592 -0.1372
 6100TIP3    H239792   1.784   5.990  15.011 -1.1429 -1.9577  1.4969
 6101TIP3   OH239793   0.039   1.504   5.583  0.4054 -0.1467  0.3138
 6101TIP3    H139794   0.035   1.498   5.488  1.3748 -0.8642  0.3096
 6101TIP3    H239795   0.065   1.595   5.600 -0.2542  0.1175 -0.0859
 6102TIP3   OH239796   4.905   6.057  17.142  0.1711 -0.3428 -0.1557
 6102TIP3    H139797   4.967   6.025  17.207  0.9543  1.1780 -0.0991
 6102TIP3    H239798   4.959   6.102  17.077 -0.5586 -2.0836 -2.0747
 6103TIP3   OH239799   1.072   3.573  11.662  0.0662 -0.3526 -0.3552
 6103TIP3    H139800   1.041   3.487  11.688  0.6577 -0.3322  0.4827
 6103TIP3    H239801   1.164   3.560  11.638  0.2574  0.0830  0.0982
 6104TIP3   OH239802   3.038   5.016  15.193  0.4561  0.5930  0.6810
 6104TIP3    H139803   3.089   4.985  15.118 -0.3942  1.1094 -0.1316
 6104TIP3    H239804   2.995   4.938  15.227 -0.0937  0.5430 -0.1116
 6105TIP3   OH239805   5.604   4.021  13.847 -0.5934  0.5156 -0.0158
 6105TIP3    H139806   5.674   4.045  13.907 -2.9840 -0.5910  3.5373
 6105TIP3    H239807   5.568   4.105  13.817 -0.6469  1.1963  1.8423
 6106TIP3   OH239808   0.463   6.049  16.894 -0.1063 -0.4579 -0.3236
 6106TIP3    H139809   0.495   6.075  16.981  0.2263 -2.4475  0.1931
 6106TIP3    H239810   0.368   6.050  16.902 -0.1315  1.0471 -0.4926
 6107TIP3   OH239811   2.206   1.462   0.248 -0.5059  0.4933 -0.2651
 6107TIP3    H139812   2.268   1.481   0.319 -0.6631 -0.9191  0.2900
 6107TIP3    H239813   2.125   1.440   0.293 -0.3803 -1.2286 -0.8187
 6108TIP3   OH239814   2.665   0.123  15.225  0.3007 -0.1197 -0.2930
 6108TIP3    H139815   2.667   0.148  15.133 -1.3529 -0.9024 -0.5709
 6108TIP3    H239816   2.572   0.113  15.245  0.7233 -2.3108  0.8135
 6109TIP3   OH239817   5.666   1.824  15.664 -0.0251  0.1684  0.5707
 6109TIP3    H139818   5.581   1.808  15.706  0.0083  1.7693  1.3392
 6109TIP3    H239819   5.679   1.749  15.607 -1.4526 -0.6492  1.2562
 6110TIP3   OH239820   3.669   4.672  12.261  0.0990 -0.2109  0.5566
 6110TIP3    H139821   3.606   4.611  12.299  0.3187 -0.6631  0.2144
 6110TIP3    H239822   3.620   4.718  12.193  0.2500 -0.8993 -0.0329
 6111TIP3   OH239823   2.222   2.955  16.728  0.3194 -0.0533 -0.2305
 6111TIP3    H139824   2.134   2.938  16.760 -0.6774  1.2679 -2.0980
 6111TIP3    H239825   2.236   2.889  16.660  0.6229  0.0091 -0.2322
 6112TIP3   OH239826   1.444   3.179  12.266 -0.5494 -0.4842 -0.2905
 6112TIP3    H139827   1.443   3.145  12.356  0.1586  1.9015  0.7006
 6112TIP3    H239828   1.518   3.135  12.225 -0.0325 -0.5959  0.7289
 6113TIP3   OH239829   3.063   5.042  15.862  0.0959  0.8209  0.1695
 6113TIP3    H139830   3.029   5.122  15.821  1.8309  0.5215 -2.0521
 6113TIP3    H239831   3.016   4.971  15.819  0.2891  0.5608  0.3819
 6114TIP3   OH239832   3.932   2.626  16.741  0.0083  0.1194 -0.4163
 6114TIP3    H139833   3.951   2.605  16.650  2.4533  0.0082  0.0695
 6114TIP3    H239834   3.839   2.604  16.751  0.1552 -1.7066 -2.3589
 6115TIP3   OH239835   5.871   5.872  10.466 -0.2774 -0.8451  0.4669
 6115TIP3    H139836   5.856   5.960  10.499  2.2185 -0.1825  0.0939
 6115TIP3    H239837   5.819   5.815  10.523 -3.4049  0.9343 -0.4319
 6116TIP3   OH239838   0.375   0.687   1.087 -0.1932  0.3032  0.1130
 6116TIP3    H139839   0.405   0.602   1.056 -0.4075 -0.6103  2.2351
 6116TIP3    H239840   0.455   0.735   1.106 -0.0256 -0.5158  1.6149
 6117TIP3   OH239841   0.988   1.322   0.300  0.1745  0.3153 -0.1476
 6117TIP3    H139842   0.929   1.356   0.234  0.8082  2.3720  0.2761
 6117TIP3    H239843   0.932   1.306   0.376 -0.5222 -1.8875 -1.0468
 6118TIP3   OH239844   5.349   6.242  16.133 -0.4803 -0.4512 -0.6641
 6118TIP3    H139845   5.397   6.255  16.215  0.1519 -0.0370 -1.0884
 6118TIP3    H239846   5.350   6.147  16.120 -0.0788 -0.4772 -0.4821
 6119TIP3   OH239847   3.188   2.933   5.565 -0.3580  0.2844  0.5537
 6119TIP3    H139848   3.180   3.019   5.605 -1.0702  0.4535  0.0553
 6119TIP3    H239849   3.206   2.951   5.473  0.4669 -0.1049  0.6248
 6120TIP3   OH239850   2.222   3.639   1.303  0.2707 -0.0409 -0.4157
 6120TIP3    H139851   2.198   3.649   1.211  1.8226  0.6600 -0.7853
 6120TIP3    H239852   2.289   3.706   1.318  2.4191 -2.1818  0.3269
 6121TIP3   OH239853   3.204   4.173   4.025 -0.1349 -0.1837 -0.1147
 6121TIP3    H139854   3.118   4.173   4.066 -0.3176  2.3862 -0.3636
 6121TIP3    H239855   3.231   4.081   4.026 -0.6894 -0.5001  4.4955
 6122TIP3   OH239856   4.050   6.607  11.611  1.2036 -0.0188 -0.1015
 6122TIP3    H139857   4.034   6.662  11.535  1.4227 -0.7181 -0.6606
 6122TIP3    H239858   3.962   6.587  11.644  0.8327 -2.6948 -2.3431
 6123TIP3   OH239859   5.484   6.615   3.978  1.0180  0.4516 -0.7664
 6123TIP3    H139860   5.475   6.703   4.012  2.5832  0.9480 -1.5273
 6123TIP3    H239861   5.477   6.558   4.055  1.5449  1.3437 -0.0398
 6124TIP3   OH239862   0.146   3.045   4.577 -0.0313 -0.2633  0.4179
 6124TIP3    H139863   0.109   3.116   4.524  3.0109  1.6235  0.5832
 6124TIP3    H239864   0.182   2.984   4.513  1.7875  0.9544  0.2261
 6125TIP3   OH239865   2.025   6.008  13.198 -0.6558  0.1019  0.6112
 6125TIP3    H139866   1.936   5.979  13.218 -0.7402  0.1832  0.3557
 6125TIP3    H239867   2.046   6.069  13.268 -0.5908 -0.3368  0.9823
 6126TIP3   OH239868   2.216   5.027   2.953 -0.3157 -0.2797  0.1286
 6126TIP3    H139869   2.272   4.950   2.964 -0.8286 -0.8501 -1.0857
 6126TIP3    H239870   2.275   5.094   2.917 -0.4681 -1.0006 -1.5296
 6127TIP3   OH239871   6.620   1.278   3.487 -0.5148 -0.5561  0.0548
 6127TIP3    H139872   6.620   1.183   3.483  0.0696 -0.5164 -1.7584
 6127TIP3    H239873   6.628   1.306   3.396 -0.5499  1.2329  0.5592
 6128TIP3   OH239874   1.100   4.799   5.365 -0.0820 -0.2083 -0.5902
 6128TIP3    H139875   1.094   4.786   5.270  2.4289 -2.8271 -0.4874
 6128TIP3    H239876   1.128   4.715   5.400  1.6383  1.3616  2.2029
 6129TIP3   OH239877   0.059   2.910   1.409  0.0109  0.0362 -0.2172
 6129TIP3    H139878  -0.006   2.979   1.411  0.1905  0.3691 -2.6375
 6129TIP3    H239879   0.143   2.956   1.409  0.1561 -0.2268 -0.7445
 6130TIP3   OH239880   2.079   5.529  11.792 -0.1207  0.0811 -0.5990
 6130TIP3    H139881   1.995   5.487  11.813  0.1655 -0.8043 -1.1796
 6130TIP3    H239882   2.085   5.602  11.853 -0.2836 -1.1632  0.9569
 6131TIP3   OH239883   2.174   2.959  16.317  0.7036 -0.2388  0.0300
 6131TIP3    H139884   2.091   2.968  16.271  0.6680 -1.4427 -0.1757
 6131TIP3    H239885   2.150   2.941  16.408  0.7252 -0.9520 -0.1008
 6132TIP3   OH239886   2.916   3.717  14.154  0.1025  0.2317  0.3910
 6132TIP3    H139887   2.981   3.772  14.197  0.3981  0.4274 -0.2970
 6132TIP3    H239888   2.832   3.761  14.172 -0.0420 -0.8299  2.5535
 6133TIP3   OH239889   5.554   2.014  12.356 -0.5312 -0.3758 -0.2708
 6133TIP3    H139890   5.629   1.962  12.386  0.2545  1.0982  0.3811
 6133TIP3    H239891   5.526   1.969  12.276  1.2116 -0.8464 -0.6822
 6134TIP3   OH239892   3.585   1.139   4.611  0.3126 -0.0717  0.0064
 6134TIP3    H139893   3.502   1.139   4.659 -0.8281  3.3501 -1.6592
 6134TIP3    H239894   3.563   1.108   4.524  0.7761  0.7085 -0.4002
 6135TIP3   OH239895   5.054   5.395   3.579 -0.5148 -0.0308  0.3068
 6135TIP3    H139896   5.008   5.477   3.599 -0.3261 -0.1046  1.0875
 6135TIP3    H239897   5.128   5.422   3.525 -0.8819  0.2159 -0.0803
 6136TIP3   OH239898   1.175   5.531   5.103 -0.2362  0.3372  0.3613
 6136TIP3    H139899   1.244   5.523   5.037  0.3041  1.0171  0.8267
 6136TIP3    H239900   1.222   5.555   5.183 -1.1324  2.3260  0.3448
 6137TIP3   OH239901   3.513   6.299  12.901 -0.3232  0.7852  0.2065
 6137TIP3    H139902   3.517   6.389  12.866  0.9395  0.8782  0.5512
 6137TIP3    H239903   3.502   6.244  12.823  2.1542  1.0183 -0.3855
 6138TIP3   OH239904   6.064   1.032  12.307 -0.2974  0.1552  0.2549
 6138TIP3    H139905   6.124   1.101  12.334  0.7802 -0.6562 -0.0366
 6138TIP3    H239906   6.119   0.956  12.290 -1.2981 -0.3679 -0.8432
 6139TIP3   OH239907   4.472   3.665   3.158 -0.0431 -0.4009  0.3024
 6139TIP3    H139908   4.564   3.686   3.172 -0.0752  0.8803 -1.1132
 6139TIP3    H239909   4.468   3.630   3.069 -0.9824  0.0197  0.1654
 6140TIP3   OH239910   1.967   2.002  13.841  0.0229  0.6365  0.1087
 6140TIP3    H139911   1.872   1.987  13.841 -0.0923  1.2908  0.9288
 6140TIP3    H239912   1.982   2.056  13.918  1.1798 -0.1697  0.4685
 6141TIP3   OH239913   0.300   6.339   2.445 -0.4566  0.2050 -0.0453
 6141TIP3    H139914   0.293   6.323   2.539 -0.1527  1.6855  0.2636
 6141TIP3    H239915   0.210   6.358   2.417 -0.3476  1.2570  0.2703
 6142TIP3   OH239916   5.066   5.414  13.439  0.2328 -0.5553 -0.8628
 6142TIP3    H139917   5.002   5.355  13.477 -0.7894  1.7743  1.4024
 6142TIP3    H239918   5.027   5.444  13.357 -0.3191 -1.2255 -0.8431
 6143TIP3   OH239919   2.106   4.536   4.864  0.0649  0.0798 -0.0670
 6143TIP3    H139920   2.077   4.582   4.786 -0.2497  0.8038  0.4609
 6143TIP3    H239921   2.201   4.546   4.864 -0.1064  2.2412  0.9175
 6144TIP3   OH239922   3.565   0.057   3.937  0.3168 -0.3153  0.0385
 6144TIP3    H139923   3.496   0.022   3.994 -0.2462 -0.0730 -0.4832
 6144TIP3    H239924   3.559   0.003   3.857  0.2596  0.1631 -0.2820
 6145TIP3   OH239925   3.191   4.463   5.095  0.2327  0.1207  0.8412
 6145TIP3    H139926   3.259   4.404   5.062  1.7106  1.5067  1.2654
 6145TIP3    H239927   3.182   4.529   5.027  0.6739  0.9750  1.5891
 6146TIP3   OH239928   3.104   4.203   3.550  0.2497  0.3374 -0.7795
 6146TIP3    H139929   3.032   4.179   3.492 -1.5977 -1.6097  2.0453
 6146TIP3    H239930   3.087   4.294   3.574  0.2390  0.6983 -2.0687
 6147TIP3   OH239931   5.544   1.992  13.611  0.0390  0.1395 -0.5598
 6147TIP3    H139932   5.522   1.920  13.551  0.3074 -0.0348 -0.4489
 6147TIP3    H239933   5.522   1.959  13.698  0.2051  0.1728 -0.5039
 6148TIP3   OH239934   5.923   2.968   4.824  0.3436  0.2758 -0.0448
 6148TIP3    H139935   5.988   3.032   4.798 -1.3141  2.0520 -0.0471
 6148TIP3    H239936   5.914   2.910   4.748  2.5092 -0.6009  0.2855
 6149TIP3   OH239937   6.653   5.246   3.976  0.0700  0.0783 -0.0288
 6149TIP3    H139938   6.654   5.231   3.882  0.5944 -0.0617 -0.0079
 6149TIP3    H239939   6.583   5.191   4.010 -0.4443  0.5026 -0.3943
 6150TIP3   OH239940   6.791   0.486   4.111  0.3220 -0.0684 -0.6165
 6150TIP3    H139941   6.837   0.568   4.129  1.2710 -0.6552 -0.2903
 6150TIP3    H239942   6.711   0.513   4.065  0.3516  1.0682 -0.0373
 6151TIP3   OH239943   3.354   3.705   2.343 -0.4837 -0.5091 -0.6559
 6151TIP3    H139944   3.441   3.733   2.372 -1.7239  1.8388  1.2191
 6151TIP3    H239945   3.352   3.721   2.249  0.8738  0.0603 -0.5965
 6152TIP3   OH239946   6.782   3.121  12.163  0.3200  0.0970 -0.0827
 6152TIP3    H139947   6.771   3.046  12.222  0.5214 -0.0680 -0.2520
 6152TIP3    H239948   6.749   3.196  12.212  1.3404  0.1171  0.5877
 6153TIP3   OH239949   5.378   6.642  12.133 -0.0125  0.2178 -0.0802
 6153TIP3    H139950   5.309   6.701  12.162 -1.4324 -0.4735 -1.8260
 6153TIP3    H239951   5.400   6.590  12.210  0.3705  2.1264  1.1469
 6154TIP3   OH239952   5.533   3.396   0.099  0.3094 -0.2827  0.2026
 6154TIP3    H139953   5.569   3.444   0.173 -0.0981  0.1856  0.1085
 6154TIP3    H239954   5.601   3.335   0.074  0.8795  0.3168  0.2666
 6155TIP3   OH239955   2.916   6.281  12.596 -0.4440  0.2542 -0.2598
 6155TIP3    H139956   2.979   6.217  12.566 -1.2157 -0.7264  0.1588
 6155TIP3    H239957   2.912   6.346  12.526  0.3033 -0.1791 -0.7122
 6156TIP3   OH239958   5.356   1.250  16.303  0.0185  0.8056 -0.0656
 6156TIP3    H139959   5.268   1.248  16.341  0.2487  0.4910  0.4744
 6156TIP3    H239960   5.342   1.251  16.209 -0.5887 -2.7178 -0.1533
 6157TIP3   OH239961   2.067   4.352   5.154 -0.5529  0.1067  0.3259
 6157TIP3    H139962   2.111   4.417   5.099  0.2516 -1.1947 -0.6195
 6157TIP3    H239963   2.055   4.396   5.238  0.5134  1.2781 -0.1034
 6158TIP3   OH239964   1.368   1.871  12.186  0.3513  0.2520 -0.0827
 6158TIP3    H139965   1.463   1.857  12.178  0.3765  0.2494  0.2064
 6158TIP3    H239966   1.334   1.785  12.212  0.7011  0.9961  3.3629
 6159TIP3   OH239967   0.445   5.742   1.181  0.9443  0.7886  0.2072
 6159TIP3    H139968   0.368   5.693   1.154 -0.1333  0.5770  3.2631
 6159TIP3    H239969   0.440   5.824   1.132 -0.9649  0.5737 -0.0266
 6160TIP3   OH239970   1.418   0.968   0.170 -0.5119 -0.6873 -0.2203
 6160TIP3    H139971   1.454   1.000   0.252 -2.0204 -0.7346  0.4910
 6160TIP3    H239972   1.373   0.887   0.193 -1.5943 -0.3068 -0.9417
 6161TIP3   OH239973   0.401   5.684   3.366 -0.1358  0.5872  0.3419
 6161TIP3    H139974   0.351   5.726   3.296 -0.3968  2.3634  1.5343
 6161TIP3    H239975   0.356   5.600   3.381 -0.7456  0.6852 -0.8286
 6162TIP3   OH239976   2.998   2.908   4.177 -0.0435 -0.3757  0.2158
 6162TIP3    H139977   3.089   2.901   4.205 -0.2008  0.3183  0.9533
 6162TIP3    H239978   2.972   2.819   4.155  0.5754 -0.6927  0.7563
 6163TIP3   OH239979   0.378   3.654   5.885  0.5584 -0.2225  0.4748
 6163TIP3    H139980   0.394   3.560   5.883  1.1283 -0.1279  0.4238
 6163TIP3    H239981   0.443   3.691   5.826 -0.0077  0.1603  0.0747
 6164TIP3   OH239982   5.154   2.645  15.869 -0.4944 -0.1817 -0.4797
 6164TIP3    H139983   5.083   2.591  15.904  0.3151 -1.9346 -1.3981
 6164TIP3    H239984   5.233   2.593  15.884  0.7617  2.0597  1.2263
 6165TIP3   OH239985   5.718   4.834   6.336 -0.8722 -1.1674 -0.2875
 6165TIP3    H139986   5.786   4.767   6.333 -1.5833 -1.8749 -1.0341
 6165TIP3    H239987   5.644   4.791   6.377 -0.4892 -0.0066  1.7586
 6166TIP3   OH239988   4.331   5.744   3.286  0.0745 -0.2384 -0.2480
 6166TIP3    H139989   4.319   5.657   3.324  0.5039 -0.5118 -0.7347
 6166TIP3    H239990   4.379   5.728   3.205 -0.8616  0.3341 -0.9263
 6167TIP3   OH239991   1.051   1.889   0.230 -0.2505 -0.4296  0.2312
 6167TIP3    H139992   0.976   1.853   0.182  0.3342  0.1831 -1.1907
 6167TIP3    H239993   1.113   1.916   0.162  1.6796 -1.7289  1.3925
 6168TIP3   OH239994   4.766   6.317  13.932 -0.1924  0.1880  0.0580
 6168TIP3    H139995   4.853   6.323  13.893  0.3377  0.4998  1.2611
 6168TIP3    H239996   4.706   6.340  13.860  0.6930 -0.0913 -0.7940
 6169TIP3   OH239997   0.707   2.739  12.136 -0.2460  0.2102 -0.3830
 6169TIP3    H139998   0.715   2.780  12.050  1.5932 -0.8215 -0.7537
 6169TIP3    H239999   0.772   2.669  12.135 -1.0191 -0.5862  1.4289
 6170TIP3   OH240000   0.988   2.031   0.794 -0.4433  0.1738  0.1042
 6170TIP3    H140001   1.028   1.980   0.864 -0.6766  1.2335  1.0524
 6170TIP3    H240002   1.020   2.120   0.808  0.3508  0.2410 -1.8027
 6171TIP3   OH240003   2.326   5.432   4.372 -0.1282 -0.7431  0.6255
 6171TIP3    H140004   2.331   5.382   4.453 -0.2543 -0.0549  1.0729
 6171TIP3    H240005   2.409   5.413   4.327 -0.0641 -1.1432  0.9087
 6172TIP3   OH240006   4.373   1.057   1.105 -0.1527  0.4948  0.8341
 6172TIP3    H140007   4.335   1.126   1.160 -0.4363  0.9333  0.1132
 6172TIP3    H240008   4.384   1.099   1.020  1.0691  0.0844  0.7761
 6173TIP3   OH240009   0.925   3.853  12.325 -1.1523 -0.0934  0.2815
 6173TIP3    H140010   0.968   3.782  12.371  1.3100  1.1089  0.0028
 6173TIP3    H240011   0.917   3.823  12.234  0.9374  0.3383 -0.0943
 6174TIP3   OH240012   5.379   4.439   2.243 -0.2438 -0.0063  0.0544
 6174TIP3    H140013   5.473   4.428   2.232  0.0575  2.9102 -1.2188
 6174TIP3    H240014   5.370   4.517   2.299 -1.9056 -0.6926  0.8072
 6175TIP3   OH240015   0.676   6.473   3.874 -0.0110 -0.0290 -0.6047
 6175TIP3    H140016   0.687   6.389   3.920  0.7714 -0.1009 -0.9061
 6175TIP3    H240017   0.699   6.453   3.784  0.1893  0.5140 -0.6760
 6176TIP3   OH240018   2.112   3.822  11.491 -0.2087 -0.3805  0.4424
 6176TIP3    H140019   2.168   3.889  11.530  1.5282 -1.5852  0.1453
 6176TIP3    H240020   2.031   3.868  11.469  0.9003  1.6121  0.2766
 6177TIP3   OH240021   4.253   5.119  13.577  0.2547  0.1688 -0.3653
 6177TIP3    H140022   4.269   5.135  13.484  2.0261 -1.1933 -0.3348
 6177TIP3    H240023   4.340   5.113  13.617 -0.4568  1.3747  1.5359
 6178TIP3   OH240024   1.972   5.167   2.912  0.3117 -0.1234 -0.3406
 6178TIP3    H140025   1.923   5.090   2.883  1.8947 -0.5615 -2.1214
 6178TIP3    H240026   2.055   5.131   2.943  0.3445  0.7407  0.5784
 6179TIP3   OH240027   5.420   4.185   5.158 -0.3578  0.1825  0.0175
 6179TIP3    H140028   5.343   4.147   5.117 -0.7066 -0.7884  1.5286
 6179TIP3    H240029   5.494   4.153   5.105 -0.7929 -1.0923  0.1536
 6180TIP3   OH240030   4.439   1.010   3.308  0.0743  0.3082 -0.0303
 6180TIP3    H140031   4.491   1.048   3.237 -0.2325  0.7454 -0.0273
 6180TIP3    H240032   4.436   0.917   3.288 -0.7194  0.5390 -1.0610
 6181TIP3   OH240033   2.843   1.265   1.363 -0.2695 -0.3722  0.6798
 6181TIP3    H140034   2.937   1.285   1.362 -0.5034  0.7498 -0.2195
 6181TIP3    H240035   2.811   1.302   1.445  0.4360 -2.7188  2.1262
 6182TIP3   OH240036   5.810   0.695  13.160 -0.2939 -0.0579 -0.2244
 6182TIP3    H140037   5.833   0.759  13.228 -1.0856  0.3866 -0.3685
 6182TIP3    H240038   5.819   0.610  13.204 -2.1998  0.2613  0.9069
 6183TIP3   OH240039   4.775   5.548   5.319  0.6543  0.1344  0.0386
 6183TIP3    H140040   4.848   5.541   5.380  0.0237 -1.2291  0.6597
 6183TIP3    H240041   4.715   5.479   5.344  0.2260 -0.2858 -1.9399
 6184TIP3   OH240042   5.383   3.964   2.195  0.5918 -0.2080  0.2958
 6184TIP3    H140043   5.317   3.986   2.130  0.0099 -0.1492  0.8867
 6184TIP3    H240044   5.420   4.048   2.222  0.6711 -0.2151  0.2105
 6185TIP3   OH240045   0.067   0.952  16.551  0.0396 -0.0829  0.2108
 6185TIP3    H140046  -0.015   0.904  16.548  1.0580 -1.8566 -0.7635
 6185TIP3    H240047   0.110   0.931  16.468  0.1290  3.3503 -0.7718
 6186TIP3   OH240048   6.426   3.252   0.593  0.0789  0.6946  0.2888
 6186TIP3    H140049   6.477   3.242   0.673 -0.9363 -0.0484  0.8480
 6186TIP3    H240050   6.464   3.189   0.532 -0.4359 -0.1480  0.8380
 6187TIP3   OH240051   2.645   1.901  13.982 -0.3703  0.9126 -0.0622
 6187TIP3    H140052   2.629   1.863  14.068 -0.3832 -0.1495 -0.5153
 6187TIP3    H240053   2.558   1.905  13.941 -0.1366 -0.4017 -0.7378
 6188TIP3   OH240054   2.718   6.246   1.541 -0.4952 -0.1037  0.1087
 6188TIP3    H140055   2.727   6.275   1.632  4.7138 -1.0382  0.1755
 6188TIP3    H240056   2.709   6.328   1.492 -2.5714  0.4619  1.2814
 6189TIP3   OH240057   1.464   5.206  11.742 -0.3892 -0.6290  0.4280
 6189TIP3    H140058   1.528   5.277  11.753 -0.9095  0.6207 -3.0685
 6189TIP3    H240059   1.400   5.221  11.812  0.4658  1.2689  0.8861
 6190TIP3   OH240060   4.288   2.048   1.713  0.0417 -0.3036 -0.5109
 6190TIP3    H140061   4.363   1.989   1.704  1.2194  1.1008 -0.4550
 6190TIP3    H240062   4.224   2.016   1.650 -0.0287 -2.5507  0.6091
 6191TIP3   OH240063   6.569   5.494  16.702  0.4643  0.1343 -0.7000
 6191TIP3    H140064   6.635   5.462  16.640  0.9817  0.9269 -0.5735
 6191TIP3    H240065   6.492   5.440  16.684  1.2124 -0.9736 -0.6808
 6192TIP3   OH240066   6.620   0.806   1.958 -0.3071 -0.1710 -0.0163
 6192TIP3    H140067   6.599   0.728   1.908  0.0496  0.8826 -1.8927
 6192TIP3    H240068   6.563   0.874   1.923  0.3468  0.7372  0.6120
 6193TIP3   OH240069   2.147   1.851   5.189  0.5389  0.3655  0.6084
 6193TIP3    H140070   2.139   1.755   5.195  0.2770  0.1953 -1.4496
 6193TIP3    H240071   2.110   1.883   5.271 -2.2521 -1.2279  0.1149
 6194TIP3   OH240072   1.181   2.098  13.714  0.5060 -0.4369 -0.2532
 6194TIP3    H140073   1.127   2.019  13.716  0.7371 -0.5932  1.8929
 6194TIP3    H240074   1.248   2.079  13.649 -0.7105 -1.1109 -1.3662
 6195TIP3   OH240075   3.466   4.929   2.890 -0.2360  0.6842  0.3605
 6195TIP3    H140076   3.452   4.940   2.984 -1.1589 -0.8667  0.4498
 6195TIP3    H240077   3.435   4.840   2.872 -1.5570  1.4907 -1.6993
 6196TIP3   OH240078   1.370   3.480  11.042  0.7265  0.4083 -0.1403
 6196TIP3    H140079   1.283   3.516  11.059  0.3335 -0.6309  0.1404
 6196TIP3    H240080   1.360   3.429  10.961  0.7851 -0.6188  0.4793
 6197TIP3   OH240081   6.710   1.558  11.356  0.2499  0.2440  0.1374
 6197TIP3    H140082   6.676   1.637  11.314  0.6357  0.8730  0.9830
 6197TIP3    H240083   6.803   1.557  11.333 -0.0408 -0.8262 -1.1676
 6198TIP3   OH240084   1.644   0.010   4.254  0.1490 -0.3657  0.0121
 6198TIP3    H140085   1.568  -0.044   4.275  1.1902 -2.1985 -0.6927
 6198TIP3    H240086   1.695   0.012   4.335  0.1904 -0.6051 -0.0066
 6199TIP3   OH240087   0.137   1.052  13.781 -0.5710 -0.1457  0.3368
 6199TIP3    H140088   0.202   1.122  13.782 -0.1127 -0.5611  0.1574
 6199TIP3    H240089   0.169   0.990  13.715 -1.1051 -0.3958  0.3037
 6200TIP3   OH240090   5.051   6.399  13.833 -0.2323  0.2717 -0.1264
 6200TIP3    H140091   5.026   6.459  13.764 -0.7934  0.7060  0.4419
 6200TIP3    H240092   5.106   6.451  13.892 -0.3403  0.1065  0.1237
 6201TIP3   OH240093   0.084   4.374  12.234 -0.0016 -0.0228 -0.3517
 6201TIP3    H140094   0.015   4.432  12.265  1.6254  0.9444  1.7119
 6201TIP3    H240095   0.076   4.296  12.290  0.9581  0.3706  0.3479
 6202TIP3   OH240096   0.653   1.207  16.396  0.3091  0.0821 -0.5467
 6202TIP3    H140097   0.631   1.272  16.330  0.6760  0.5192 -0.2460
 6202TIP3    H240098   0.634   1.250  16.480  1.7291  0.2755 -0.2954
 6203TIP3   OH240099   1.560   4.149  11.786  0.3565  0.3421  0.3943
 6203TIP3    H140100   1.653   4.147  11.808  0.3160  0.7788  0.6142
 6203TIP3    H240101   1.558   4.145  11.690  0.5306 -1.6194  0.4347
 6204TIP3   OH240102   4.328   5.264   4.883 -0.2585 -0.1987  0.3784
 6204TIP3    H140103   4.325   5.337   4.822  1.9849  0.0768  0.4989
 6204TIP3    H240104   4.362   5.302   4.964 -0.0444 -1.1732  0.7664
 6205TIP3   OH240105   4.310   5.072   1.083  0.0740 -0.2616 -0.2398
 6205TIP3    H140106   4.328   5.024   1.164 -1.4458  0.0864  0.3370
 6205TIP3    H240107   4.330   5.010   1.014  1.2770 -0.6105  0.3961
 6206TIP3   OH240108   6.645   5.385  14.650 -0.0623  0.0317 -0.2139
 6206TIP3    H140109   6.558   5.423  14.659 -0.2700 -0.2211 -1.0782
 6206TIP3    H240110   6.634   5.294  14.677 -0.4271 -0.4170 -1.8020
 6207TIP3   OH240111   1.692   6.772  12.090 -0.1430  0.8085 -0.9860
 6207TIP3    H140112   1.666   6.744  12.002  0.0158  1.0323 -1.1052
 6207TIP3    H240113   1.613   6.764  12.143 -0.2635  0.7687 -1.1726
 6208TIP3   OH240114   5.953   3.938  12.008  0.5713  0.3680  0.8134
 6208TIP3    H140115   5.999   3.870  11.959  0.2164  1.4147 -1.0914
 6208TIP3    H240116   5.912   3.993  11.940 -0.4906  1.5425  2.3206
 6209TIP3   OH240117   0.906   3.551  14.781 -0.6460  0.0285 -0.4024
 6209TIP3    H140118   0.825   3.505  14.758 -0.4592 -0.8523  0.6501
 6209TIP3    H240119   0.915   3.618  14.712 -0.3994 -2.0963 -2.5873
 6210TIP3   OH240120   6.278   2.997   1.972  0.4579 -0.0252  0.0738
 6210TIP3    H140121   6.365   3.037   1.979 -0.4917  2.4659 -1.4000
 6210TIP3    H240122   6.236   3.017   2.055  0.2707  1.4262 -0.3526
 6211TIP3   OH240123   1.905   6.483   6.268 -0.5235  0.1923 -0.4826
 6211TIP3    H140124   1.880   6.526   6.350  2.8081  0.8524  0.3579
 6211TIP3    H240125   1.961   6.410   6.295  0.4762  0.2930 -2.1302
 6212TIP3   OH240126   3.862   1.324  12.055 -1.3062  0.0157  0.2877
 6212TIP3    H140127   3.895   1.282  12.134  1.9541 -0.5756 -1.2473
 6212TIP3    H240128   3.811   1.255  12.011 -0.6788 -0.5811  0.4766
 6213TIP3   OH240129   2.541   2.909  13.531 -0.0195 -0.1973 -0.0500
 6213TIP3    H140130   2.452   2.926  13.561 -0.6210 -0.1968 -1.7319
 6213TIP3    H240131   2.530   2.863  13.448  1.5473  0.0804 -0.4479
 6214TIP3   OH240132   3.255   5.114   4.825  0.3127  0.3760 -0.1343
 6214TIP3    H140133   3.285   5.205   4.822  0.9984  0.1356 -1.5561
 6214TIP3    H240134   3.336   5.063   4.829 -0.0891 -0.1704  1.3603
 6215TIP3   OH240135   5.820   0.688  16.159 -0.1502 -0.8091 -0.3567
 6215TIP3    H140136   5.875   0.620  16.199  0.7378 -0.6479 -1.2538
 6215TIP3    H240137   5.841   0.684  16.066  2.6869  3.0512 -0.1094
 6216TIP3   OH240138   6.761   1.156   5.292  0.0529  0.2044 -0.9321
 6216TIP3    H140139   6.845   1.154   5.338 -1.8691 -0.6938  3.0303
 6216TIP3    H240140   6.747   1.066   5.263 -0.5114 -0.2663  0.6576
 6217TIP3   OH240141   6.194   2.615   3.302 -0.0522  0.6359  0.0898
 6217TIP3    H140142   6.180   2.522   3.286  3.3187 -0.3107  1.7513
 6217TIP3    H240143   6.179   2.656   3.217 -2.3854 -1.2379 -0.5225
 6218TIP3   OH240144   6.165   3.071   1.484 -0.1273  0.2704 -0.3392
 6218TIP3    H140145   6.220   3.044   1.557  0.3821 -0.5687 -1.0157
 6218TIP3    H240146   6.227   3.104   1.418 -0.5289  0.4536 -0.6301
 6219TIP3   OH240147   1.097   5.424   4.128  0.4015  0.2121 -0.2602
 6219TIP3    H140148   1.186   5.418   4.093  0.4203 -0.1989 -0.1350
 6219TIP3    H240149   1.045   5.455   4.054  0.4019 -0.8751 -0.7344
 6220TIP3   OH240150   5.102   0.763   3.275  0.3255 -0.4078  0.6551
 6220TIP3    H140151   5.015   0.795   3.301  0.4228  0.7521 -0.3709
 6220TIP3    H240152   5.098   0.669   3.289 -0.7621 -0.2535  1.5633
 6221TIP3   OH240153   6.690   1.379  12.506  0.4789  0.1147  0.2621
 6221TIP3    H140154   6.654   1.421  12.427  1.2165  0.9292  0.3359
 6221TIP3    H240155   6.615   1.336  12.546  0.3623 -1.6217 -1.6709
 6222TIP3   OH240156   3.115   2.447  14.143  0.0730  0.1228  0.4947
 6222TIP3    H140157   3.194   2.459  14.091  0.8860 -1.5142  1.2888
 6222TIP3    H240158   3.065   2.381  14.096 -0.8324  1.0998  0.0292
 6223TIP3   OH240159   5.250   2.607  12.481 -0.5112 -0.2958 -0.0226
 6223TIP3    H140160   5.225   2.583  12.391 -1.9595 -1.3075  0.6000
 6223TIP3    H240161   5.330   2.658  12.471 -0.5946 -0.4513 -1.8844
 6224TIP3   OH240162   4.724   6.767  10.734 -0.0558 -0.1987 -0.0173
 6224TIP3    H140163   4.683   6.732  10.654  1.6800  0.8803 -1.4570
 6224TIP3    H240164   4.782   6.698  10.764 -0.7131 -0.6081  0.3304
 6225TIP3   OH240165   3.951   2.935   2.752  0.3311 -0.7419 -0.3262
 6225TIP3    H140166   3.922   2.889   2.673 -1.8852 -1.9958  1.1195
 6225TIP3    H240167   3.929   3.027   2.734 -1.3053 -1.1695 -0.7474
 6226TIP3   OH240168   1.217   5.976  12.216  0.4155  1.3211  0.5183
 6226TIP3    H140169   1.219   6.022  12.132 -0.7637 -0.8435 -0.8126
 6226TIP3    H240170   1.127   5.989  12.247  0.0664  0.0083  0.1191
 6227TIP3   OH240171   4.166   0.637   4.313  0.6577 -0.7177  0.0841
 6227TIP3    H140172   4.163   0.708   4.378 -2.1187 -0.2827 -0.3735
 6227TIP3    H240173   4.077   0.602   4.313  1.8616 -4.1162  0.1080
 6228TIP3   OH240174   3.669   4.328  15.764 -0.6383  0.3100  0.0468
 6228TIP3    H140175   3.650   4.307  15.673 -0.0757  1.6319 -0.3961
 6228TIP3    H240176   3.703   4.246  15.801 -1.0772 -0.2963 -0.8548
 6229TIP3   OH240177   4.888   6.482   5.073  0.1910  0.1914  0.0333
 6229TIP3    H140178   4.981   6.463   5.085  0.1469  0.4068  0.7525
 6229TIP3    H240179   4.861   6.520   5.156 -0.4138  0.6471 -0.3717
 6230TIP3   OH240180   1.526   2.703   2.441  0.7646 -0.2785 -0.0473
 6230TIP3    H140181   1.500   2.755   2.365  1.5125  1.8327  1.0757
 6230TIP3    H240182   1.585   2.636   2.405 -2.8287 -2.7279 -2.0458
 6231TIP3   OH240183   1.407   3.339   0.937 -0.1546  0.4893  0.1618
 6231TIP3    H140184   1.370   3.252   0.921 -0.1956  0.4039  0.6977
 6231TIP3    H240185   1.493   3.323   0.974 -1.1260  0.5893  2.7203
 6232TIP3   OH240186   3.724   2.307   3.181  0.9269  0.3831 -0.2154
 6232TIP3    H140187   3.706   2.310   3.087  0.2851 -0.5171 -0.1363
 6232TIP3    H240188   3.698   2.218   3.207  0.1229  0.9534  1.0046
 6233TIP3   OH240189   4.613   2.283  11.520  0.0762  0.2571 -0.4502
 6233TIP3    H140190   4.658   2.200  11.502  0.0025  0.0872  0.1477
 6233TIP3    H240191   4.672   2.350  11.485 -0.0212 -0.0606 -1.2483
 6234TIP3   OH240192   5.949   6.212  16.484  0.3590 -0.1384 -0.5888
 6234TIP3    H140193   5.949   6.116  16.495 -0.8949 -0.1973 -0.9924
 6234TIP3    H240194   5.983   6.245  16.567 -3.4041 -0.8046  1.4552
 6235TIP3   OH240195   1.043   0.399  11.375 -0.5609  0.0155  0.7040
 6235TIP3    H140196   1.117   0.358  11.331 -0.5653 -0.2515  0.9456
 6235TIP3    H240197   0.975   0.404  11.308 -0.8304 -1.0887  0.8796
 6236TIP3   OH240198   1.429   1.665  13.758  0.0714  0.4161  0.2305
 6236TIP3    H140199   1.401   1.644  13.669  0.6300  1.2162 -0.1463
 6236TIP3    H240200   1.354   1.709  13.798 -0.4322 -0.5618  0.4055
 6237TIP3   OH240201   1.507   2.338  14.296  0.3865 -0.0007  0.1356
 6237TIP3    H140202   1.495   2.359  14.389 -3.5538 -0.2632 -0.1598
 6237TIP3    H240203   1.483   2.418  14.250  0.8156 -0.3353 -0.6946
 6238TIP3   OH240204   6.361   2.709   5.476  0.3422 -0.0128  0.2299
 6238TIP3    H140205   6.340   2.693   5.384  0.9570  1.3288 -0.1656
 6238TIP3    H240206   6.364   2.804   5.484 -1.8303 -0.0281  2.1550
 6239TIP3   OH240207   5.374   4.007   0.847  0.7565  0.9659 -0.5584
 6239TIP3    H140208   5.420   4.062   0.910  0.1900 -1.1570  1.8836
 6239TIP3    H240209   5.283   4.034   0.853  0.6239  0.4432 -0.0268
 6240TIP3   OH240210   0.571   4.646  17.173 -0.4982 -0.3192 -0.3396
 6240TIP3    H140211   0.644   4.661  17.113  0.0109 -3.0560 -0.5420
 6240TIP3    H240212   0.503   4.607  17.117  0.0089 -2.9888  0.7491
 6241TIP3   OH240213   2.428   0.418  12.534 -0.0201 -0.3759 -1.1005
 6241TIP3    H140214   2.504   0.391  12.482  1.1631 -0.5987  0.6495
 6241TIP3    H240215   2.419   0.512  12.516  2.4520  0.3118  0.6937
 6242TIP3   OH240216   3.710   2.678  17.052 -0.2223 -0.1926 -0.5571
 6242TIP3    H140217   3.798   2.712  17.037  1.1471 -3.2226 -0.0173
 6242TIP3    H240218   3.652   2.749  17.024  2.3383  1.3635 -2.3241
 6243TIP3   OH240219   3.633   6.581   3.833 -0.1559 -0.3787  0.0999
 6243TIP3    H140220   3.556   6.596   3.779 -0.5794 -2.5831  0.0115
 6243TIP3    H240221   3.707   6.593   3.773 -0.3917  1.3356  0.0915
 6244TIP3   OH240222   5.444   1.146  17.182 -0.1366  0.1316 -0.2218
 6244TIP3    H140223   5.408   1.115  17.099  0.8535  1.0609 -1.0270
 6244TIP3    H240224   5.530   1.105  17.188 -0.1635  0.1382  0.3104
 6245TIP3   OH240225   0.172   6.795   4.765  0.2600 -0.3115 -0.1397
 6245TIP3    H140226   0.107   6.860   4.792  0.2158 -0.4201  0.0209
 6245TIP3    H240227   0.249   6.846   4.741 -0.1539 -0.1368 -1.1061
 6246TIP3   OH240228   3.146   5.397  15.330  0.0933  0.2825  0.3374
 6246TIP3    H140229   3.092   5.457  15.381 -0.9725  1.1735 -1.7116
 6246TIP3    H240230   3.084   5.347  15.278  1.0470 -1.7363  1.0299
 6247TIP3   OH240231   5.611   6.715  12.429  0.2285 -0.1341 -0.0694
 6247TIP3    H140232   5.657   6.769  12.364  0.4495 -0.4043 -0.1403
 6247TIP3    H240233   5.670   6.714  12.504  0.8572 -1.3623 -0.5419
 6248TIP3   OH240234   0.593   1.487  11.375  0.0461 -0.5358 -0.2833
 6248TIP3    H140235   0.577   1.573  11.413 -1.1401 -0.5258 -0.7483
 6248TIP3    H240236   0.677   1.460  11.412  1.6906  1.8418 -1.9648
 6249TIP3   OH240237   6.349   4.347  14.208 -0.1766 -0.3665  0.4989
 6249TIP3    H140238   6.388   4.370  14.293  0.4265  3.3744 -0.5953
 6249TIP3    H240239   6.409   4.385  14.144 -3.0216  1.2900 -1.4224
 6250TIP3   OH240240   1.364   4.861  12.012  0.4561 -0.3102 -0.4548
 6250TIP3    H140241   1.312   4.896  12.084  0.3563  1.0609 -1.1695
 6250TIP3    H240242   1.447   4.907  12.018 -0.4696  1.8576 -2.7763
 6251TIP3   OH240243   2.256   4.958  14.116  0.2217 -0.8374 -0.2136
 6251TIP3    H140244   2.295   4.876  14.147  0.2170 -0.5094  0.6939
 6251TIP3    H240245   2.221   4.999  14.195 -0.0725 -0.1184 -0.7098
 6252TIP3   OH240246   3.175   3.513   2.344  0.2599  0.6504  0.1699
 6252TIP3    H140247   3.250   3.572   2.349  0.7289  0.1625 -0.7266
 6252TIP3    H240248   3.106   3.556   2.394  0.6026  1.9208 -0.4249
 6253TIP3   OH240249   6.111   1.862  12.033  0.5658 -1.0834 -0.1119
 6253TIP3    H140250   6.056   1.836  11.959 -1.4884  1.5632  0.3227
 6253TIP3    H240251   6.194   1.889  11.993  0.3002 -1.8355 -1.1950
 6254TIP3   OH240252   4.450   3.282  12.260 -0.5747  0.8169 -0.2296
 6254TIP3    H140253   4.490   3.315  12.179 -1.9473  1.5793 -0.6282
 6254TIP3    H240254   4.360   3.262  12.236 -1.4040  2.3019  1.4006
 6255TIP3   OH240255   6.283   6.669   6.121 -0.8466 -0.3694  0.5555
 6255TIP3    H140256   6.374   6.666   6.151 -0.3684  2.5191 -0.3105
 6255TIP3    H240257   6.235   6.707   6.194 -0.9960 -0.0861  0.3133
 6256TIP3   OH240258   3.171   5.849   2.285 -0.0448  0.3781 -0.3065
 6256TIP3    H140259   3.192   5.808   2.369  0.8293  0.0672 -0.6674
 6256TIP3    H240260   3.229   5.925   2.280  1.0210 -0.4609 -1.2945
 6257TIP3   OH240261   4.152   5.211   4.531  0.1572  0.1012 -0.5384
 6257TIP3    H140262   4.177   5.301   4.549  1.2370 -0.3478  0.3114
 6257TIP3    H240263   4.218   5.179   4.470  0.0554 -0.2518 -0.4682
 6258TIP3   OH240264   1.447   1.717   0.216 -0.0539  0.1086  0.9174
 6258TIP3    H140265   1.425   1.700   0.308 -0.7246 -2.9248  0.3024
 6258TIP3    H240266   1.541   1.700   0.210 -0.4699 -2.4944  0.6008
 6259TIP3   OH240267   1.620   4.991  16.352 -0.6782 -0.3712 -0.1675
 6259TIP3    H140268   1.650   4.905  16.379 -2.1702 -0.3477  1.7940
 6259TIP3    H240269   1.676   5.053  16.398  0.2245 -0.2509 -1.3749
 6260TIP3   OH240270   6.625   1.280  14.390  0.2856  0.0730  0.0362
 6260TIP3    H140271   6.544   1.262  14.438 -0.7941  4.0559  0.0505
 6260TIP3    H240272   6.694   1.256  14.451 -0.9297 -0.4867  1.2673
 6261TIP3   OH240273   5.987   3.618  15.374  0.4215  0.6834 -0.0726
 6261TIP3    H140274   5.939   3.685  15.325  0.3083  0.8987  0.3281
 6261TIP3    H240275   6.035   3.667  15.440 -1.9567  0.1977  2.1942
 6262TIP3   OH240276   6.219   1.665  12.765 -0.1220  0.1281 -0.6250
 6262TIP3    H140277   6.246   1.706  12.683 -1.7857  0.7062 -0.9380
 6262TIP3    H240278   6.182   1.737  12.817  1.8979 -0.0045  1.1444
 6263TIP3   OH240279   2.653   1.232   5.505  0.0190 -0.1868  0.1042
 6263TIP3    H140280   2.567   1.197   5.528  0.3193 -0.1336  1.3995
 6263TIP3    H240281   2.683   1.177   5.433 -2.1873  1.4302 -2.2438
 6264TIP3   OH240282   0.124   3.577   4.091 -0.4303 -0.1030 -0.2445
 6264TIP3    H140283   0.200   3.571   4.033 -0.6064  1.2786 -0.6418
 6264TIP3    H240284   0.155   3.627   4.166 -1.5156  2.6924 -1.5087
 6265TIP3   OH240285   4.190   3.630  14.920  0.1629 -0.9144 -0.0487
 6265TIP3    H140286   4.180   3.629  15.015 -0.3888 -0.5049 -0.0935
 6265TIP3    H240287   4.136   3.557  14.889  0.4808 -1.1558 -0.0388
 6266TIP3   OH240288   1.859   6.268   5.849 -0.1059  0.3781 -0.1742
 6266TIP3    H140289   1.877   6.275   5.755 -1.8896 -0.6641 -0.6412
 6266TIP3    H240290   1.764   6.264   5.855  0.0048 -1.2179  1.5467
 6267TIP3   OH240291   4.281   6.727   4.652  0.0381 -0.1005  0.2929
 6267TIP3    H140292   4.206   6.784   4.633 -1.1607 -1.8644 -0.4748
 6267TIP3    H240293   4.274   6.710   4.746  0.2014  0.6866  0.4619
 6268TIP3   OH240294   4.482   6.408   0.689  0.2392  0.2427  0.1110
 6268TIP3    H140295   4.498   6.371   0.602  0.8635 -0.5963  0.5642
 6268TIP3    H240296   4.485   6.502   0.676 -1.4511  0.1731 -1.0964
 6269TIP3   OH240297   2.537   2.274  15.649  0.2794  0.3685  0.5519
 6269TIP3    H140298   2.564   2.269  15.558 -0.1280  1.6175  0.3493
 6269TIP3    H240299   2.518   2.366  15.664 -1.7543 -0.1068  1.2915
 6270TIP3   OH240300   3.779   0.583   2.349 -0.3116 -0.1771 -0.2245
 6270TIP3    H140301   3.722   0.506   2.360 -0.5140  0.0323  0.1842
 6270TIP3    H240302   3.868   0.549   2.363 -0.4342 -0.2538  0.3755
 6271TIP3   OH240303   6.792   2.308   4.313  0.5609 -0.1288  0.0816
 6271TIP3    H140304   6.771   2.394   4.275 -2.2454  0.0941  1.8084
 6271TIP3    H240305   6.815   2.253   4.238  0.6551  1.6717 -1.2721
 6272TIP3   OH240306   1.870   1.949  10.790 -0.2605 -0.2133 -0.6401
 6272TIP3    H140307   1.901   1.921  10.704 -0.6739  0.0259 -0.8715
 6272TIP3    H240308   1.845   1.868  10.834  2.1034 -0.5842  0.1387
 6273TIP3   OH240309   3.348   0.940  15.444  0.8036 -0.5248 -0.2905
 6273TIP3    H140310   3.262   0.970  15.416  1.1928  1.9297  0.8659
 6273TIP3    H240311   3.403   0.947  15.365  0.4654  0.1832 -0.4701
 6274TIP3   OH240312   2.062   0.353  14.499 -0.9694 -0.0401 -0.0141
 6274TIP3    H140313   2.114   0.272  14.501 -4.1845 -2.3092 -1.0006
 6274TIP3    H240314   1.979   0.329  14.540 -1.5048  3.2880  1.1035
 6275TIP3   OH240315   4.688   3.386  12.386 -0.2888  0.5475 -0.0924
 6275TIP3    H140316   4.599   3.385  12.351 -0.5400 -0.0861  0.5387
 6275TIP3    H240317   4.678   3.421  12.475  0.1550  0.8733 -0.1679
 6276TIP3   OH240318   5.972   3.635   3.771  0.3141 -0.2605 -0.1382
 6276TIP3    H140319   6.013   3.552   3.796  0.0108 -0.4195 -0.1635
 6276TIP3    H240320   5.901   3.647   3.834 -0.3322 -0.5635 -0.7871
 6277TIP3   OH240321   2.060   2.671  14.100 -0.3192  0.0773 -0.1599
 6277TIP3    H140322   2.022   2.745  14.052 -1.0019 -0.6916 -0.8219
 6277TIP3    H240323   2.094   2.613  14.031 -0.1995 -0.4463  0.3349
 6278TIP3   OH240324   3.286   1.832  15.788 -0.2633  0.0807  0.3331
 6278TIP3    H140325   3.316   1.787  15.709  1.1574 -1.0436  1.4296
 6278TIP3    H240326   3.232   1.904  15.757  1.0169  0.2329 -1.6839
 6279TIP3   OH240327   3.860   3.938   0.718 -0.5851  0.6868 -0.2261
 6279TIP3    H140328   3.900   3.851   0.713 -1.1041  0.4535 -0.4366
 6279TIP3    H240329   3.812   3.937   0.801  0.3950  1.2115  0.3609
 6280TIP3   OH240330   4.260   2.211  15.088  0.8003  0.0971 -0.1117
 6280TIP3    H140331   4.251   2.177  15.177  0.6220 -0.1467 -0.2225
 6280TIP3    H240332   4.270   2.306  15.099 -1.9219  0.4420  0.0395
 6281TIP3   OH240333   2.452   6.075   5.655 -0.4296 -0.1929  0.3297
 6281TIP3    H140334   2.523   6.083   5.718  0.2765 -0.2890 -0.4332
 6281TIP3    H240335   2.415   5.988   5.671  0.3129 -0.5698  0.0452
 6282TIP3   OH240336   6.260   5.852   4.627 -0.0064 -0.4238  0.1893
 6282TIP3    H140337   6.330   5.788   4.641  1.1168  1.1342  2.3355
 6282TIP3    H240338   6.181   5.809   4.659  0.8701 -0.5185  2.4267
 6283TIP3   OH240339   2.449   4.454   4.318 -0.2467 -0.0004 -0.4822
 6283TIP3    H140340   2.389   4.460   4.392  0.4493  1.3772 -0.0070
 6283TIP3    H240341   2.531   4.422   4.355 -0.6533 -1.9612 -1.1447
 6284TIP3   OH240342   2.392   5.642   2.682  0.4851 -0.7727  0.4145
 6284TIP3    H140343   2.302   5.665   2.662  1.0886 -0.7964 -2.7760
 6284TIP3    H240344   2.420   5.710   2.744 -0.4697  1.9217 -1.8968
 6285TIP3   OH240345   4.635   2.281  11.823 -0.0892 -0.1966  0.2214
 6285TIP3    H140346   4.656   2.358  11.771 -1.3163  0.8812  1.2444
 6285TIP3    H240347   4.605   2.216  11.759 -0.6436  0.7550 -0.5127
 6286TIP3   OH240348   3.498   4.327  16.192 -0.2832  0.2075 -0.3749
 6286TIP3    H140349   3.419   4.374  16.168  0.5820  1.9569  0.0137
 6286TIP3    H240350   3.553   4.393  16.234  0.6807 -1.3545  0.9345
 6287TIP3   OH240351   6.659   6.617   4.655  0.2021  0.1006  0.7267
 6287TIP3    H140352   6.617   6.537   4.622  2.5161 -0.2715 -1.6356
 6287TIP3    H240353   6.592   6.658   4.711 -1.7822 -2.4152  0.3927
 6288TIP3   OH240354   1.450   2.049   0.551 -0.1354 -0.4734  0.7628
 6288TIP3    H140355   1.387   2.024   0.483  2.5444  0.7799 -2.4599
 6288TIP3    H240356   1.526   1.994   0.534  1.7375  1.9811  0.6696
 6289TIP3   OH240357   0.473   1.495   1.278  0.1062  0.0429 -0.0729
 6289TIP3    H140358   0.482   1.405   1.248 -0.1556  0.1507 -0.4861
 6289TIP3    H240359   0.538   1.544   1.227 -1.1589  0.4318 -1.3819
 6290TIP3   OH240360   2.056   2.201  15.511 -0.3751  0.4827 -1.0137
 6290TIP3    H140361   1.993   2.169  15.575 -1.4364  1.1173 -1.6996
 6290TIP3    H240362   2.141   2.171  15.543 -0.8551  0.8579  0.7197
 6291TIP3   OH240363   5.689   3.779  16.510  0.2100 -0.0115 -0.5438
 6291TIP3    H140364   5.747   3.717  16.555 -0.7336 -1.1515 -0.8512
 6291TIP3    H240365   5.650   3.831  16.580  0.1396 -0.5444 -0.1805
 6292TIP3   OH240366   1.739   2.005  11.052 -0.1172  0.1125 -0.3845
 6292TIP3    H140367   1.665   1.969  11.002  0.7523 -1.2532 -0.7534
 6292TIP3    H240368   1.782   2.065  10.991  1.1942 -1.8643 -1.5501
 6293TIP3   OH240369   5.318   1.065   4.942  0.0542 -0.4535 -0.0414
 6293TIP3    H140370   5.243   1.063   4.883  0.1718  2.3531 -0.4536
 6293TIP3    H240371   5.290   1.119   5.015  1.2797 -0.3559  0.3838
 6294TIP3   OH240372   0.797   1.966  13.537 -0.1248  0.9782 -0.0335
 6294TIP3    H140373   0.708   1.985  13.507 -0.0858  1.2381  0.0131
 6294TIP3    H240374   0.850   1.967  13.458 -0.2044  0.5830 -0.0914
 6295TIP3   OH240375   5.877   0.803   5.591 -0.0331  0.2054  0.1519
 6295TIP3    H140376   5.910   0.747   5.662  0.8713  0.5730  0.0449
 6295TIP3    H240377   5.790   0.830   5.620 -0.6773 -1.5989 -0.0049
 6296TIP3   OH240378   1.401   3.512   2.957 -0.0512 -0.0225  0.2102
 6296TIP3    H140379   1.350   3.432   2.972 -2.1847  0.9240 -1.3849
 6296TIP3    H240380   1.415   3.548   3.044  0.6617 -1.9108  0.9391
 6297TIP3   OH240381   6.109   0.848   0.681 -0.0484  0.7306  0.7482
 6297TIP3    H140382   6.134   0.756   0.691  0.8585  0.7436 -0.9848
 6297TIP3    H240383   6.014   0.849   0.693  0.0196 -0.3012  1.5307
 6298TIP3   OH240384   4.421   3.141   0.187  0.3832 -0.4281  0.0144
 6298TIP3    H140385   4.466   3.074   0.238  0.6395 -1.1089 -1.0905
 6298TIP3    H240386   4.467   3.223   0.209  0.5124 -0.7132  0.8303
 6299TIP3   OH240387   2.712   3.478   6.149  0.0894  0.5260 -0.1728
 6299TIP3    H140388   2.741   3.405   6.203  0.6341 -0.1741 -1.3887
 6299TIP3    H240389   2.754   3.555   6.188  1.3188 -0.1019 -0.2374
 6300TIP3   OH240390   4.761   5.117  14.669 -0.6870  0.5714 -0.1813
 6300TIP3    H140391   4.727   5.193  14.718  0.1866  0.9257 -0.0981
 6300TIP3    H240392   4.794   5.154  14.587 -1.3873  0.0969 -0.6806
 6301TIP3   OH240393   2.185   5.441  13.470 -0.3589  0.0425 -0.6745
 6301TIP3    H140394   2.117   5.392  13.517  0.5104 -1.3501 -0.8331
 6301TIP3    H240395   2.167   5.424  13.378  1.4170 -2.1211 -0.7010
 6302TIP3   OH240396   2.954   5.316  15.712  0.0998 -0.0111 -0.2657
 6302TIP3    H140397   2.953   5.252  15.640  1.2894  1.0285 -1.2539
 6302TIP3    H240398   3.044   5.350  15.713 -1.0123  3.4017 -1.4295
 6303TIP3   OH240399   3.203   6.222   0.642 -1.0025 -0.4481  0.4431
 6303TIP3    H140400   3.127   6.172   0.671 -0.0338 -1.2658  1.6646
 6303TIP3    H240401   3.221   6.283   0.714 -0.5330 -0.2238  0.1457
 6304TIP3   OH240402   2.197   0.163   2.996  0.5046 -0.2625  0.1161
 6304TIP3    H140403   2.208   0.194   2.906  2.0472  2.7166  1.1834
 6304TIP3    H240404   2.237   0.076   2.997 -0.0783 -0.6000 -2.1686
 6305TIP3   OH240405   4.821   0.331  13.540 -0.2638 -0.2708 -0.6272
 6305TIP3    H140406   4.891   0.375  13.590 -1.5655 -1.2401  2.3048
 6305TIP3    H240407   4.862   0.252  13.507  0.4964  0.0581 -0.5053
 6306TIP3   OH240408   1.872   4.014   4.413  0.2305 -0.8998 -0.3455
 6306TIP3    H140409   1.790   3.972   4.439 -0.6318  1.3104  0.7454
 6306TIP3    H240410   1.939   3.976   4.470 -0.3580 -1.3844  0.0252
 6307TIP3   OH240411   4.969   0.443  16.582  0.0987 -0.9237  0.2169
 6307TIP3    H140412   4.985   0.535  16.560  0.2924 -0.9594  0.2042
 6307TIP3    H240413   4.902   0.446  16.651 -0.2346 -0.7954 -0.1114
 6308TIP3   OH240414   4.711   0.263  12.384  0.1874  0.7225  0.3553
 6308TIP3    H140415   4.763   0.209  12.443  0.2990  1.8019  1.2854
 6308TIP3    H240416   4.667   0.326  12.442  0.7574  2.1923 -0.7270
 6309TIP3   OH240417   6.028   0.054   2.817  0.0525 -0.0553  0.7374
 6309TIP3    H140418   5.934   0.059   2.802  0.2913  0.8793 -0.7337
 6309TIP3    H240419   6.044  -0.036   2.845 -1.2837 -0.1768  1.1712
 6310TIP3   OH240420   0.176   5.899  13.683 -0.1273 -0.0092 -0.1379
 6310TIP3    H140421   0.188   5.924  13.591 -1.4562 -1.1088 -0.6486
 6310TIP3    H240422   0.131   5.974  13.722 -1.9610 -0.5427 -1.0774
 6311TIP3   OH240423   2.742   5.873  10.531 -0.2079  0.7125 -0.2878
 6311TIP3    H140424   2.762   5.787  10.495  0.6925  1.3242 -1.3203
 6311TIP3    H240425   2.659   5.861  10.577  0.1397 -0.8034 -0.0088
 6312TIP3   OH240426   1.257   0.913   1.781 -0.2962 -0.1621 -0.6400
 6312TIP3    H140427   1.351   0.916   1.767 -0.5767  1.6211 -2.6206
 6312TIP3    H240428   1.222   0.983   1.726 -2.7298 -0.3383  0.5479
 6313TIP3   OH240429   6.599   2.358   3.603  0.6370 -0.1814  0.2188
 6313TIP3    H140430   6.577   2.287   3.542 -3.6168  1.2424 -0.2416
 6313TIP3    H240431   6.599   2.316   3.689 -2.7257 -0.8023  0.0659
 6314TIP3   OH240432   3.898   5.647   5.675 -0.3731 -0.8856  0.2912
 6314TIP3    H140433   3.930   5.622   5.762 -0.5742 -0.9498  0.3485
 6314TIP3    H240434   3.821   5.592   5.662 -0.0644 -1.2236 -0.1332
 6315TIP3   OH240435   0.622   0.553  13.564  0.3109 -0.2388 -0.1019
 6315TIP3    H140436   0.557   0.505  13.615  1.2350  0.2476  1.6008
 6315TIP3    H240437   0.599   0.536  13.473 -1.6408 -0.8066  0.4681
 6316TIP3   OH240438   1.237   5.282   5.302  0.1659 -0.5860  0.2718
 6316TIP3    H140439   1.266   5.302   5.213  0.3150  3.1909  1.0218
 6316TIP3    H240440   1.178   5.207   5.291 -0.3134  0.1062 -3.1010
 6317TIP3   OH240441   3.053   0.625   3.898  1.0800  0.1519 -0.1213
 6317TIP3    H140442   2.993   0.682   3.947 -2.6205 -2.5094 -1.1507
 6317TIP3    H240443   3.022   0.631   3.808  2.2545 -1.5278 -0.6698
 6318TIP3   OH240444   0.615   0.077  13.898 -0.0704  0.0499 -0.0905
 6318TIP3    H140445   0.560   0.155  13.911 -0.1600 -0.2872  1.8392
 6318TIP3    H240446   0.662   0.094  13.817 -0.8549  1.6555 -0.2469
 6319TIP3   OH240447   2.239   0.587  11.958  0.1689 -0.2895  0.0272
 6319TIP3    H140448   2.171   0.520  11.948  0.2797 -0.5445  0.9604
 6319TIP3    H240449   2.311   0.555  11.903  0.2915 -1.0420  0.6014
 6320TIP3   OH240450   6.321   1.742   3.002 -0.4535  0.0427 -0.5161
 6320TIP3    H140451   6.345   1.730   2.911  1.5487 -2.2917  0.1902
 6320TIP3    H240452   6.228   1.762   3.001 -1.0820 -2.4237 -2.9929
 6321TIP3   OH240453   0.425   2.468   3.718  0.3989  0.0537 -0.1152
 6321TIP3    H140454   0.342   2.427   3.744  0.7695  0.6300  2.2243
 6321TIP3    H240455   0.450   2.424   3.637 -2.0156 -0.3626 -0.7135
 6322TIP3   OH240456   1.903   5.815  12.693 -0.1411 -0.1118  0.0843
 6322TIP3    H140457   1.919   5.892  12.640 -2.4390 -0.1011 -0.7427
 6322TIP3    H240458   1.933   5.838  12.780  0.6981  1.0910 -0.5039
 6323TIP3   OH240459   0.842   6.300  15.309 -0.0899  0.3010 -0.1127
 6323TIP3    H140460   0.770   6.262  15.258  0.0310  3.6815 -3.2146
 6323TIP3    H240461   0.815   6.288  15.401 -3.8022 -0.0542 -1.0837
 6324TIP3   OH240462   3.908   5.327  16.076  0.4274 -0.0722 -0.1469
 6324TIP3    H140463   3.917   5.404  16.133  0.0886  0.6488 -1.0485
 6324TIP3    H240464   3.998   5.309  16.047  0.4015  0.5186 -0.6131
 6325TIP3   OH240465   4.654   3.424   1.459  0.0863 -0.3501  0.3560
 6325TIP3    H140466   4.596   3.360   1.502 -0.2407  0.0208  0.4689
 6325TIP3    H240467   4.672   3.386   1.373 -2.7139  0.8583 -0.8842
 6326TIP3   OH240468   5.282   1.724   1.651  0.3330 -0.3322  0.0227
 6326TIP3    H140469   5.194   1.760   1.637 -0.9103 -3.4209 -1.0915
 6326TIP3    H240470   5.325   1.734   1.566 -0.1934 -1.7443 -0.4421
 6327TIP3   OH240471   3.998   6.568  15.356  0.2827 -0.2053  0.5997
 6327TIP3    H140472   3.910   6.604  15.370  0.7839  0.9324  0.9624
 6327TIP3    H240473   4.036   6.624  15.288  0.5435 -1.0173  0.0662
 6328TIP3   OH240474   2.871   4.030  15.631  0.1170 -0.3576  0.0447
 6328TIP3    H140475   2.911   3.943  15.621 -0.4168 -0.6028 -0.0116
 6328TIP3    H240476   2.824   4.025  15.714  0.3945  0.0048  0.2237
 6329TIP3   OH240477   0.933   4.931  16.831  0.0818 -0.0970  0.9387
 6329TIP3    H140478   0.986   5.000  16.870 -0.3696  0.8345 -0.0431
 6329TIP3    H240479   0.967   4.921  16.742  0.3935 -1.4196  1.1966
 6330TIP3   OH240480   1.515   0.601  14.957  0.4301 -0.5192 -0.1974
 6330TIP3    H140481   1.576   0.661  15.000  1.6149  0.9081 -3.4560
 6330TIP3    H240482   1.434   0.608  15.007  1.3687  1.7633  1.1569
 6331TIP3   OH240483   5.422   2.822  13.643 -1.0289  0.0156  0.1230
 6331TIP3    H140484   5.395   2.790  13.729 -1.2896 -0.2242 -0.0436
 6331TIP3    H240485   5.367   2.773  13.581 -0.9260  0.2692 -0.1729
 6332TIP3   OH240486   1.614   3.570   0.746  0.4262  0.1494  0.0698
 6332TIP3    H140487   1.531   3.524   0.738  0.2148  0.6788 -0.8372
 6332TIP3    H240488   1.670   3.531   0.679  0.9228 -0.2225  0.6935
 6333TIP3   OH240489   1.202   3.802  14.795  0.3618  0.1694 -0.3129
 6333TIP3    H140490   1.233   3.719  14.760  1.4615  0.7488 -0.7591
 6333TIP3    H240491   1.275   3.862  14.782 -0.5641  1.3151 -0.3746
 6334TIP3   OH240492   4.056   6.141   4.875  0.2509 -0.1032 -0.2069
 6334TIP3    H140493   4.103   6.170   4.797 -0.4739 -1.5392 -1.2280
 6334TIP3    H240494   4.048   6.046   4.864 -1.9644 -0.0501  0.4195
 6335TIP3   OH240495   5.651   0.321  14.118 -0.6874 -0.2814 -0.4638
 6335TIP3    H140496   5.646   0.227  14.101  1.0852 -0.8958  1.9387
 6335TIP3    H240497   5.587   0.336  14.188 -1.9367  0.6213 -1.7373
 6336TIP3   OH240498   0.809   5.424   1.269  0.1800 -0.6215  0.4257
 6336TIP3    H140499   0.826   5.475   1.347 -0.1693 -0.9213  0.7061
 6336TIP3    H240500   0.883   5.441   1.212  0.0021  0.3065  0.4504
 6337TIP3   OH240501   4.235   4.138   0.382 -0.2274 -0.4916 -0.0510
 6337TIP3    H140502   4.169   4.122   0.449 -1.0615 -0.9519 -0.9513
 6337TIP3    H240503   4.277   4.219   0.409 -0.8910 -0.4026  0.7628
 6338TIP3   OH240504   1.174   0.179  15.768  0.0566  0.1899 -0.2914
 6338TIP3    H140505   1.146   0.158  15.679  0.1458  0.1151 -0.3029
 6338TIP3    H240506   1.265   0.150  15.772  0.1184  0.3881 -0.2410
 6339TIP3   OH240507   5.648   0.585   6.268 -0.4192 -0.3247  0.3374
 6339TIP3    H140508   5.691   0.553   6.188 -2.8162  0.5734 -1.4337
 6339TIP3    H240509   5.604   0.509   6.303 -0.9792 -0.3289 -0.3461
 6340TIP3   OH240510   4.594   2.679   3.715 -0.2028  0.2101 -0.3481
 6340TIP3    H140511   4.550   2.624   3.651 -2.2294  0.8161  0.4425
 6340TIP3    H240512   4.677   2.634   3.733 -0.3675 -0.8546 -2.0739
 6341TIP3   OH240513   4.768   6.739   2.093  0.4022 -0.4407 -0.6876
 6341TIP3    H140514   4.858   6.721   2.067  0.7268 -0.1414  0.1841
 6341TIP3    H240515   4.719   6.661   2.066  0.3071  0.5817 -3.8776
 6342TIP3   OH240516   6.199   1.486   6.294 -0.0669  0.0536 -0.3999
 6342TIP3    H140517   6.114   1.443   6.283  0.4111 -1.6004  1.7382
 6342TIP3    H240518   6.178   1.573   6.329 -0.8831 -0.3845  0.2291
 6343TIP3   OH240519   5.242   5.529   3.403  0.0275  0.0799 -0.8591
 6343TIP3    H140520   5.315   5.468   3.396  1.3090  1.6712 -2.2500
 6343TIP3    H240521   5.200   5.527   3.317  1.0390  2.2173 -1.4596
 6344TIP3   OH240522   1.112   2.770   5.469 -0.3654  0.3653 -0.2860
 6344TIP3    H140523   1.104   2.767   5.564 -2.3195  1.5512 -0.3581
 6344TIP3    H240524   1.030   2.734   5.436 -0.0550  0.6986 -1.5051
 6345TIP3   OH240525   6.574   1.311   1.097 -0.3035  0.2470  0.2110
 6345TIP3    H140526   6.650   1.366   1.119 -0.5512  0.4156  0.6598
 6345TIP3    H240527   6.500   1.371   1.102 -0.6633 -0.2741  1.3845
 6346TIP3   OH240528   0.804   6.544  15.094 -0.1041  0.0799 -0.2794
 6346TIP3    H140529   0.770   6.622  15.137  1.7144  1.6145 -1.4789
 6346TIP3    H240530   0.868   6.508  15.155  1.2486  1.2894 -0.9479
 6347TIP3   OH240531   0.654   4.370   5.789 -0.0884 -0.1976  0.0125
 6347TIP3    H140532   0.740   4.349   5.825  0.1446 -0.4179 -0.6487
 6347TIP3    H240533   0.616   4.432   5.851  0.1970 -0.7526  0.7547
 6348TIP3   OH240534   2.397   0.486   5.734 -0.0006 -0.5301 -0.1662
 6348TIP3    H140535   2.446   0.407   5.758  2.6546  0.0493 -3.0343
 6348TIP3    H240536   2.453   0.558   5.764 -0.6674  0.2261 -0.7195
 6349TIP3   OH240537   0.882   2.914  12.232  0.1649  0.1088  0.3388
 6349TIP3    H140538   0.811   2.850  12.241 -1.3837  1.9991  2.8544
 6349TIP3    H240539   0.840   2.998  12.249  2.4852  1.6436 -1.0470
 6350TIP3   OH240540   4.215   6.451   3.996 -0.2479 -0.4763 -0.2994
 6350TIP3    H140541   4.174   6.537   3.991  0.9100  0.0371 -1.9299
 6350TIP3    H240542   4.179   6.403   3.921  0.1434 -0.9123 -0.2157
 6351TIP3   OH240543   0.026   1.407  15.168  0.1735 -0.1939 -0.4851
 6351TIP3    H140544  -0.036   1.335  15.151 -0.6177  0.5572 -0.8599
 6351TIP3    H240545  -0.004   1.478  15.111  1.6477  0.0517 -1.0087
 6352TIP3   OH240546   6.549   4.435  14.063 -0.1597  0.6591 -0.0624
 6352TIP3    H140547   6.584   4.367  14.007  1.3738 -0.3379  1.9720
 6352TIP3    H240548   6.622   4.496  14.076 -0.4068  0.7764  0.9221
 6353TIP3   OH240549   0.483   1.741  14.922 -0.1349 -0.3915  0.0140
 6353TIP3    H140550   0.576   1.725  14.941  0.5419  2.1180 -0.7384
 6353TIP3    H240551   0.438   1.718  15.003  1.3716 -0.0436  1.0037
 6354TIP3   OH240552   0.850   5.880  15.503 -0.0610 -0.0358 -0.0864
 6354TIP3    H140553   0.939   5.849  15.522  0.5525  2.0594  0.6662
 6354TIP3    H240554   0.857   5.921  15.417 -0.3567 -0.0507 -0.1171
 6355TIP3   OH240555   2.363   5.694  14.857  0.1517 -0.1500  0.5439
 6355TIP3    H140556   2.302   5.630  14.894 -0.2314 -1.4859 -2.1558
 6355TIP3    H240557   2.429   5.641  14.811 -0.3005  1.3212 -1.9992
 6356TIP3   OH240558   6.688   6.112  14.698 -0.5605 -0.3877 -0.0136
 6356TIP3    H140559   6.759   6.100  14.635 -2.2873 -0.9593 -1.9554
 6356TIP3    H240560   6.732   6.113  14.783  2.0024  1.3664 -1.2002
 6357TIP3   OH240561   4.902   6.254  12.322  0.8203  0.6933 -0.3112
 6357TIP3    H140562   4.892   6.168  12.281 -0.4012  1.1880 -1.1217
 6357TIP3    H240563   4.929   6.235  12.412 -1.1670 -0.6490  0.0766
 6358TIP3   OH240564   4.995   3.650   5.217  0.7025 -0.3204 -0.8682
 6358TIP3    H140565   4.916   3.632   5.166 -0.2204  0.5207  0.2281
 6358TIP3    H240566   5.002   3.575   5.277 -1.2096  1.1442  1.3394
 6359TIP3   OH240567   0.390   0.756  15.157  0.3977  0.0055 -0.1301
 6359TIP3    H140568   0.333   0.682  15.135  1.0223  0.0998 -2.2046
 6359TIP3    H240569   0.476   0.716  15.170  0.6591  0.3293 -0.8857
 6360TIP3   OH240570   3.397   2.500  13.400  0.0766 -0.2385  0.2757
 6360TIP3    H140571   3.388   2.513  13.305  2.9969 -0.8000 -0.1901
 6360TIP3    H240572   3.359   2.413  13.416 -0.5293 -0.0984 -0.3481
 6361TIP3   OH240573   5.613   3.970  15.644  0.0580 -0.5935  0.0869
 6361TIP3    H140574   5.655   3.947  15.561 -1.8486  0.5453 -1.3025
 6361TIP3    H240575   5.672   4.034  15.684 -0.0599  0.6653 -1.6084
 6362TIP3   OH240576   6.619   4.611  13.817 -0.0699 -0.2603  0.2575
 6362TIP3    H140577   6.566   4.586  13.741 -0.6436  1.2169  0.1349
 6362TIP3    H240578   6.703   4.637  13.780 -0.0937 -0.2606  0.2027
 6363TIP3   OH240579   0.020   5.442   1.000 -0.3063  0.4324 -0.1349
 6363TIP3    H140580  -0.073   5.457   0.988 -0.4619 -1.9572 -2.7122
 6363TIP3    H240581   0.025   5.370   1.063 -0.0479  1.9031  1.6070
 6364TIP3   OH240582   1.491   5.388   6.345  0.2939 -0.2869  0.3061
 6364TIP3    H140583   1.586   5.379   6.358 -0.0167 -2.1915  1.7524
 6364TIP3    H240584   1.456   5.403   6.433 -0.7293  0.7556 -0.2573
 6365TIP3   OH240585   4.547   5.758   0.374  0.6075  0.1995 -0.1337
 6365TIP3    H140586   4.572   5.673   0.411 -1.2654 -1.1537 -1.7611
 6365TIP3    H240587   4.588   5.760   0.288 -0.4283  0.3115 -0.6451
 6366TIP3   OH240588   4.395   0.165  14.978 -0.1317 -0.2423  0.4884
 6366TIP3    H140589   4.303   0.170  14.950  0.6670 -1.1538 -2.7544
 6366TIP3    H240590   4.416   0.072  14.975  1.0166 -0.0028  0.7345
 6367TIP3   OH240591   2.650   5.587   3.764  0.6298 -0.3160 -0.8120
 6367TIP3    H140592   2.606   5.509   3.800  0.7172 -0.6266 -1.3665
 6367TIP3    H240593   2.670   5.640   3.841 -1.6254  0.3392 -0.5943
 6368TIP3   OH240594   4.619   3.633  11.364 -0.7787  0.0563 -0.3500
 6368TIP3    H140595   4.626   3.539  11.383 -0.1099  0.2465  0.3895
 6368TIP3    H240596   4.533   3.643  11.324 -0.9928 -0.8246 -0.1297
 6369TIP3   OH240597   5.353   3.658   0.749  0.1657  0.8650  0.0601
 6369TIP3    H140598   5.286   3.592   0.767  0.4241  0.1901 -1.3032
 6369TIP3    H240599   5.304   3.737   0.729 -0.2558  0.3319 -1.0940
 6370TIP3   OH240600   3.310   4.731   5.394 -0.8953 -0.1928  0.4921
 6370TIP3    H140601   3.394   4.692   5.419 -1.1272 -0.4538  0.8797
 6370TIP3    H240602   3.311   4.818   5.435 -0.4196  0.1820 -0.2896
 6371TIP3   OH240603   3.939   2.503   1.884  0.2817 -0.1910 -0.0901
 6371TIP3    H140604   3.913   2.447   1.957 -2.5327 -0.6931 -1.3512
 6371TIP3    H240605   4.026   2.471   1.859  1.4172  0.0910  3.0215
 6372TIP3   OH240606   1.534   0.993  12.239 -0.0324  0.3181  0.2836
 6372TIP3    H140607   1.608   1.009  12.180 -0.9505  1.1050 -0.6933
 6372TIP3    H240608   1.481   0.927  12.193 -1.6904  2.2213 -0.7119
 6373TIP3   OH240609   5.759   3.410  12.007  0.3203  0.2975  0.1895
 6373TIP3    H140610   5.686   3.466  12.035  0.8470  0.5117  1.1805
 6373TIP3    H240611   5.759   3.338  12.071  1.3489  0.6242  0.5740
 6374TIP3   OH240612   2.619   1.997   4.521 -0.3756  0.2352  0.0839
 6374TIP3    H140613   2.559   1.945   4.469 -1.0196  0.2511  0.7975
 6374TIP3    H240614   2.563   2.060   4.567  0.3848  1.6848 -0.8682
 6375TIP3   OH240615   3.504   2.007  14.094  0.2971  0.4618  0.4388
 6375TIP3    H140616   3.545   2.090  14.116 -2.1352  2.0788 -0.6106
 6375TIP3    H240617   3.417   2.012  14.134 -0.4749 -0.8975 -0.9664
 6376TIP3   OH240618   2.467   6.437   1.680  0.1420 -0.4192 -0.0068
 6376TIP3    H140619   2.427   6.437   1.593  1.0118 -2.7527 -0.4950
 6376TIP3    H240620   2.560   6.453   1.664 -0.0022  1.4938  0.7766
 6377TIP3   OH240621   2.019   4.851   4.281  0.2192 -0.2524 -0.0472
 6377TIP3    H140622   2.025   4.755   4.276  0.1251 -0.3222  0.9219
 6377TIP3    H240623   2.097   4.877   4.330  0.9015  0.2975 -1.3741
 6378TIP3   OH240624   4.225   5.971   1.244 -0.1490 -0.0194 -0.4440
 6378TIP3    H140625   4.260   5.919   1.172 -0.3211  0.0440 -0.5754
 6378TIP3    H240626   4.284   6.046   1.251 -0.6259  0.4275 -1.0971
 6379TIP3   OH240627   1.495   3.027   2.203  0.0757 -0.1964  0.0542
 6379TIP3    H140628   1.489   3.094   2.135  1.7317 -0.4659 -0.4056
 6379TIP3    H240629   1.448   3.064   2.278  1.5136  1.7824  0.0436
 6380TIP3   OH240630   4.485   6.457   1.721  0.1390 -0.1744 -0.2634
 6380TIP3    H140631   4.484   6.393   1.792 -1.4140 -0.0862 -0.1660
 6380TIP3    H240632   4.437   6.533   1.756 -0.2844  0.0335 -1.2475
 6381TIP3   OH240633   4.940   3.949   1.413 -0.6613 -0.2275  0.1294
 6381TIP3    H140634   4.971   3.920   1.499  0.7354 -0.2028 -0.3378
 6381TIP3    H240635   4.960   3.877   1.354  0.5564  0.6665 -0.5838
 6382TIP3   OH240636   4.002   5.003  11.688  0.0196  0.4038  0.2544
 6382TIP3    H140637   3.946   4.975  11.616  0.7550  0.6242 -0.4223
 6382TIP3    H240638   4.074   5.050  11.645 -0.0425  1.3949  1.1965
 6383TIP3   OH240639   6.182   2.426   2.282  0.4051 -0.3507  0.1060
 6383TIP3    H140640   6.205   2.476   2.360  0.9228 -0.9175  0.3184
 6383TIP3    H240641   6.224   2.473   2.210  0.3960 -0.1474  0.2332
 6384TIP3   OH240642   3.277   2.158  13.920 -0.0065  0.1104  0.3870
 6384TIP3    H140643   3.252   2.161  13.828 -1.2396 -1.5693  0.6174
 6384TIP3    H240644   3.304   2.247  13.941 -3.6012  1.5547 -0.5484
 6385TIP3   OH240645   4.031   0.992  15.208 -0.5835 -0.0001  0.0454
 6385TIP3    H140646   3.986   0.909  15.189 -2.3996  0.9250  0.0258
 6385TIP3    H240647   4.001   1.050  15.138  0.6481  0.6877  0.0819
 6386TIP3   OH240648   3.783   4.678  14.101 -0.2588 -0.4238 -0.4662
 6386TIP3    H140649   3.799   4.672  14.195  1.3799 -0.2877 -0.6988
 6386TIP3    H240650   3.732   4.600  14.080 -1.6979  0.1438  0.7074
 6387TIP3   OH240651   6.724   6.717  11.609  0.4727  0.1871 -0.0269
 6387TIP3    H140652   6.721   6.660  11.687 -0.4431  0.2893  0.0205
 6387TIP3    H240653   6.658   6.681  11.551  1.1769  0.0964 -0.7845
 6388TIP3   OH240654   5.262   1.747  16.215 -0.6788  0.1830  0.7012
 6388TIP3    H140655   5.223   1.661  16.204  0.5584 -0.5262  1.5790
 6388TIP3    H240656   5.233   1.775  16.303 -2.7365  1.6053 -0.3358
 6389TIP3   OH240657   0.040   3.704   2.199 -0.3358  0.4740 -0.3445
 6389TIP3    H140658  -0.015   3.702   2.120  0.5124  3.0297 -1.1032
 6389TIP3    H240659  -0.017   3.671   2.268 -1.3158 -1.2558 -1.8703
 6390TIP3   OH240660   4.463   6.242   4.258 -0.4847 -0.1257  0.0181
 6390TIP3    H140661   4.556   6.221   4.248 -0.7238 -0.5653 -1.6455
 6390TIP3    H240662   4.457   6.334   4.234 -0.5623 -0.2931 -0.6432
 6391TIP3   OH240663   5.185   2.832  14.965  0.0225 -0.2189 -0.2988
 6391TIP3    H140664   5.232   2.913  14.985  0.0133 -0.0875 -0.7871
 6391TIP3    H240665   5.168   2.792  15.050 -2.8390  1.8945  0.2634
 6392TIP3   OH240666   4.384   4.044  13.139  0.1643  0.0579 -0.1976
 6392TIP3    H140667   4.356   4.066  13.228 -0.0729  0.4495 -0.3686
 6392TIP3    H240668   4.396   4.128  13.096 -0.2499 -0.1370 -0.7001
 6393TIP3   OH240669   2.005   2.436  15.403 -0.1782  0.4063 -0.1951
 6393TIP3    H140670   2.050   2.362  15.445  0.7248  1.0491 -0.0065
 6393TIP3    H240671   1.912   2.412  15.408  0.1452 -1.2518 -1.1889
 6394TIP3   OH240672   4.749   5.359   2.856 -0.0342  0.3457  0.4905
 6394TIP3    H140673   4.761   5.267   2.835 -3.3447  0.2456 -1.7717
 6394TIP3    H240674   4.668   5.362   2.907 -0.3321  2.0283  0.0049
 6395TIP3   OH240675   4.938   6.209   1.222 -1.1504  0.2755 -0.2025
 6395TIP3    H140676   4.970   6.232   1.309 -3.2211  0.3557  0.5957
 6395TIP3    H240677   4.981   6.126   1.202  0.1435  0.7652  0.4199
 6396TIP3   OH240678   5.196   5.472   0.040  0.3041 -0.5684  0.2065
 6396TIP3    H140679   5.245   5.486   0.121  0.1476 -1.2991  0.4397
 6396TIP3    H240680   5.204   5.554  -0.009 -0.7847  0.4043  1.5827
 6397TIP3   OH240681   0.550   1.064   5.804  0.1938 -0.2877 -0.0261
 6397TIP3    H140682   0.591   0.987   5.764 -0.4664 -1.2710  1.0923
 6397TIP3    H240683   0.621   1.110   5.848  0.3852 -1.0591  0.4877
 6398TIP3   OH240684   2.207   4.730  13.435 -0.6225  0.3594  0.4033
 6398TIP3    H140685   2.199   4.749  13.341 -0.1412  0.6723  0.4173
 6398TIP3    H240686   2.260   4.650  13.438 -1.6199 -0.3140  0.3801
 6399TIP3   OH240687   0.380   3.063   1.126 -0.3010  0.1925 -0.3495
 6399TIP3    H140688   0.338   3.144   1.156  0.0703  0.3161 -0.1614
 6399TIP3    H240689   0.448   3.093   1.065 -1.3908 -0.0804 -1.7377
 6400TIP3   OH240690   6.057   5.744   6.171  0.4502  0.0074  0.6742
 6400TIP3    H140691   6.111   5.700   6.237  1.5880  2.1489  1.2525
 6400TIP3    H240692   5.969   5.744   6.209  0.4900 -1.3636  0.8278
 6401TIP3   OH240693   4.110   6.660   4.297  0.5285  0.3378  0.3481
 6401TIP3    H140694   4.202   6.679   4.277  1.1320 -2.2123  0.3210
 6401TIP3    H240695   4.064   6.672   4.214  1.2285 -0.3871 -0.1579
 6402TIP3   OH240696   6.611   0.067  16.348  0.1677  0.1048 -0.1052
 6402TIP3    H140697   6.560   0.125  16.405 -1.6386 -1.6696  0.2313
 6402TIP3    H240698   6.688   0.118  16.324  0.2987  1.4678  2.7598
 6403TIP3   OH240699   1.528   6.340  15.987  0.0319 -0.3712  0.6389
 6403TIP3    H140700   1.499   6.333  15.896  1.7478  0.0180  0.0355
 6403TIP3    H240701   1.501   6.258  16.028 -1.6620 -0.1403  0.0794
 6404TIP3   OH240702   6.565   2.956  15.260  0.7809 -0.4983  0.2904
 6404TIP3    H140703   6.566   3.013  15.337  0.3566  0.9204 -0.7156
 6404TIP3    H240704   6.598   2.872  15.292 -0.6101 -0.3558  2.3331
 6405TIP3   OH240705   3.072   6.125  17.201  0.0235 -0.4164 -0.0670
 6405TIP3    H140706   3.148   6.147  17.255  0.9070  0.2422 -1.5370
 6405TIP3    H240707   3.099   6.047  17.152 -0.7445 -0.9553  0.3395
 6406TIP3   OH240708   6.286   4.390   0.789  0.6923 -0.1136  0.0988
 6406TIP3    H140709   6.320   4.314   0.837  1.1078  0.1750  0.2599
 6406TIP3    H240710   6.358   4.453   0.789  0.3423  0.2900 -0.0190
 6407TIP3   OH240711   2.172   5.681   1.378 -0.7059  0.4002  0.7265
 6407TIP3    H140712   2.171   5.631   1.459 -3.5374 -0.3892  0.2982
 6407TIP3    H240713   2.099   5.646   1.327 -0.2814  2.2555 -1.3029
 6408TIP3   OH240714   5.647   5.298  16.422  0.4647  0.3893 -0.6600
 6408TIP3    H140715   5.564   5.342  16.409 -0.6309 -0.8199  1.5773
 6408TIP3    H240716   5.707   5.367  16.450 -0.6788  0.8447  0.8381
 6409TIP3   OH240717   5.866   2.336  11.557  0.1037  0.4525 -0.8065
 6409TIP3    H140718   5.802   2.302  11.620  0.6597 -0.1337 -0.5511
 6409TIP3    H240719   5.845   2.292  11.475  0.4643 -0.0923 -0.6123
 6410TIP3   OH240720   6.397   3.710  10.673  0.1170 -0.4265  0.5421
 6410TIP3    H140721   6.331   3.777  10.691  0.3564 -0.3788  1.2446
 6410TIP3    H240722   6.419   3.723  10.580  0.3170  0.6007  0.7226
 6411TIP3   OH240723   3.510   5.512  14.160 -0.0324  0.4864  0.4204
 6411TIP3    H140724   3.540   5.570  14.090  1.2386 -0.7757 -0.1324
 6411TIP3    H240725   3.532   5.424  14.129 -0.5647 -0.1859  1.8791
 6412TIP3   OH240726   3.538   6.807  12.864 -0.2277  0.5985  0.3764
 6412TIP3    H140727   3.511   6.769  12.947 -0.7144  0.9913  0.4050
 6412TIP3    H240728   3.458   6.845  12.828  0.4597  2.7451  0.9629
 6413TIP3   OH240729   1.953   1.075   4.292 -0.2090  0.2407  0.3344
 6413TIP3    H140730   2.016   1.136   4.330 -0.5607  0.5670  0.4004
 6413TIP3    H240731   1.970   0.992   4.337  0.7084  0.1233 -0.2264
 6414TIP3   OH240732   2.561   3.074   2.983 -0.4489 -0.5803 -0.5828
 6414TIP3    H140733   2.508   3.114   3.051  2.2432  0.9568  0.7945
 6414TIP3    H240734   2.590   2.991   3.020  1.8273  0.6975  0.7048
 6415TIP3   OH240735   5.127   0.625   5.751  0.6701  0.2252 -0.4367
 6415TIP3    H140736   5.167   0.667   5.828 -0.4529 -0.3940  0.5240
 6415TIP3    H240737   5.201   0.591   5.701  1.4051  0.1313  0.6783
 6416TIP3   OH240738   4.676   2.236   1.703  0.0034 -0.4433 -1.1024
 6416TIP3    H140739   4.753   2.280   1.740 -0.5569  1.0486 -1.6093
 6416TIP3    H240740   4.707   2.151   1.674  1.1471 -0.4032 -0.0457
 6417TIP3   OH240741   3.606   5.759  11.572 -0.2842 -0.2689 -0.2546
 6417TIP3    H140742   3.524   5.792  11.536 -1.1051 -1.0242  0.8508
 6417TIP3    H240743   3.585   5.735  11.663  0.7208 -2.0687 -0.4459
 6418TIP3   OH240744   0.863   1.449   3.009 -0.0346  0.8544  0.3839
 6418TIP3    H140745   0.857   1.356   2.987  0.9685  1.2440 -1.9019
 6418TIP3    H240746   0.789   1.465   3.068 -0.8777 -1.1604 -0.0398
 6419TIP3   OH240747   2.275   6.280   4.363  0.1813 -0.1178  0.0636
 6419TIP3    H140748   2.236   6.258   4.278  0.8808 -0.1405 -0.2531
 6419TIP3    H240749   2.365   6.305   4.343  0.0191  1.0482  0.6532
 6420TIP3   OH240750   2.404   1.436   1.902  0.0856  0.4134 -0.1951
 6420TIP3    H140751   2.476   1.377   1.927  0.3197  0.9277  0.3868
 6420TIP3    H240752   2.342   1.429   1.974 -0.8160 -0.5789 -1.0313
 6421TIP3   OH240753   3.681   0.205   1.213  0.1789  0.2850 -0.1634
 6421TIP3    H140754   3.716   0.116   1.217 -2.1335 -0.6590  0.9566
 6421TIP3    H240755   3.730   0.253   1.280  0.1926 -0.6227  0.4855
 6422TIP3   OH240756   1.173   1.906  12.010 -0.2187 -0.3423 -0.3966
 6422TIP3    H140757   1.211   1.983  11.970  0.6367 -0.2190  0.6071
 6422TIP3    H240758   1.232   1.884  12.082  0.0276 -2.4257 -1.1471
 6423TIP3   OH240759   1.555   0.992   0.453 -0.1253  0.5092  0.3366
 6423TIP3    H140760   1.574   1.078   0.491 -0.6169  0.3579  0.9361
 6423TIP3    H240761   1.490   0.954   0.511 -0.6950  0.1556 -0.5182
 6424TIP3   OH240762   2.402   3.663  14.371  0.3699  0.2687  0.2736
 6424TIP3    H140763   2.413   3.727  14.441 -0.2699  0.5512  0.1201
 6424TIP3    H240764   2.322   3.690  14.326  0.3808 -0.3358 -0.1156
 6425TIP3   OH240765   2.939   2.195  11.614 -0.2400 -0.9371 -0.5603
 6425TIP3    H140766   2.916   2.104  11.593 -2.4853 -0.3190 -1.0599
 6425TIP3    H240767   2.889   2.247  11.551  0.2965  0.6880  0.3074
 6426TIP3   OH240768   1.861   3.009  12.391 -0.5467 -0.3003 -0.3902
 6426TIP3    H140769   1.863   2.915  12.375  0.6598 -0.0686 -1.8695
 6426TIP3    H240770   1.952   3.037  12.378 -1.3370  1.4520 -2.7611
 6427TIP3   OH240771   6.340   5.659  13.794  0.0209 -0.3152 -0.2683
 6427TIP3    H140772   6.405   5.598  13.828 -0.6099 -0.7633  0.1575
 6427TIP3    H240773   6.304   5.615  13.717  0.1593 -0.1110 -0.4485
 6428TIP3   OH240774   1.518   5.717   2.073 -0.4059  0.1495 -1.0504
 6428TIP3    H140775   1.451   5.784   2.083 -1.0042 -0.3630 -1.5044
 6428TIP3    H240776   1.518   5.671   2.158  0.3014  0.9720 -0.5920
 6429TIP3   OH240777   3.784   0.920   3.942 -0.7251  0.3925  0.8555
 6429TIP3    H140778   3.721   0.943   3.874 -0.6813 -1.3253  0.1810
 6429TIP3    H240779   3.841   0.996   3.950 -1.8080  1.2961  0.2345
 6430TIP3   OH240780   6.765   5.759   1.492  0.3048 -0.0020 -0.2662
 6430TIP3    H140781   6.834   5.716   1.543  0.3350 -0.0126 -0.3160
 6430TIP3    H240782   6.762   5.710   1.409  1.2939  0.9571 -0.8938
 6431TIP3   OH240783   0.159   5.746  12.088  0.4407  0.5581  0.2876
 6431TIP3    H140784   0.168   5.682  12.159  0.5372  0.8065  0.4998
 6431TIP3    H240785   0.081   5.796  12.110 -0.7476 -0.7045 -0.8512
 6432TIP3   OH240786   1.999   5.722   3.462  0.0284 -0.3184 -0.0415
 6432TIP3    H140787   2.020   5.748   3.551  1.0230 -1.8425  0.1965
 6432TIP3    H240788   2.080   5.739   3.413 -0.4685  0.3839 -0.6460
 6433TIP3   OH240789   3.729   2.633   0.365  0.1442  0.2488 -0.0334
 6433TIP3    H140790   3.799   2.609   0.304  0.0219 -0.7621  0.2160
 6433TIP3    H240791   3.775   2.647   0.448 -0.0755 -1.8285  0.4935
 6434TIP3   OH240792   2.427   2.355  12.828 -0.6840  0.8038  0.0931
 6434TIP3    H140793   2.416   2.404  12.747 -1.6248  0.4319 -0.0212
 6434TIP3    H240794   2.347   2.303  12.836 -0.4208  0.5108  1.0399
 6435TIP3   OH240795   4.073   3.929  13.707 -0.0290 -0.0334  0.3727
 6435TIP3    H140796   4.030   3.861  13.758  0.2885  0.3007  1.1011
 6435TIP3    H240797   4.093   3.998  13.771  1.9624 -0.3555  0.1557
 6436TIP3   OH240798   4.044   0.199   2.498 -0.4783  0.5674  0.1400
 6436TIP3    H140799   4.137   0.222   2.493 -0.2154 -0.6143 -1.1216
 6436TIP3    H240800   4.043   0.105   2.480 -2.0301  0.7848 -1.0820
 6437TIP3   OH240801   2.615   4.847  16.871 -0.6204 -0.0221  0.0659
 6437TIP3    H140802   2.707   4.872  16.861 -1.1464  1.4017 -1.7613
 6437TIP3    H240803   2.566   4.929  16.862 -2.0927 -0.6879  1.3622
 6438TIP3   OH240804   6.175   5.705   4.232  0.4040 -0.5703 -0.0376
 6438TIP3    H140805   6.204   5.788   4.270 -0.4968 -0.0806 -0.4025
 6438TIP3    H240806   6.124   5.663   4.302  2.7155 -1.9183  0.9944
 6439TIP3   OH240807   1.289   3.243   1.564  0.1948  0.0315  0.5563
 6439TIP3    H140808   1.229   3.238   1.638 -0.0564 -0.6314  0.3169
 6439TIP3    H240809   1.234   3.221   1.488 -0.1560  3.0608 -0.1843
 6440TIP3   OH240810   6.389   0.144  15.078 -0.8887  0.8052  0.2366
 6440TIP3    H140811   6.352   0.148  15.166 -1.5898  1.1968 -0.0650
 6440TIP3    H240812   6.354   0.063  15.041 -2.5072  1.7934 -0.4908
 6441TIP3   OH240813   6.563   3.788   5.751  0.3250 -0.3101  0.6038
 6441TIP3    H140814   6.517   3.852   5.696  0.2538  0.6810  1.7770
 6441TIP3    H240815   6.648   3.829   5.769  0.3104 -0.5739  1.3016
 6442TIP3   OH240816   6.633   3.580  10.747  1.2843 -0.1800  0.3429
 6442TIP3    H140817   6.549   3.618  10.723  1.7705 -0.6941 -2.5367
 6442TIP3    H240818   6.629   3.571  10.842 -2.5701 -1.6733  0.2134
 6443TIP3   OH240819   0.854   6.305   3.104  0.4395 -0.5115 -0.2443
 6443TIP3    H140820   0.822   6.382   3.058  2.0717 -0.1174 -0.7689
 6443TIP3    H240821   0.864   6.239   3.035  0.1892 -0.8196  0.0128
 6444TIP3   OH240822   5.195   3.437   1.875  0.2300 -0.5724  0.7966
 6444TIP3    H140823   5.106   3.410   1.853 -0.0144 -0.6695  1.8827
 6444TIP3    H240824   5.233   3.363   1.921  0.1357  0.2536  2.2552
 6445TIP3   OH240825   5.211   0.849  12.363 -0.1106  0.8586  0.2093
 6445TIP3    H140826   5.271   0.789  12.408 -0.9353  1.8172  2.7384
 6445TIP3    H240827   5.243   0.936  12.385 -1.1090  1.3741 -0.3111
 6446TIP3   OH240828   4.315   6.653   2.081 -0.0796  0.7773 -0.2779
 6446TIP3    H140829   4.237   6.690   2.122  0.5673 -0.0373  1.7947
 6446TIP3    H240830   4.386   6.711   2.107  0.1979  0.9223 -1.2881
 6447TIP3   OH240831   5.408   1.884   4.698 -0.7218  0.3162 -0.5819
 6447TIP3    H140832   5.383   1.809   4.753 -1.2828 -1.1567 -2.6793
 6447TIP3    H240833   5.503   1.884   4.699 -0.7154 -0.4130 -0.4857
 6448TIP3   OH240834   5.116   5.125  13.513  0.3873  0.1667  0.2700
 6448TIP3    H140835   5.040   5.163  13.469 -0.4745 -0.9066  0.7809
 6448TIP3    H240836   5.186   5.130  13.449 -0.6171 -0.5846 -0.9402
 6449TIP3   OH240837   5.474   5.648  16.626 -0.0023 -0.4585 -0.3300
 6449TIP3    H140838   5.484   5.708  16.553  0.8990 -0.1415  0.0497
 6449TIP3    H240839   5.559   5.646  16.669 -0.1974 -1.5120  0.0472
 6450TIP3   OH240840   2.116   3.050  12.399 -0.5938  0.1896 -0.4635
 6450TIP3    H140841   2.141   3.103  12.475  0.2835 -0.9346  0.0526
 6450TIP3    H240842   2.174   3.079  12.329  0.9319 -1.0773  0.2190
 6451TIP3   OH240843   6.135   2.645  13.841  0.1782 -0.1854  0.1805
 6451TIP3    H140844   6.072   2.713  13.819 -0.4944 -0.3300  1.5525
 6451TIP3    H240845   6.219   2.678  13.810 -0.1555  1.2214  0.7237
 6452TIP3   OH240846   5.544   2.294  12.540  0.1134  0.1790 -0.0307
 6452TIP3    H140847   5.607   2.226  12.563  2.0160  1.2473 -1.6982
 6452TIP3    H240848   5.558   2.363  12.605  1.2101  0.6895 -0.7698
 6453TIP3   OH240849   3.022   2.604  16.310 -0.8249 -0.3272  0.0199
 6453TIP3    H140850   3.071   2.521  16.307  1.4893  0.8523  1.8023
 6453TIP3    H240851   3.010   2.628  16.218  0.9759 -1.2901 -0.5172
 6454TIP3   OH240852   0.311   4.895   1.859 -0.0243 -0.1600 -0.5550
 6454TIP3    H140853   0.254   4.860   1.928  0.7474 -0.9793 -0.3191
 6454TIP3    H240854   0.387   4.837   1.858  0.9051  1.0126 -0.7427
 6455TIP3   OH240855   0.044   4.696  16.219 -0.1077 -0.0815  0.0247
 6455TIP3    H140856   0.003   4.775  16.256 -1.2890 -0.6772  0.0291
 6455TIP3    H240857  -0.027   4.650  16.176  1.3682  1.1039 -4.1165
 6456TIP3   OH240858   1.138   6.202  14.578 -0.1357  0.1478  0.1381
 6456TIP3    H140859   1.164   6.165  14.662 -0.8794  1.2524  0.8807
 6456TIP3    H240860   1.191   6.282  14.569  0.4673 -0.3348 -0.8008
 6457TIP3   OH240861   1.864   6.136   4.234 -0.5531  0.1203  0.0545
 6457TIP3    H140862   1.930   6.157   4.168  1.5911 -0.8907  1.7404
 6457TIP3    H240863   1.842   6.044   4.219 -1.9946  0.5692 -0.7831
 6458TIP3   OH240864   5.686   0.954   1.904  0.2162  0.1843  0.4929
 6458TIP3    H140865   5.740   0.875   1.899 -0.0479  0.0464 -0.4512
 6458TIP3    H240866   5.608   0.926   1.952  0.4339  0.0605  0.7816
 6459TIP3   OH240867   2.443   6.419  11.934  0.5512  0.0765 -0.3369
 6459TIP3    H140868   2.532   6.452  11.948  0.2152  0.3517  1.4069
 6459TIP3    H240869   2.455   6.328  11.906  1.3912  0.4539 -1.2828
 6460TIP3   OH240870   2.553   5.779   4.602 -0.2819  0.0320  0.0151
 6460TIP3    H140871   2.484   5.714   4.610  0.0161 -0.5535 -1.6828
 6460TIP3    H240872   2.564   5.815   4.690  1.1254 -3.7787  1.6036
 6461TIP3   OH240873   0.684   4.762   2.177 -0.2267  0.9366 -0.1993
 6461TIP3    H140874   0.729   4.716   2.248 -0.2896  0.3934 -0.5101
 6461TIP3    H240875   0.731   4.845   2.169  0.3365  0.6303 -0.1093
 6462TIP3   OH240876   1.014   4.341   4.538  0.4617 -0.0998 -0.6889
 6462TIP3    H140877   0.966   4.409   4.491  0.5808  1.9640  1.9476
 6462TIP3    H240878   1.102   4.345   4.502 -0.1385 -0.7114 -2.3380
 6463TIP3   OH240879   0.018   6.784  15.447 -0.5974  0.4878 -0.1347
 6463TIP3    H140880  -0.061   6.814  15.403 -0.6840  0.5389  0.0536
 6463TIP3    H240881   0.042   6.856  15.505 -0.5245  0.3933 -0.0472
 6464TIP3   OH240882   1.135   4.287   5.553 -0.8032 -0.2733 -0.1066
 6464TIP3    H140883   1.193   4.266   5.626 -2.6364  0.2312  1.5577
 6464TIP3    H240884   1.100   4.203   5.525 -0.6668 -0.3956  0.0856
 6465TIP3   OH240885   3.086   0.535  12.789 -0.1282 -0.0094 -0.8118
 6465TIP3    H140886   3.162   0.572  12.834 -0.4596 -0.7033  0.3736
 6465TIP3    H240887   3.042   0.610  12.750  0.0540  0.6551  0.2291
 6466TIP3   OH240888   2.200   0.203   2.658  0.0116 -0.2672  0.3311
 6466TIP3    H140889   2.241   0.129   2.615 -0.2355 -1.6596  2.3269
 6466TIP3    H240890   2.106   0.186   2.651 -0.0441 -0.2030  0.8737
 6467TIP3   OH240891   6.810   1.428   5.304  0.2556  0.1000 -0.0727
 6467TIP3    H140892   6.787   1.337   5.323  1.8522 -0.3351 -0.0831
 6467TIP3    H240893   6.748   1.455   5.236  0.0506 -1.1183 -0.3938
 6468TIP3   OH240894   2.645   2.621   2.837  0.1792 -0.0254 -0.1788
 6468TIP3    H140895   2.687   2.650   2.756 -1.1561 -1.0191 -1.2639
 6468TIP3    H240896   2.695   2.665   2.906  1.4567  0.7215 -1.5087
 6469TIP3   OH240897   2.466   5.481  15.411 -0.1616  0.2499 -0.2216
 6469TIP3    H140898   2.450   5.531  15.331 -5.3760 -0.4391  0.0535
 6469TIP3    H240899   2.460   5.546  15.482 -3.1526 -0.0153 -0.1039
 6470TIP3   OH240900   5.043   6.143   0.283 -0.4514 -0.5776 -0.5440
 6470TIP3    H140901   4.994   6.085   0.343  1.4989  1.6054  3.6078
 6470TIP3    H240902   5.008   6.230   0.300  1.5612  0.3877 -1.0496
 6471TIP3   OH240903   6.207   3.418  10.610 -0.6573  0.1194 -0.9950
 6471TIP3    H140904   6.168   3.497  10.572 -0.6102 -0.0702 -1.4335
 6471TIP3    H240905   6.247   3.372  10.536 -1.1469 -0.5919 -0.8242
 6472TIP3   OH240906   2.703   0.306   4.880  0.3115  0.2048  0.1605
 6472TIP3    H140907   2.768   0.314   4.950 -1.1489 -0.1661  1.6104
 6472TIP3    H240908   2.632   0.365   4.906 -0.3862 -0.1430 -0.8782
 6473TIP3   OH240909   3.119   5.836   4.452 -0.0401  0.5274  0.3474
 6473TIP3    H140910   3.134   5.761   4.394 -0.7173  0.5415  0.1422
 6473TIP3    H240911   3.023   5.842   4.459  0.0008  1.4339  0.2735
 6474TIP3   OH240912   6.222   4.977  11.187  0.1835  0.0147  0.6212
 6474TIP3    H140913   6.292   4.966  11.252 -0.2479  1.9887  1.5029
 6474TIP3    H240914   6.244   4.915  11.117  1.7670 -0.7433  1.7365
 6475TIP3   OH240915   1.581   3.277   4.696  0.1670  0.2054 -0.5404
 6475TIP3    H140916   1.522   3.351   4.710 -1.7321 -0.1388 -4.9856
 6475TIP3    H240917   1.662   3.317   4.665  0.4718  0.4795  0.5570
 6476TIP3   OH240918   3.953   6.747  12.190  0.3406  0.5487  0.2196
 6476TIP3    H140919   3.860   6.749  12.212  0.4492 -2.9813  1.7077
 6476TIP3    H240920   3.982   6.838  12.197 -2.3783  1.3673  2.6110
 6477TIP3   OH240921   5.167   3.338  14.076  0.0849  0.0369  0.4145
 6477TIP3    H140922   5.193   3.423  14.111 -0.8276  1.2172 -1.6522
 6477TIP3    H240923   5.072   3.337  14.084  0.0455 -0.5621 -0.0941
 6478TIP3   OH240924   4.735   2.252  16.069  0.6588 -0.2145 -0.2726
 6478TIP3    H140925   4.734   2.205  16.152  2.5317 -1.1234 -0.7085
 6478TIP3    H240926   4.660   2.311  16.074  1.0736  0.2211  2.3075
 6479TIP3   OH240927   3.545   2.212   0.077 -0.0796 -0.4666 -0.6956
 6479TIP3    H140928   3.588   2.215  -0.008  0.8422 -1.1221 -0.2698
 6479TIP3    H240929   3.451   2.216   0.057  0.1414  0.0100 -1.6964
 6480TIP3   OH240930   1.591   2.852  11.892 -0.1657  0.3545  0.0334
 6480TIP3    H140931   1.498   2.848  11.870 -0.4536  1.2097  1.0113
 6480TIP3    H240932   1.597   2.810  11.978  0.2468  0.7926  0.2253
 6481TIP3   OH240933   3.187   6.260  13.275  0.1204 -0.1374 -0.3509
 6481TIP3    H140934   3.173   6.215  13.358 -2.9568 -0.2848 -0.8238
 6481TIP3    H240935   3.104   6.251  13.228  0.8335  2.2543 -2.3283
 6482TIP3   OH240936   4.960   6.413   3.086  0.6397  0.2342 -0.2368
 6482TIP3    H140937   5.009   6.347   3.039 -0.7778 -0.6664 -0.5009
 6482TIP3    H240938   4.908   6.364   3.150  0.6498  1.2153  0.5555
 6483TIP3   OH240939   5.389   2.590  12.182  0.3373  0.2428 -0.0008
 6483TIP3    H140940   5.368   2.523  12.246  0.0886  1.7314  1.5464
 6483TIP3    H240941   5.308   2.639  12.172 -0.4142 -1.3962 -3.3887
 6484TIP3   OH240942   4.303   1.588   3.892 -0.0855  0.3393 -0.0624
 6484TIP3    H140943   4.249   1.548   3.961  2.3386  0.1541  1.8583
 6484TIP3    H240944   4.318   1.677   3.923 -1.0515  1.0980 -1.6808
 6485TIP3   OH240945   4.955   1.024  16.711 -0.1683  0.5784  0.4221
 6485TIP3    H140946   5.019   0.954  16.698 -0.2215  0.6601 -0.3212
 6485TIP3    H240947   4.980   1.063  16.795 -0.3905 -0.5825  1.0423
 6486TIP3   OH240948   1.746   3.764   0.438 -0.5631 -0.4666 -0.6871
 6486TIP3    H140949   1.832   3.769   0.397  1.2139  0.1532  2.7653
 6486TIP3    H240950   1.725   3.855   0.459  0.0853 -0.9255  2.3554
 6487TIP3   OH240951   2.892   4.348  17.007  1.2215 -0.3157  0.2447
 6487TIP3    H140952   2.863   4.413  17.072 -0.5483 -1.9283  1.1698
 6487TIP3    H240953   2.952   4.396  16.951 -1.2843  2.6516 -0.1827
 6488TIP3   OH240954   3.833   3.360   2.022 -0.2288 -0.0313 -0.1021
 6488TIP3    H140955   3.824   3.382   1.929 -1.1689  1.6742  0.3486
 6488TIP3    H240956   3.883   3.433   2.059 -0.7786 -0.1539  0.9126
 6489TIP3   OH240957   3.049   2.516  12.108  0.1206 -0.3183  0.0142
 6489TIP3    H140958   3.079   2.470  12.030 -1.2470 -0.3463 -0.5163
 6489TIP3    H240959   3.048   2.608  12.083 -0.5723 -0.3532 -0.0816
 6490TIP3   OH240960   3.095   4.757   0.718 -0.1354 -0.7042  0.2424
 6490TIP3    H140961   3.119   4.670   0.749  0.4500 -0.8267 -0.5394
 6490TIP3    H240962   3.002   4.749   0.695 -0.2294 -0.9668  0.7178
 6491TIP3   OH240963   4.299   4.999   2.484  0.0037  0.2886 -0.5850
 6491TIP3    H140964   4.246   5.078   2.483  3.0406  2.5381  0.5430
 6491TIP3    H240965   4.386   5.028   2.457  1.0110 -2.9402 -1.2301
 6492TIP3   OH240966   2.166   4.426  11.835  0.0878  0.0126  0.3730
 6492TIP3    H140967   2.132   4.372  11.905 -0.2839  1.3039  1.2218
 6492TIP3    H240968   2.128   4.512  11.850  0.2783  0.4062 -1.2165
 6493TIP3   OH240969   5.461   1.625   5.902  0.5511  0.5655 -0.6929
 6493TIP3    H140970   5.449   1.694   5.837 -0.5581  0.2473 -0.8483
 6493TIP3    H240971   5.440   1.544   5.855  1.3898  0.1550 -0.3892
 6494TIP3   OH240972   6.504   6.288   3.546 -0.2674  0.4094  0.3536
 6494TIP3    H140973   6.490   6.245   3.630  1.7757 -0.5057  0.2872
 6494TIP3    H240974   6.478   6.379   3.561 -1.8538 -0.1863  1.3627
 6495TIP3   OH240975   4.936   3.829   5.660  0.0326  0.6643  0.2897
 6495TIP3    H140976   4.922   3.865   5.573 -0.6549  0.8620  0.4765
 6495TIP3    H240977   4.926   3.904   5.719 -0.4443  0.3529  0.6077
 6496TIP3   OH240978   5.231   3.171   4.263  0.2736 -0.8096 -0.2201
 6496TIP3    H140979   5.306   3.220   4.229  0.8072 -0.2176  1.7171
 6496TIP3    H240980   5.158   3.233   4.259  0.4204 -0.6172  0.0532
 6497TIP3   OH240981   0.039   4.234  17.150  0.4586  0.1044 -0.0198
 6497TIP3    H140982   0.132   4.226  17.131  0.1840 -0.2866 -1.3126
 6497TIP3    H240983   0.004   4.147  17.131  0.0491 -0.2135  1.9368
 6498TIP3   OH240984   1.568   5.836   0.893  0.2115 -0.0551 -0.5991
 6498TIP3    H140985   1.527   5.795   0.969 -0.4312 -0.3060 -1.0739
 6498TIP3    H240986   1.628   5.901   0.931 -0.2554 -0.0228  0.1187
 6499TIP3   OH240987   0.159   0.864  15.709  0.5491 -0.6120  0.5063
 6499TIP3    H140988   0.127   0.791  15.763 -1.3894  0.4515  0.8746
 6499TIP3    H240989   0.110   0.857  15.627  1.8504 -0.8868 -0.2781
 6500TIP3   OH240990   5.379   5.357  12.431  0.1394 -0.2386  0.0596
 6500TIP3    H140991   5.333   5.391  12.354  0.6981 -1.4309 -0.8524
 6500TIP3    H240992   5.315   5.359  12.501 -1.6499 -2.6062 -1.3504
 6501TIP3   OH240993   0.369   1.621   3.922 -0.3858 -0.2165 -0.4143
 6501TIP3    H140994   0.300   1.580   3.975 -0.8714  0.5302 -0.4409
 6501TIP3    H240995   0.325   1.696   3.882  0.7358  0.9497  0.4736
 6502TIP3   OH240996   2.978   1.661   0.192  0.0124 -1.1531 -0.0544
 6502TIP3    H140997   2.942   1.626   0.274 -0.5093 -1.5716 -0.4555
 6502TIP3    H240998   3.029   1.737   0.219 -0.2026 -1.2515  0.6553
 6503TIP3   OH240999   4.753   2.519  13.559 -0.0161 -0.3983 -0.0138
 6503TIP3    H141000   4.772   2.548  13.648  1.2184 -0.6927 -0.1583
 6503TIP3    H241001   4.744   2.424  13.565  1.0239 -0.5347 -0.3293
 6504TIP3   OH241002   5.100   4.317   0.742 -0.5461 -0.4348  0.1135
 6504TIP3    H141003   5.124   4.379   0.810  2.5110 -0.5453 -0.6826
 6504TIP3    H241004   5.117   4.231   0.780  0.8136 -0.5085 -0.5682
 6505TIP3   OH241005   6.005   1.192   1.767 -0.0661  0.2760 -0.3734
 6505TIP3    H141006   6.066   1.237   1.825  1.0849 -0.0231 -1.3258
 6505TIP3    H241007   6.013   1.099   1.790  0.3025  0.1694 -0.9174
 6506TIP3   OH241008   3.207   0.399   3.849  0.3463 -0.3095 -0.2726
 6506TIP3    H141009   3.136   0.463   3.856 -1.3347 -2.0547 -0.4863
 6506TIP3    H241010   3.243   0.412   3.761  2.1265  2.3119  0.7217
 6507TIP3   OH241011   0.726   6.542   0.814  0.6921 -0.4271 -0.3683
 6507TIP3    H141012   0.786   6.602   0.858  0.0399  0.1559 -0.2515
 6507TIP3    H241013   0.781   6.491   0.755  1.2630  0.2788 -0.4558
 6508TIP3   OH241014   5.924   0.304   3.073  0.4144 -0.1270 -0.4248
 6508TIP3    H141015   6.013   0.272   3.065  0.0589 -0.9158 -1.3945
 6508TIP3    H241016   5.902   0.292   3.166  1.8383  1.5696  0.1950
 6509TIP3   OH241017   3.921   3.591  15.556 -0.3352  0.1362  0.2698
 6509TIP3    H141018   3.922   3.559  15.646 -2.0504  0.5094  0.4423
 6509TIP3    H241019   3.892   3.516  15.504  0.9366 -0.1689 -0.0408
 6510TIP3   OH241020   2.411   1.293   2.858  0.2259  0.2797  0.4139
 6510TIP3    H141021   2.490   1.298   2.912 -0.6228  1.6071  1.6244
 6510TIP3    H241022   2.385   1.201   2.862 -0.6495  0.5212  3.6775
 6511TIP3   OH241023   3.854   5.798   0.950  0.3109 -0.2287  0.3557
 6511TIP3    H141024   3.763   5.827   0.950  0.1812 -0.3723  2.9663
 6511TIP3    H241025   3.850   5.703   0.963  0.8012 -0.1699  1.0513
 6512TIP3   OH241026   3.252   6.019   6.298  0.4905  0.2018  0.1283
 6512TIP3    H141027   3.274   5.926   6.301 -2.9868 -0.8014 -0.5985
 6512TIP3    H241028   3.293   6.056   6.375  1.3404 -2.0967  0.8603
 6513TIP3   OH241029   2.014   0.418  15.330  0.0295 -0.0496 -0.3971
 6513TIP3    H141030   1.956   0.434  15.405  0.9042 -1.7454  0.7140
 6513TIP3    H241031   2.052   0.332  15.348  0.4571 -0.3885 -2.6972
 6514TIP3   OH241032   0.406   1.864  11.830 -0.6623  0.1958  0.4282
 6514TIP3    H141033   0.347   1.932  11.863 -1.9606  0.0017 -1.3400
 6514TIP3    H241034   0.482   1.911  11.797 -1.1654  0.7263  0.0130
 6515TIP3   OH241035   1.484   3.561  16.129  0.9848 -1.2219 -0.3030
 6515TIP3    H141036   1.430   3.482  16.133 -1.9158  0.5642 -0.9635
 6515TIP3    H241037   1.503   3.572  16.036 -1.0499  0.2452 -0.6182
 6516TIP3   OH241038   4.431   6.115  15.725 -0.3208  0.6245  0.4484
 6516TIP3    H141039   4.454   6.116  15.632 -2.2505  0.8486 -0.0680
 6516TIP3    H241040   4.493   6.053  15.764 -0.0158 -0.1394 -1.1392
 6517TIP3   OH241041   0.610   1.550  15.660  0.0334 -0.5331 -0.3172
 6517TIP3    H141042   0.621   1.543  15.565  1.4339 -0.0908 -0.2107
 6517TIP3    H241043   0.678   1.493  15.696 -1.6777 -2.1981  0.4455
 6518TIP3   OH241044   0.461   1.921   5.104  0.1633  0.1238  0.5435
 6518TIP3    H141045   0.368   1.944   5.095  0.6984  2.1658 -0.6255
 6518TIP3    H241046   0.505   2.005   5.119  1.8354 -0.7951  1.0516
 6519TIP3   OH241047   2.285   1.280  16.320 -0.1730  0.3608 -0.0461
 6519TIP3    H141048   2.247   1.363  16.293  1.3918  0.7026 -1.3793
 6519TIP3    H241049   2.212   1.218  16.317 -1.5816  1.8084  1.8905
 6520TIP3   OH241050   6.423   6.151   4.573 -0.3275 -0.1114  0.2096
 6520TIP3    H141051   6.444   6.058   4.568  0.9273  0.2241 -2.3259
 6520TIP3    H241052   6.364   6.166   4.498 -1.6358  0.9188  1.3770
 6521TIP3   OH241053   1.963   0.428  13.271 -0.3158 -0.0495  0.5215
 6521TIP3    H141054   1.955   0.414  13.176 -1.1348 -1.4325  0.7646
 6521TIP3    H241055   2.054   0.405  13.291 -0.2918 -0.2897  0.1473
 6522TIP3   OH241056   1.677   1.988  10.528  0.3300  0.0341  0.0990
 6522TIP3    H141057   1.741   1.919  10.550 -1.6513 -1.7743  0.5470
 6522TIP3    H241058   1.610   1.981  10.596 -0.8735  1.1668 -0.9177
 6523TIP3   OH241059   3.565   2.718  14.697 -0.2204 -0.2255  0.0039
 6523TIP3    H141060   3.536   2.706  14.787  1.9158 -0.3955  0.7167
 6523TIP3    H241061   3.531   2.642  14.650 -1.6052  0.0162  0.5756
 6524TIP3   OH241062   3.151   4.928   0.482 -0.3838 -0.4297  0.1468
 6524TIP3    H141063   3.112   4.857   0.532 -0.4189 -0.8165 -0.4225
 6524TIP3    H241064   3.214   4.885   0.424 -0.4773 -0.0047 -0.2753
 6525TIP3   OH241065   5.358   3.849  16.918 -0.0162  0.3162 -0.7900
 6525TIP3    H141066   5.397   3.861  17.005 -1.9193 -0.6292  0.2699
 6525TIP3    H241067   5.331   3.938  16.892 -0.9100  0.4077  0.3630
 6526TIP3   OH241068   1.966   4.335  11.228 -0.0846  0.5818 -0.2242
 6526TIP3    H141069   1.936   4.370  11.144 -0.5926  0.0511 -0.2764
 6526TIP3    H241070   2.012   4.254  11.205 -0.9939 -0.0367  0.0588
 6527TIP3   OH241071   3.022   6.039  12.502 -0.0126 -0.0544 -0.2300
 6527TIP3    H141072   3.068   5.956  12.518  1.4917  0.6681 -0.6287
 6527TIP3    H241073   2.935   6.013  12.472 -0.2064 -1.4754  1.4095
 6528TIP3   OH241074   5.279   5.569  15.664 -0.3133 -0.0809  0.2084
 6528TIP3    H141075   5.271   5.474  15.678  1.1384 -0.2549  0.0518
 6528TIP3    H241076   5.258   5.608  15.748 -0.1762 -0.6027  0.4897
 6529TIP3   OH241077   1.544   2.489  12.152  0.3703 -0.3656 -0.1452
 6529TIP3    H141078   1.561   2.417  12.213  0.0638 -2.1751 -2.0840
 6529TIP3    H241079   1.603   2.473  12.079  1.7885  2.5736  0.2034
 6530TIP3   OH241080   3.014   5.609  16.177  0.1355 -0.0123 -0.0888
 6530TIP3    H141081   3.028   5.642  16.088 -1.4131  2.0696  0.3485
 6530TIP3    H241082   3.007   5.514  16.167 -0.4020  0.2065 -2.2437
 6531TIP3   OH241083   5.658   6.523  15.776  0.0617  0.4791  0.2836
 6531TIP3    H141084   5.737   6.499  15.824 -0.7307 -1.6121  0.6456
 6531TIP3    H241085   5.670   6.615  15.754  2.9504  0.0316 -0.4002
 6532TIP3   OH241086   3.005   1.453  14.856  0.0800  0.0936  0.7306
 6532TIP3    H141087   2.960   1.391  14.913  0.1613 -0.7883 -0.1432
 6532TIP3    H241088   2.949   1.459  14.778  1.1207 -0.5285 -0.0956
 6533TIP3   OH241089   4.115   4.362  10.517  0.6238  0.3483  0.0180
 6533TIP3    H141090   4.180   4.391  10.454  1.0230 -2.4151 -0.9882
 6533TIP3    H241091   4.054   4.309  10.466  0.0455 -0.6674  1.6762
 6534TIP3   OH241092   6.082   4.888   1.228 -0.1518 -0.8189 -0.7094
 6534TIP3    H141093   6.052   4.928   1.146 -1.3250 -1.4493 -0.6083
 6534TIP3    H241094   6.071   4.794   1.214  0.8897 -1.0090 -0.2970
 6535TIP3   OH241095   4.078   0.966   5.432  0.1682  0.3184 -0.2071
 6535TIP3    H141096   4.033   0.913   5.366 -1.2140  0.6273  0.4604
 6535TIP3    H241097   4.165   0.981   5.395 -0.3072 -0.1947 -1.5935
 6536TIP3   OH241098   1.268   3.781   5.179 -0.4547  0.2685  0.0336
 6536TIP3    H141099   1.329   3.849   5.149  0.1759 -1.1664 -2.1717
 6536TIP3    H241100   1.298   3.759   5.267 -0.3460  2.4213  0.6059
 6537TIP3   OH241101   2.488   0.085  12.219 -0.0220  0.5084  0.2272
 6537TIP3    H141102   2.565   0.083  12.163 -0.2673 -1.4382 -0.0977
 6537TIP3    H241103   2.421   0.128  12.166 -0.6107 -2.3751 -1.5858
 6538TIP3   OH241104   1.451   5.990  16.135 -0.0323  0.3549 -0.0896
 6538TIP3    H141105   1.420   5.901  16.151  0.3935  0.0968 -0.6659
 6538TIP3    H241106   1.382   6.046  16.172 -1.0960 -0.1977 -1.1358
 6539TIP3   OH241107   2.757   5.156  10.970 -0.4496  0.1457 -0.4865
 6539TIP3    H141108   2.805   5.234  10.998  1.8226 -1.3694  0.0389
 6539TIP3    H241109   2.824   5.092  10.948 -2.2065 -2.1594  0.4378
 6540TIP3   OH241110   2.735   5.720   1.598 -0.0362  0.4424 -0.2197
 6540TIP3    H141111   2.797   5.730   1.670  2.0137  0.7207 -1.9043
 6540TIP3    H241112   2.706   5.810   1.579 -0.5584  0.3716  0.2118
 6541TIP3   OH241113   1.878   6.401   0.441 -0.6882  0.9616 -0.0921
 6541TIP3    H141114   1.881   6.496   0.428 -0.3663  1.0396  0.4966
 6541TIP3    H241115   1.835   6.390   0.526 -0.2391  0.6080  0.0983
 6542TIP3   OH241116   0.973   3.155   0.296  0.1302  0.3036  0.0187
 6542TIP3    H141117   0.942   3.205   0.371  0.0650 -0.6253  0.6272
 6542TIP3    H241118   1.056   3.117   0.326 -0.4333 -0.9660  0.0165
 6543TIP3   OH241119   0.511   1.808  11.432 -0.2607 -0.2621 -0.2789
 6543TIP3    H141120   0.536   1.808  11.525 -0.4767 -0.9102 -0.2122
 6543TIP3    H241121   0.423   1.770  11.431 -1.5995  2.6264 -0.4294
 6544TIP3   OH241122   6.509   2.595  14.913  0.0501  0.3862  0.3193
 6544TIP3    H141123   6.416   2.601  14.891 -0.0364  1.0499  0.8189
 6544TIP3    H241124   6.551   2.563  14.833 -0.4472  1.2631 -0.3087
 6545TIP3   OH241125   4.186   5.773  17.017  0.0460 -0.2290  0.0373
 6545TIP3    H141126   4.148   5.857  17.041 -0.8083 -0.3084 -0.9719
 6545TIP3    H241127   4.273   5.774  17.057  0.0043  1.0670  0.1421
 6546TIP3   OH241128   0.582   2.366   1.590  0.2886  0.5933 -0.0072
 6546TIP3    H141129   0.528   2.289   1.572  0.2716  0.3009  1.2661
 6546TIP3    H241130   0.592   2.408   1.504 -0.7315 -0.1417 -0.5071
 6547TIP3   OH241131   4.772   5.065  13.450  0.9382 -0.0915  0.6715
 6547TIP3    H141132   4.777   5.100  13.360 -0.7612 -1.2826  0.0731
 6547TIP3    H241133   4.754   5.142  13.504  2.6991  0.7637  0.1244
 6548TIP3   OH241134   3.127   1.157   3.106  0.1749  0.2331 -0.4610
 6548TIP3    H141135   3.188   1.230   3.097 -0.7464  1.1954  0.7573
 6548TIP3    H241136   3.174   1.083   3.068  2.1384  0.9110  0.4740
 6549TIP3   OH241137   3.414   4.632  16.070  0.0021  0.0743  0.1083
 6549TIP3    H141138   3.455   4.616  16.155  0.2423  1.3886  0.2547
 6549TIP3    H241139   3.484   4.667  16.015 -0.8659  2.2685  0.3313
 6550TIP3   OH241140   0.487   2.164  13.186 -0.5881 -0.8896 -0.0480
 6550TIP3    H141141   0.401   2.141  13.151 -0.3871 -2.2074  0.2770
 6550TIP3    H241142   0.498   2.106  13.262  1.3626 -2.1216 -1.1852
 6551TIP3   OH241143   5.017   5.083  11.075 -0.2276  0.1411 -0.2413
 6551TIP3    H141144   4.948   5.104  11.012 -0.4836  0.0485  0.0053
 6551TIP3    H241145   4.981   5.011  11.127  0.8849 -1.4107 -1.5106
 6552TIP3   OH241146   3.147   6.222  13.900  0.4684  0.9167 -0.0381
 6552TIP3    H141147   3.108   6.165  13.833  1.5708 -0.3371  0.3351
 6552TIP3    H241148   3.072   6.255  13.950 -0.2021 -1.3996  0.6446
 6553TIP3   OH241149   6.466   1.248  15.016 -0.3742  0.1869  0.1801
 6553TIP3    H141150   6.380   1.205  15.006  0.6142 -1.9490  0.2164
 6553TIP3    H241151   6.476   1.260  15.110  0.2453 -1.6346  0.3915
 6554TIP3   OH241152   4.752   4.439   1.617  0.9843 -0.0987 -0.0550
 6554TIP3    H141153   4.774   4.403   1.531  1.8104  0.5745 -0.1391
 6554TIP3    H241154   4.688   4.378   1.653  1.0486 -0.6906 -0.9157
 6555TIP3   OH241155   3.127   3.035  15.853  0.5397  0.1478  0.0535
 6555TIP3    H141156   3.114   3.103  15.919 -0.5246  1.4704 -1.4398
 6555TIP3    H241157   3.070   2.963  15.880  1.9413 -0.3634  1.8411
 6556TIP3   OH241158   6.249   5.951   4.370  0.5921  0.3884 -0.0293
 6556TIP3    H141159   6.194   6.029   4.379  1.0217  0.6891  0.0260
 6556TIP3    H241160   6.257   5.916   4.458 -0.2795 -0.1990 -0.1669
 6557TIP3   OH241161   1.686   1.466  13.070  0.1673  0.1929  1.0066
 6557TIP3    H141162   1.647   1.379  13.076 -0.1436  0.2488  0.0071
 6557TIP3    H241163   1.760   1.455  13.011 -1.2998  1.0383 -1.1392
 6558TIP3   OH241164   0.618   6.403  16.546  0.3272 -0.9135 -0.4630
 6558TIP3    H141165   0.601   6.410  16.640 -1.1055  0.8910 -0.8177
 6558TIP3    H241166   0.673   6.325  16.538 -0.3197 -1.6748  1.7629
 6559TIP3   OH241167   4.796   6.344   1.724 -0.4252 -0.6523 -0.5838
 6559TIP3    H141168   4.808   6.250   1.710  1.0416 -0.7539  1.0008
 6559TIP3    H241169   4.703   6.353   1.746 -0.0947 -2.1603  1.7976
 6560TIP3   OH241170   3.027   0.714   0.837 -0.0993  0.2519 -0.5690
 6560TIP3    H141171   3.063   0.634   0.799 -0.1356 -0.2735  0.4964
 6560TIP3    H241172   2.940   0.721   0.798 -0.9590 -1.4047  0.9201
 6561TIP3   OH241173   1.310   6.188  16.281  0.6881  0.3832  0.4272
 6561TIP3    H141174   1.239   6.154  16.336 -1.9716  1.1598 -2.2680
 6561TIP3    H241175   1.317   6.280  16.307  0.2907  0.4498  0.3078
 6562TIP3   OH241176   0.583   1.337   0.279 -0.3547 -0.0691 -0.3923
 6562TIP3    H141177   0.644   1.400   0.240 -2.4580  1.6659 -1.0924
 6562TIP3    H241178   0.601   1.341   0.373  1.5472 -0.7140 -0.6796
 6563TIP3   OH241179   6.155   3.718  16.159  0.0649 -0.3930 -0.1615
 6563TIP3    H141180   6.222   3.786  16.167 -0.8867  0.5775 -0.2615
 6563TIP3    H241181   6.090   3.741  16.225 -0.2457 -1.2502 -0.1577
 6564TIP3   OH241182   2.439   0.312  11.557 -0.7334  0.1237  0.6501
 6564TIP3    H141183   2.399   0.395  11.529 -0.0645  0.6758  1.2606
 6564TIP3    H241184   2.530   0.319  11.528 -0.1226  0.5391  2.4800
 6565TIP3   OH241185   3.789   0.995  15.800 -0.4706 -0.5981 -0.0184
 6565TIP3    H141186   3.703   0.984  15.840 -0.2602 -1.5194  0.1966
 6565TIP3    H241187   3.773   0.997  15.706 -0.7670 -0.3070  0.0367
 6566TIP3   OH241188   3.925   6.092  14.183 -0.1848  0.1411  0.3157
 6566TIP3    H141189   3.983   6.016  14.180  0.6322  0.7365  0.4635
 6566TIP3    H241190   3.915   6.119  14.091 -0.7612 -0.3526  0.2331
 6567TIP3   OH241191   4.515   5.224  14.356 -0.1283  0.3451  0.1481
 6567TIP3    H141192   4.545   5.256  14.271  1.3380  0.5317  0.7034
 6567TIP3    H241193   4.478   5.301  14.399  0.0024  0.4626  0.0501
 6568TIP3   OH241194   1.570   6.026  10.939  0.4096 -0.1698 -0.2486
 6568TIP3    H141195   1.589   5.978  10.858 -1.1828 -0.4856 -0.4794
 6568TIP3    H241196   1.611   5.975  11.008 -1.2344 -1.9414 -0.4896
 6569TIP3   OH241197   2.961   3.882  15.343  0.4432  0.8974  0.0669
 6569TIP3    H141198   3.050   3.913  15.358  0.6123 -0.0997  1.2430
 6569TIP3    H241199   2.964   3.788  15.363 -0.1341  0.1110 -2.9664
 6570TIP3   OH241200   5.918   4.597  12.827  0.6796  0.2453 -0.1477
 6570TIP3    H141201   5.854   4.668  12.827  0.9850  0.5299 -0.5968
 6570TIP3    H241202   5.892   4.541  12.754 -0.0769 -0.5938  0.7444
 6571TIP3   OH241203   3.430   4.886   4.227  0.0590  0.6397  0.1236
 6571TIP3    H141204   3.470   4.878   4.140  0.6383  0.0721  0.4311
 6571TIP3    H241205   3.344   4.925   4.211  0.1614  0.5364 -0.7041
 6572TIP3   OH241206   1.144   3.492   3.370 -0.8210 -0.0282 -0.5845
 6572TIP3    H141207   1.070   3.489   3.310 -3.2338 -0.1604  2.1892
 6572TIP3    H241208   1.124   3.564   3.429  2.3188  1.2187 -0.8686
 6573TIP3   OH241209   2.212   2.068   2.695 -0.5255  0.2049  0.0282
 6573TIP3    H141210   2.227   2.020   2.776 -1.4419 -1.4667 -0.7300
 6573TIP3    H241211   2.116   2.073   2.688 -0.5341 -1.5880 -1.9704
 6574TIP3   OH241212   3.623   4.496  13.729 -0.5848 -0.1863 -0.1012
 6574TIP3    H141213   3.658   4.547  13.656  1.6379 -0.4213  0.7350
 6574TIP3    H241214   3.573   4.560  13.780  1.0655  0.8994  0.2175
 6575TIP3   OH241215   0.275   2.750   5.160  0.4127  0.1013  0.3922
 6575TIP3    H141216   0.357   2.754   5.111 -0.0142  1.6067 -0.2750
 6575TIP3    H241217   0.245   2.660   5.151  1.0201  0.0180 -1.0142
 6576TIP3   OH241218   4.203   1.627  14.001  0.7031  0.3463 -0.7092
 6576TIP3    H141219   4.111   1.646  14.018  0.4233 -0.3268 -1.3698
 6576TIP3    H241220   4.227   1.562  14.066  1.1339  1.5470  0.3710
 6577TIP3   OH241221   5.474   2.449  14.776 -0.1836  0.7970  0.3282
 6577TIP3    H141222   5.437   2.536  14.760 -0.2845  0.7985  0.5569
 6577TIP3    H241223   5.556   2.466  14.823  0.4255  0.8204 -0.7191
 6578TIP3   OH241224   5.955   2.520   0.016  0.1798  0.0596 -0.1573
 6578TIP3    H141225   5.948   2.500  -0.077 -2.2392  1.6664 -0.3981
 6578TIP3    H241226   5.957   2.616   0.020 -2.0815  0.1222  1.4834
 6579TIP3   OH241227   0.429   0.515  17.195 -0.1219 -0.5651 -0.1834
 6579TIP3    H141228   0.362   0.447  17.202 -1.1242  0.3722 -0.2136
 6579TIP3    H241229   0.504   0.481  17.242 -1.0816 -1.1213  0.9957
 6580TIP3   OH241230   2.002   6.432   2.081 -0.5916  0.1023 -0.6261
 6580TIP3    H141231   1.951   6.458   2.004  1.1354 -0.5577 -2.0730
 6580TIP3    H241232   1.995   6.337   2.084  0.1205  0.0447 -0.5462
 6581TIP3   OH241233   4.489   1.025   6.307  0.3173 -0.3134 -0.2319
 6581TIP3    H141234   4.524   1.010   6.219 -0.7237  1.0865 -0.9126
 6581TIP3    H241235   4.446   1.110   6.303 -0.7514 -0.7186  1.3256
 6582TIP3   OH241236   5.856   3.633   4.590 -0.1930  0.3644  0.6002
 6582TIP3    H141237   5.804   3.558   4.561 -0.3129  1.7240 -3.1892
 6582TIP3    H241238   5.944   3.615   4.557  0.7022  0.3348  2.8053
 6583TIP3   OH241239   0.690   5.501  12.367  0.0422  0.5333  0.7248
 6583TIP3    H141240   0.770   5.448  12.361  1.0940  2.0787  0.4427
 6583TIP3    H241241   0.623   5.449  12.324  0.7970 -0.9727  1.2917
 6584TIP3   OH241242   3.334   0.683   2.617 -0.3293 -0.3116  0.0086
 6584TIP3    H141243   3.296   0.769   2.601  0.5158 -0.1369 -1.2014
 6584TIP3    H241244   3.419   0.685   2.573  0.2375 -1.3622  0.9896
 6585TIP3   OH241245   6.697   2.396  16.634 -0.1923 -0.2849  0.1664
 6585TIP3    H141246   6.704   2.305  16.604 -0.2125 -0.9908  2.1556
 6585TIP3    H241247   6.783   2.434  16.615 -0.3922 -0.4832 -1.2764
 6586TIP3   OH241248   0.892   0.947   1.439  0.3527  0.3841 -0.0808
 6586TIP3    H141249   0.891   0.953   1.343  1.8334  0.7972 -0.0946
 6586TIP3    H241250   0.822   1.005   1.467 -0.6346 -0.3569 -0.9238
 6587TIP3   OH241251   0.228   0.782   6.032 -0.1094 -0.0258 -0.5131
 6587TIP3    H141252   0.322   0.782   6.014  0.5065 -0.0825  2.1685
 6587TIP3    H241253   0.217   0.717   6.102 -1.2105  3.3600  2.8036
 6588TIP3   OH241254   2.677   3.101   4.850 -0.8706 -0.4229  0.1162
 6588TIP3    H141255   2.664   3.026   4.792 -1.2051 -0.2256 -0.0704
 6588TIP3    H241256   2.592   3.114   4.892 -0.8552 -0.0709  0.0492
 6589TIP3   OH241257   6.185   4.251   3.125 -0.0678  0.1895  0.1871
 6589TIP3    H141258   6.215   4.339   3.145  1.8636 -0.3534 -0.0619
 6589TIP3    H241259   6.207   4.238   3.032  0.2622 -0.7474  0.3776
 6590TIP3   OH241260   5.801   1.891   4.287  0.4665 -0.0328 -0.4659
 6590TIP3    H141261   5.876   1.871   4.231  1.3036  0.2001  0.5282
 6590TIP3    H241262   5.766   1.806   4.313 -0.8626 -0.1623 -2.4975
 6591TIP3   OH241263   1.852   1.655   2.059  0.1745  0.2382  0.2498
 6591TIP3    H141264   1.908   1.729   2.082  2.3041 -0.5862 -1.9379
 6591TIP3    H241265   1.781   1.693   2.007 -1.3987  1.2732  2.9553
 6592TIP3   OH241266   6.103   2.489  15.641 -0.0134  0.1420  0.5912
 6592TIP3    H141267   6.131   2.403  15.611 -0.9463 -0.6217  1.7931
 6592TIP3    H241268   6.175   2.548  15.618  1.5002 -1.2947  1.4420
 6593TIP3   OH241269   3.738   5.939   0.085  0.2275 -0.1904  0.4706
 6593TIP3    H141270   3.818   5.986   0.064 -1.1939  1.3515 -1.9533
 6593TIP3    H241271   3.687   6.002   0.138 -0.5370 -0.0192 -0.4419
 6594TIP3   OH241272   5.248   6.766   3.282 -0.3714  0.0110  0.4398
 6594TIP3    H141273   5.232   6.775   3.376  0.5438  1.1039  0.5227
 6594TIP3    H241274   5.191   6.695   3.254  0.3217 -1.2410  2.0638
 6595TIP3   OH241275   5.155   1.805  16.469  0.4803 -0.1664 -0.3571
 6595TIP3    H141276   5.187   1.723  16.506  1.9052 -0.5427 -2.2741
 6595TIP3    H241277   5.095   1.839  16.536  0.0773 -2.5809  0.6271
 6596TIP3   OH241278   1.061   2.539   2.359  0.2804  0.9421  0.0483
 6596TIP3    H141279   1.148   2.508   2.383 -0.1414 -0.1867  0.1874
 6596TIP3    H241280   1.030   2.585   2.437  0.0768 -0.1742  0.6527
 6597TIP3   OH241281   3.586   4.991  16.281  0.6429  0.2230  0.0420
 6597TIP3    H141282   3.666   4.957  16.321  0.9522 -2.3256 -2.4481
 6597TIP3    H241283   3.516   4.939  16.321  0.3812  1.2299  0.9296
 6598TIP3   OH241284   1.810   4.736   5.603 -0.1128  0.5084  0.0567
 6598TIP3    H141285   1.832   4.648   5.573 -1.0719  0.2917 -0.0509
 6598TIP3    H241286   1.818   4.791   5.525 -1.3314  0.1730 -0.3371
 6599TIP3   OH241287   5.455   4.115   2.488  0.1428  0.2117 -0.2683
 6599TIP3    H141288   5.437   4.104   2.582 -1.0276 -0.7082 -0.5710
 6599TIP3    H241289   5.368   4.127   2.449  0.6549  0.9811 -1.1988
 6600TIP3   OH241290   0.824   0.750   0.179  0.1192  0.3851  0.3570
 6600TIP3    H141291   0.734   0.736   0.210  0.4141  0.3116  1.2246
 6600TIP3    H241292   0.834   0.689   0.106  0.4890 -2.1080  2.3125
 6601TIP3   OH241293   5.510   2.091  13.141 -0.5508  0.2612 -0.0845
 6601TIP3    H141294   5.582   2.140  13.181 -1.4602  1.3448  0.3078
 6601TIP3    H241295   5.477   2.148  13.072 -0.1334 -0.8442 -1.2286
 6602TIP3   OH241296   1.112   4.469   0.336  0.4947  0.1078 -0.2986
 6602TIP3    H141297   1.071   4.524   0.403  0.2409 -2.3541  1.7306
 6602TIP3    H241298   1.094   4.514   0.253 -1.4877  1.9404  1.0226
 6603TIP3   OH241299   1.490   6.403  15.292 -0.2916  0.1715  0.0352
 6603TIP3    H141300   1.546   6.437  15.222 -0.6012 -3.0131 -1.9678
 6603TIP3    H241301   1.546   6.405  15.370  0.8547  1.7065 -0.7650
 6604TIP3   OH241302   3.471   3.341  15.916 -0.1708  0.3402  0.3974
 6604TIP3    H141303   3.551   3.316  15.962 -1.2595 -1.8310  1.2940
 6604TIP3    H241304   3.454   3.268  15.856 -1.0706  1.1153 -0.3255
 6605TIP3   OH241305   4.126   3.735  12.655  0.9821  0.7514  0.5263
 6605TIP3    H141306   4.095   3.781  12.733 -0.9984 -0.0833  0.2861
 6605TIP3    H241307   4.097   3.645  12.667  2.3227  0.1712 -0.3236
 6606TIP3   OH241308   2.675   1.091  12.863  0.0664  0.8239  0.3148
 6606TIP3    H141309   2.622   1.169  12.878 -0.6911  0.4157 -0.2035
 6606TIP3    H241310   2.614   1.025  12.832  0.7512  0.1060  0.4476
 6607TIP3   OH241311   5.484   1.667   4.129  0.5099 -0.5826  0.0388
 6607TIP3    H141312   5.551   1.661   4.061  0.8844  0.8691  0.2552
 6607TIP3    H241313   5.498   1.589   4.183  3.1881  0.5223  1.0902
 6608TIP3   OH241314   2.939   0.232  13.230  0.2475 -0.1136  0.0864
 6608TIP3    H141315   2.884   0.310  13.217  1.3861  0.6010 -0.5552
 6608TIP3    H241316   2.901   0.167  13.172  1.4024  1.0864 -2.1612
 6609TIP3   OH241317   6.438   0.125   4.026  0.2724 -0.0465 -0.2083
 6609TIP3    H141318   6.450   0.190   4.096  0.8117  0.0422 -0.3803
 6609TIP3    H241319   6.481   0.046   4.058 -0.3021 -0.2998 -0.0402
 6610TIP3   OH241320   0.017   1.286  11.994  0.0103 -0.0956  0.4748
 6610TIP3    H141321   0.001   1.208  12.048  2.2631 -1.5181 -0.7492
 6610TIP3    H241322   0.022   1.252  11.904  3.8608  0.8549  0.1542
 6611TIP3   OH241323   4.352   5.439   0.015 -0.1555  0.3973  0.1535
 6611TIP3    H141324   4.364   5.449   0.110 -0.9088 -1.0630  0.4379
 6611TIP3    H241325   4.261   5.461   0.000 -0.2934 -0.2948 -0.0723
 6612TIP3   OH241326   3.699   5.833   6.379 -0.1562  0.3707 -0.0052
 6612TIP3    H141327   3.783   5.846   6.424  0.1159 -1.6585  0.1516
 6612TIP3    H241328   3.643   5.902   6.413  0.6237  0.0656  2.0177
 6613TIP3   OH241329   2.655   1.312   1.702 -0.7710  0.8462  0.1066
 6613TIP3    H141330   2.695   1.395   1.728 -0.4789  0.3040  1.4919
 6613TIP3    H241331   2.729   1.255   1.679 -0.9984  1.1326 -1.4488
 6614TIP3   OH241332   4.635   3.846  14.151 -0.9221 -0.0355  0.0248
 6614TIP3    H141333   4.706   3.898  14.113 -0.0909 -0.3336  1.0973
 6614TIP3    H241334   4.556   3.896  14.131 -0.4124  0.3404 -1.1421
 6615TIP3   OH241335   3.299   3.514  15.483 -0.3891  0.3641 -0.2128
 6615TIP3    H141336   3.335   3.601  15.464 -0.0953  0.1084 -0.8588
 6615TIP3    H241337   3.283   3.515  15.577  1.9211  0.2981  0.2506
 6616TIP3   OH241338   6.335   1.794  12.507 -0.2683  0.0532  0.2828
 6616TIP3    H141339   6.243   1.796  12.481 -0.4619 -0.5183  0.9070
 6616TIP3    H241340   6.347   1.874  12.558 -0.8399 -0.6276  1.5378
 6617TIP3   OH241341   0.356   0.471  16.391  0.5711 -0.3112  0.1050
 6617TIP3    H141342   0.311   0.445  16.311  1.4225 -1.4569 -0.0163
 6617TIP3    H241343   0.433   0.520  16.360  1.0856 -1.0478  0.1950
 6618TIP3   OH241344   1.561   1.019   2.239 -0.1897  0.3940  0.7483
 6618TIP3    H141345   1.532   1.104   2.204 -1.7149  0.3137  1.6983
 6618TIP3    H241346   1.501   0.955   2.199 -1.5444  0.2352  2.8969
 6619TIP3   OH241347   3.509   1.460   2.322  0.0951 -0.1441 -0.5238
 6619TIP3    H141348   3.486   1.380   2.276  0.7149  0.1076 -1.2814
 6619TIP3    H241349   3.426   1.507   2.331 -0.5097 -1.4087  1.0531
 6620TIP3   OH241350   6.612   3.708  12.814  0.1623 -0.1428  0.6426
 6620TIP3    H141351   6.589   3.664  12.733  0.4707  0.5313  0.1784
 6620TIP3    H241352   6.562   3.662  12.882  0.0465 -0.8251  0.1007
 6621TIP3   OH241353   3.128   3.419  10.998 -0.5207 -0.3571 -0.0734
 6621TIP3    H141354   3.145   3.451  10.909 -0.1811 -0.6184 -0.1042
 6621TIP3    H241355   3.197   3.457  11.051 -0.1926 -0.9268 -0.0858
 6622TIP3   OH241356   6.380   6.444   4.995 -0.2602 -0.3507 -0.3489
 6622TIP3    H141357   6.394   6.522   4.942 -2.4438 -0.5726 -1.3510
 6622TIP3    H241358   6.423   6.374   4.946 -2.4943 -0.6044 -2.0761
 6623TIP3   OH241359   1.641   3.370  12.432 -0.6857  0.4369 -0.4734
 6623TIP3    H141360   1.709   3.354  12.366  0.2039 -0.1112  0.5528
 6623TIP3    H241361   1.572   3.306  12.410  0.0170 -0.3862 -0.3137
 6624TIP3   OH241362   4.517   1.105  15.427 -0.3103  0.1283 -0.3446
 6624TIP3    H141363   4.531   1.120  15.334 -0.6826  0.4424 -0.3560
 6624TIP3    H241364   4.422   1.102  15.437 -0.3481  1.7427  0.2522
 6625TIP3   OH241365   2.699   5.716   5.603  0.3077 -0.6965  0.0608
 6625TIP3    H141366   2.694   5.643   5.542 -0.9196 -0.5247 -0.0879
 6625TIP3    H241367   2.762   5.776   5.565 -1.9328  0.4141 -2.2286
 6626TIP3   OH241368   4.876   5.049  16.589  0.2016 -0.2651  0.0758
 6626TIP3    H141369   4.798   5.061  16.535  1.2114 -0.5921 -1.5127
 6626TIP3    H241370   4.843   5.052  16.679 -1.2058  2.8607 -0.4216
 6627TIP3   OH241371   0.698   5.618  16.550  0.4833  0.0291  0.1579
 6627TIP3    H141372   0.675   5.699  16.597 -1.8511  0.4875 -1.5904
 6627TIP3    H241373   0.640   5.552  16.587  0.9122 -0.3631  0.1367
 6628TIP3   OH241374   1.266   0.324  10.992  0.2843 -0.1986 -0.3800
 6628TIP3    H141375   1.230   0.292  11.075  0.1794  1.9512  0.4758
 6628TIP3    H241376   1.361   0.309  11.000  0.2073 -0.5533 -0.1187
 6629TIP3   OH241377   5.161   1.023  16.159 -0.3437 -0.7526 -0.3975
 6629TIP3    H141378   5.116   0.939  16.149 -0.9920 -0.3152 -1.3136
 6629TIP3    H241379   5.253   0.999  16.173 -0.6383 -1.6245  0.1701
 6630TIP3   OH241380   0.497   3.380   5.013 -0.3321 -0.3332 -0.7353
 6630TIP3    H141381   0.533   3.444   4.952  3.1779 -0.3474  1.0360
 6630TIP3    H241382   0.515   3.417   5.100 -3.2288 -1.2588  0.3986
 6631TIP3   OH241383   5.315   4.147  15.439  0.5696  0.0979  0.2620
 6631TIP3    H141384   5.316   4.219  15.376  1.2181  0.2184  0.4093
 6631TIP3    H241385   5.231   4.102  15.423 -0.1296  1.2533  0.6010
 6632TIP3   OH241386   5.389   1.904   6.357 -0.2601 -0.2482 -0.5327
 6632TIP3    H141387   5.301   1.939   6.346  0.1909  0.7852 -0.9866
 6632TIP3    H241388   5.379   1.809   6.343 -1.6285 -0.4598  1.4540
 6633TIP3   OH241389   5.842   3.849  16.852  0.6066 -0.1126  0.1485
 6633TIP3    H141390   5.932   3.854  16.821  0.7219 -1.3753  0.2183
 6633TIP3    H241391   5.791   3.900  16.788  1.4655  1.3953  0.6164
 6634TIP3   OH241392   0.427   2.700  11.111  0.2461  0.0411 -0.0556
 6634TIP3    H141393   0.448   2.788  11.080  0.6514 -0.5891 -1.6918
 6634TIP3    H241394   0.394   2.655  11.034 -0.1172 -1.2001  0.7940
 6635TIP3   OH241395   3.556   5.049  11.460 -0.7762  0.1891 -0.4389
 6635TIP3    H141396   3.620   5.007  11.517 -0.5913  0.1394 -0.6837
 6635TIP3    H241397   3.584   5.141  11.455 -1.5508  0.5039  0.6239
 6636TIP3   OH241398   2.028   4.221  13.057 -0.4460  0.1937  0.1708
 6636TIP3    H141399   2.043   4.294  13.118 -1.2626  0.0973  0.4930
 6636TIP3    H241400   1.957   4.251  13.000 -0.4362 -0.1559 -0.0293
 6637TIP3   OH241401   2.496   5.884   0.860  0.5513 -0.6353  0.2912
 6637TIP3    H141402   2.484   5.958   0.801 -0.5362 -1.7898 -0.9951
 6637TIP3    H241403   2.416   5.833   0.851  1.7968 -2.6682  0.1373
 6638TIP3   OH241404   0.755   1.344  11.692  0.1084  0.0060 -0.3372
 6638TIP3    H141405   0.677   1.397  11.677 -0.6686 -0.6263  1.2062
 6638TIP3    H241406   0.740   1.264  11.643 -0.5744 -0.4108  0.5203
 6639TIP3   OH241407   0.975   4.044   0.188  0.1687 -0.6847  0.1199
 6639TIP3    H141408   0.945   4.105   0.121  0.4642 -1.8313 -1.0978
 6639TIP3    H241409   0.906   3.977   0.192  1.2914 -1.9582 -0.8652
 6640TIP3   OH241410   2.512   2.509   4.103  0.6747 -0.8659  0.3068
 6640TIP3    H141411   2.607   2.508   4.091  0.7325 -1.4975  0.7617
 6640TIP3    H241412   2.498   2.573   4.173  0.6139  0.4202 -0.8448
 6641TIP3   OH241413   6.396   4.319  15.638  0.4313  0.2442 -0.2230
 6641TIP3    H141414   6.389   4.224  15.646 -2.0004  0.4505  1.3570
 6641TIP3    H241415   6.447   4.346  15.714 -1.3078  0.3312  0.9885
 6642TIP3   OH241416   3.272   4.336   2.206  0.0877  0.2499  0.1717
 6642TIP3    H141417   3.291   4.246   2.230  1.1339  0.3830 -0.1106
 6642TIP3    H241418   3.205   4.330   2.138  0.5015 -0.3331 -0.1829
 6643TIP3   OH241419   4.741   6.305  11.197  0.4653  0.0916  0.0552
 6643TIP3    H141420   4.708   6.390  11.168 -1.8243 -0.5569  0.5848
 6643TIP3    H241421   4.727   6.246  11.122 -0.7053 -0.4477  0.6760
 6644TIP3   OH241422   2.238   5.763  17.233  0.0403  0.0814  0.4016
 6644TIP3    H141423   2.146   5.757  17.209  0.1304 -0.1805  0.1206
 6644TIP3    H241424   2.270   5.673  17.229  0.4310  0.2354  0.0105
 6645TIP3   OH241425   3.149   2.477  12.796  0.2282 -0.4273  0.7633
 6645TIP3    H141426   3.110   2.465  12.709  0.3211 -0.7496  0.7666
 6645TIP3    H241427   3.229   2.527  12.779 -0.4016  0.6197  0.8025
 6646TIP3   OH241428   2.223   1.406  14.222 -0.1795  0.5649 -0.3984
 6646TIP3    H141429   2.170   1.471  14.268 -0.4904 -0.8800  1.3833
 6646TIP3    H241430   2.227   1.331  14.281  2.2179 -0.1488 -1.3330
 6647TIP3   OH241431   0.162   1.623   2.331 -0.4365 -0.4328 -0.1455
 6647TIP3    H141432   0.150   1.564   2.406  0.7301  0.4274  0.7560
 6647TIP3    H241433   0.230   1.582   2.278  0.2228 -0.0335  0.3712
 6648TIP3   OH241434   0.910   6.550  17.231 -0.2996 -0.0941 -0.2491
 6648TIP3    H141435   0.927   6.471  17.180  0.8772 -0.5988  0.8530
 6648TIP3    H241436   0.881   6.518  17.317 -0.1229  0.6655  0.1073
 6649TIP3   OH241437   3.251   6.698  11.283 -0.0438 -0.0948 -0.0611
 6649TIP3    H141438   3.256   6.603  11.271  0.0928 -0.3790  1.8783
 6649TIP3    H241439   3.342   6.726  11.290 -0.0319  0.3759 -1.7024
 6650TIP3   OH241440   2.090   1.839  11.775 -0.4424 -0.1406 -0.4089
 6650TIP3    H141441   2.087   1.745  11.754 -0.3850  0.0372 -1.2565
 6650TIP3    H241442   2.144   1.844  11.854  2.0407 -0.5966 -1.9516
 6651TIP3   OH241443   1.953   4.461  16.014 -0.0992 -0.4915 -0.5463
 6651TIP3    H141444   1.860   4.464  16.034 -0.5088 -2.9270 -1.7118
 6651TIP3    H241445   1.975   4.368  16.014  1.9455 -0.0836 -1.9520
 6652TIP3   OH241446   5.232   0.363   1.035  0.1800 -0.7040 -0.1576
 6652TIP3    H141447   5.254   0.339   0.945  0.1977  0.8134 -0.5776
 6652TIP3    H241448   5.211   0.279   1.077  0.8474 -1.5113 -1.3700
 6653TIP3   OH241449   0.018   4.940   1.848 -0.4964 -0.2017  0.5547
 6653TIP3    H141450  -0.029   4.856   1.853  0.3684 -0.6134  2.5409
 6653TIP3    H241451   0.003   4.981   1.933  0.1627  1.0799  0.0748
 6654TIP3   OH241452   3.520   0.127  10.938  0.7967 -0.0320 -0.4714
 6654TIP3    H141453   3.520   0.156  10.846  0.8408 -1.2381 -0.8698
 6654TIP3    H241454   3.611   0.140  10.967  0.9500 -0.2844 -0.8220
 6655TIP3   OH241455   4.527   4.666  14.647 -0.6946 -0.7513  0.2047
 6655TIP3    H141456   4.615   4.645  14.615 -0.6301 -1.0147  0.5565
 6655TIP3    H241457   4.471   4.653  14.571 -0.2338  0.9906 -0.5037
 6656TIP3   OH241458   2.073   3.426  14.060 -0.2179  0.1179  0.2767
 6656TIP3    H141459   1.988   3.445  14.100 -0.0939  1.9111 -0.2398
 6656TIP3    H241460   2.056   3.427  13.966  0.2102 -0.3689  0.1921
 6657TIP3   OH241461   2.082   0.964   5.536 -0.5034 -0.4052  0.2926
 6657TIP3    H141462   2.106   0.882   5.580 -2.2673 -1.6988 -1.0340
 6657TIP3    H241463   2.001   0.943   5.488  0.9224  1.0785 -3.0471
 6658TIP3   OH241464   3.365   2.798  11.876  0.1290 -0.0187 -0.0831
 6658TIP3    H141465   3.308   2.871  11.901  1.5958  1.1290  0.0845
 6658TIP3    H241466   3.377   2.748  11.957 -0.9662 -0.5345 -0.2215
 6659TIP3   OH241467   3.998   4.572   0.191 -0.4124  0.1050 -0.3518
 6659TIP3    H141468   3.966   4.552   0.103 -0.1697  0.7065 -0.5802
 6659TIP3    H241469   4.015   4.666   0.190  0.2961 -0.0126  0.1112
 6660TIP3   OH241470   5.496   6.252   0.100 -0.2862 -0.4259  0.1483
 6660TIP3    H141471   5.454   6.172   0.132 -1.1207 -0.5017 -1.0869
 6660TIP3    H241472   5.436   6.285   0.033  1.4357 -0.3165 -1.3963
 6661TIP3   OH241473   4.007   0.886  16.038 -0.0380 -0.3120  0.2419
 6661TIP3    H141474   4.000   0.973  15.999  2.1601  0.6527  1.7951
 6661TIP3    H241475   3.998   0.826  15.965 -1.2298  1.2058 -0.9272
 6662TIP3   OH241476   2.643   3.935  11.478  0.3153 -0.2016 -0.4686
 6662TIP3    H141477   2.727   3.895  11.502 -0.2048 -0.8129  0.4032
 6662TIP3    H241478   2.647   4.023  11.515 -0.8407 -1.4152  2.9487
 6663TIP3   OH241479   3.455   3.373   5.482 -0.5697  0.8779  0.0167
 6663TIP3    H141480   3.450   3.278   5.474  1.2594  0.5761  1.7195
 6663TIP3    H241481   3.472   3.404   5.393  2.1983 -0.7214 -0.1092
 6664TIP3   OH241482   3.830   3.394  15.409 -0.2106 -0.3874  0.3494
 6664TIP3    H141483   3.908   3.392  15.353 -0.2500 -1.6159  0.3280
 6664TIP3    H241484   3.817   3.304  15.436 -1.4513 -0.1466  0.6115
 6665TIP3   OH241485   2.164   0.500  14.720  0.1961  0.2055 -0.1472
 6665TIP3    H141486   2.129   0.476  14.634 -1.0159  0.8563  0.1530
 6665TIP3    H241487   2.257   0.475  14.715  0.2916  0.7645 -1.8476
 6666TIP3   OH241488   3.296   1.492   5.383 -0.3394 -0.0622  0.0451
 6666TIP3    H141489   3.346   1.421   5.342  0.2074  1.4350 -2.0273
 6666TIP3    H241490   3.362   1.557   5.407 -1.0904  1.1204 -0.9923
 6667TIP3   OH241491   6.428   5.941  12.834  0.7668 -0.1822 -0.3234
 6667TIP3    H141492   6.472   5.989  12.764  0.3253  0.9412  0.1620
 6667TIP3    H241493   6.494   5.934  12.903 -0.2255  3.0620  1.1420
 6668TIP3   OH241494   6.412   2.129   5.837  0.4121 -0.2459  0.2800
 6668TIP3    H141495   6.506   2.134   5.821  0.1928  1.8435 -0.7662
 6668TIP3    H241496   6.403   2.135   5.932  1.3380 -0.4870  0.3874
 6669TIP3   OH241497   2.237   0.863  15.755  0.4115 -0.2540  0.4267
 6669TIP3    H141498   2.244   0.806  15.679 -0.5526 -0.9532  0.8468
 6669TIP3    H241499   2.197   0.943  15.721 -1.3865 -1.1015  0.4230
 6670TIP3   OH241500   1.663   0.103   0.968  0.4589  0.3084 -0.0162
 6670TIP3    H141501   1.710   0.067   0.893  0.3828  1.6756 -0.7330
 6670TIP3    H241502   1.672   0.198   0.959 -1.4973  0.5646  0.4371
 6671TIP3   OH241503   2.578   1.839  15.621  0.1633  0.2212  0.1578
 6671TIP3    H141504   2.613   1.927  15.638 -0.5711  0.4455  0.5496
 6671TIP3    H241505   2.484   1.852  15.617  0.0878 -0.4696 -0.3332
 6672TIP3   OH241506   6.065   0.530  15.862 -0.6638 -0.4331  0.3161
 6672TIP3    H141507   6.012   0.492  15.932 -1.4268  0.4908  0.2644
 6672TIP3    H241508   6.109   0.605  15.903  0.6705 -1.2186  0.3722
 6673TIP3   OH241509   2.819   3.750  11.687  0.1608  0.1863 -0.3858
 6673TIP3    H141510   2.743   3.698  11.659  1.3868 -0.0001 -3.7016
 6673TIP3    H241511   2.785   3.839  11.696 -0.8647 -0.2476  0.2592
 6674TIP3   OH241512   4.243   2.362  13.392 -0.1621 -0.2399  0.0479
 6674TIP3    H141513   4.194   2.280  13.395  1.1245 -1.0408  0.0201
 6674TIP3    H241514   4.234   2.399  13.480  0.1776 -0.9836  0.4009
 6675TIP3   OH241515   1.388   6.670  16.130  0.1378  0.2842  0.2345
 6675TIP3    H141516   1.465   6.614  16.129  1.7460  2.3843 -0.1144
 6675TIP3    H241517   1.384   6.705  16.219 -0.7152 -0.1550  0.3837
 6676TIP3   OH241518   5.952   1.709   3.992 -0.5795 -0.1476 -0.0018
 6676TIP3    H141519   6.001   1.770   4.048  0.1027 -1.4435  0.8607
 6676TIP3    H241520   5.944   1.755   3.909  0.7313  0.7573  0.3351
 6677TIP3   OH241521   4.906   0.940  15.992  0.4238 -0.2918 -0.4049
 6677TIP3    H141522   4.878   1.012  16.049 -1.8700 -1.4654  0.0444
 6677TIP3    H241523   4.905   0.978  15.904  1.5615  0.8392  0.0329
 6678TIP3   OH241524   0.213   4.429   2.771 -0.1340 -0.4107  0.6656
 6678TIP3    H141525   0.202   4.438   2.866 -1.5286  1.4877  0.3846
 6678TIP3    H241526   0.305   4.451   2.756  0.0570 -0.5425  1.5534
 6679TIP3   OH241527   3.469   5.660   3.297  0.5389 -0.4030 -0.2529
 6679TIP3    H141528   3.393   5.714   3.318  0.7267 -0.9844  2.2320
 6679TIP3    H241529   3.436   5.571   3.296  0.6710 -0.4787 -2.1294
 6680TIP3   OH241530   4.611   4.055   0.651  0.0701 -0.0566 -0.3063
 6680TIP3    H141531   4.535   4.052   0.709  1.2529  1.1179  1.4419
 6680TIP3    H241532   4.595   3.988   0.586 -2.1789 -0.2358  0.3415
 6681TIP3   OH241533   4.915   6.150  15.956  1.7917  0.0590  0.0996
 6681TIP3    H141534   4.971   6.174  15.882  1.3742  0.9432  0.0483
 6681TIP3    H241535   4.975   6.141  16.030  1.9894  1.2553  0.1049
 6682TIP3   OH241536   2.964   0.376  13.562  0.3085 -0.2223  0.5643
 6682TIP3    H141537   2.974   0.469  13.582  1.1367 -0.1220 -0.2176
 6682TIP3    H241538   2.871   0.357  13.577 -0.5878  1.4745 -2.1033
 6683TIP3   OH241539   1.625   2.925  13.082  0.1670 -0.2453 -0.0773
 6683TIP3    H141540   1.603   3.017  13.091 -2.5309 -0.9297  1.3426
 6683TIP3    H241541   1.542   2.882  13.061  1.6920 -2.1525 -2.7283
 6684TIP3   OH241542   4.737   5.032  15.869 -0.4290  0.0563  0.2455
 6684TIP3    H141543   4.809   5.073  15.820 -0.1901  1.2793  1.5532
 6684TIP3    H241544   4.774   4.951  15.903 -0.0979 -0.0016 -0.2453
 6685TIP3   OH241545   0.604   2.443  16.969 -0.0795 -0.2590  0.0985
 6685TIP3    H141546   0.629   2.434  17.061  0.4200 -1.7176 -0.1405
 6685TIP3    H241547   0.593   2.537  16.955 -1.5917 -0.0918  1.9976
 6686TIP3   OH241548   1.176   3.999   4.196  0.2387  0.4745 -0.2088
 6686TIP3    H141549   1.100   4.010   4.254  0.1808 -0.4118 -0.1016
 6686TIP3    H241550   1.236   4.069   4.221  0.1713  0.1747  0.8570
 6687TIP3   OH241551   1.143   6.697   1.784 -0.2894 -0.4429 -0.5950
 6687TIP3    H141552   1.148   6.688   1.879  1.6219  1.0965 -0.4930
 6687TIP3    H241553   1.066   6.752   1.769 -0.7507 -0.9026  0.0208
 6688TIP3   OH241554   4.073   4.092  14.950 -0.0164  0.3370 -0.0719
 6688TIP3    H141555   4.167   4.096  14.967  0.1546  1.8605 -1.2190
 6688TIP3    H241556   4.057   3.999  14.932  0.8665 -0.2966  2.0725
 6689TIP3   OH241557   2.593   0.369  12.308  0.5982 -0.1905 -0.4440
 6689TIP3    H141558   2.581   0.280  12.274  1.1923 -0.4939  0.0892
 6689TIP3    H241559   2.593   0.425  12.231  0.6021 -0.7082 -0.8265
 6690TIP3   OH241560   3.866   4.462  16.611  0.0092  0.2862 -0.3220
 6690TIP3    H141561   3.940   4.490  16.665  0.3685 -0.2359 -0.5307
 6690TIP3    H241562   3.838   4.542  16.566  1.1574  0.2985 -1.0742
 6691TIP3   OH241563   5.648   0.221  15.780 -0.4714 -0.0892 -0.2453
 6691TIP3    H141564   5.686   0.242  15.866  1.7995 -0.0172 -1.1913
 6691TIP3    H241565   5.560   0.257  15.784  0.0766  1.2325  1.5377
 6692TIP3   OH241566   5.784   4.972  17.061  0.3346  0.4117  0.0130
 6692TIP3    H141567   5.796   4.891  17.112  2.6834  1.8776  2.0055
 6692TIP3    H241568   5.749   5.035  17.124  2.2525  1.9871 -0.4157
 6693TIP3   OH241569   3.895   6.350   0.018 -0.0370 -0.7321  0.4054
 6693TIP3    H141570   3.842   6.363   0.098  1.5408  0.2191  1.3555
 6693TIP3    H241571   3.958   6.283   0.042 -1.0751 -2.2356 -0.8934
 6694TIP3   OH241572   5.107   1.779  14.679  0.6457 -0.5564  0.3986
 6694TIP3    H141573   5.122   1.868  14.712 -0.2518 -1.4381  3.5520
 6694TIP3    H241574   5.194   1.747  14.655  1.4751  0.0884  2.3543
 6695TIP3   OH241575   2.916   1.850  16.747 -0.0756 -0.2910 -0.2002
 6695TIP3    H141576   2.831   1.807  16.743 -0.7563  1.0275 -0.6718
 6695TIP3    H241577   2.895   1.944  16.749  1.2845  0.0494  2.1315
 6696TIP3   OH241578   0.619   3.311  15.396 -0.2258  0.1449  0.3724
 6696TIP3    H141579   0.557   3.360  15.449  2.3493  1.9205  2.0002
 6696TIP3    H241580   0.692   3.292  15.456  0.7426 -2.0411 -1.3443
 6697TIP3   OH241581   0.098   4.233   0.321  0.0701 -0.7382 -0.0206
 6697TIP3    H141582   0.051   4.176   0.261 -1.3102 -0.0982  0.4030
 6697TIP3    H241583   0.108   4.315   0.273  0.8779 -0.9123 -0.1523
 6698TIP3   OH241584   2.499   0.409   3.429  0.4801 -0.0708  0.2269
 6698TIP3    H141585   2.458   0.369   3.353 -0.0414  0.2747  0.3210
 6698TIP3    H241586   2.515   0.500   3.404 -2.4991  0.9527  1.5011
 6699TIP3   OH241587   5.847   5.842   2.315  0.0706  0.1618 -0.5273
 6699TIP3    H141588   5.758   5.877   2.305  0.5438  1.5296 -0.0704
 6699TIP3    H241589   5.897   5.883   2.245  0.8189  1.0810  0.5113
 6700TIP3   OH241590   6.786   2.465  16.980 -0.2859 -0.2128 -0.6644
 6700TIP3    H141591   6.734   2.465  17.060 -2.2165  1.5561 -1.8035
 6700TIP3    H241592   6.843   2.389  16.988  0.1605  0.3345  2.6938
 6701TIP3   OH241593   2.513   5.832  16.915  0.5309 -0.2804 -0.7100
 6701TIP3    H141594   2.581   5.854  16.979  0.7862  0.8891 -1.3745
 6701TIP3    H241595   2.468   5.757  16.954  1.2497 -0.1435  0.4290
 6702TIP3   OH241596   2.602   4.824   3.745  0.3494  0.6064 -0.0860
 6702TIP3    H141597   2.577   4.910   3.781 -0.0670  0.6872 -0.5541
 6702TIP3    H241598   2.575   4.828   3.653 -0.9258 -0.5143  0.2051
 6703TIP3   OH241599   4.476   2.096  15.205 -0.1327 -0.6638 -0.2420
 6703TIP3    H141600   4.542   2.030  15.183  0.3029  0.1111 -1.3315
 6703TIP3    H241601   4.394   2.047  15.215  0.3264 -1.4495 -0.2929
 6704TIP3   OH241602   3.242   5.284  16.978 -0.2134 -0.1689  0.6058
 6704TIP3    H141603   3.213   5.352  16.918 -0.0777  0.2431  1.0014
 6704TIP3    H241604   3.338   5.289  16.975 -0.1496 -1.4456 -0.6101
 6705TIP3   OH241605   3.206   6.428  14.681  0.3427  0.0855  0.3516
 6705TIP3    H141606   3.215   6.341  14.641 -0.8767  0.7350 -1.4924
 6705TIP3    H241607   3.138   6.417  14.747 -0.7777 -0.1353 -0.7841
 6706TIP3   OH241608   0.135   2.758  15.081 -0.7881  0.2540 -0.3763
 6706TIP3    H141609   0.120   2.764  15.175  0.7129  0.3109 -0.1182
 6706TIP3    H241610   0.176   2.842  15.058  0.6930 -0.5242 -0.6922
 6707TIP3   OH241611   2.747   6.507   1.646 -0.1689 -0.0114 -0.9241
 6707TIP3    H141612   2.729   6.599   1.630 -1.6354 -0.0313  0.4249
 6707TIP3    H241613   2.791   6.505   1.731 -0.7438 -0.6047 -0.6334
 6708TIP3   OH241614   1.600   2.316  10.788  0.1032  0.1311  0.1321
 6708TIP3    H141615   1.688   2.277  10.789 -0.0678 -0.2645  0.9446
 6708TIP3    H241616   1.595   2.367  10.868  0.2034  1.6149 -0.7700
 6709TIP3   OH241617   6.654   3.279   5.431 -0.4224  0.0152 -0.0193
 6709TIP3    H141618   6.706   3.311   5.357 -0.7153 -0.9309 -0.6478
 6709TIP3    H241619   6.613   3.199   5.399 -2.5031  0.8657  0.3721
 6710TIP3   OH241620   3.579   0.095   2.867 -0.2177  0.4339  0.1587
 6710TIP3    H141621   3.635   0.170   2.887 -0.7472  1.0474 -0.6025
 6710TIP3    H241622   3.505   0.133   2.818 -0.2701 -0.6388 -0.6205
 6711TIP3   OH241623   1.466   1.586   3.276  0.0121  0.0896  0.0116
 6711TIP3    H141624   1.461   1.501   3.321 -0.5457 -0.5595 -1.2225
 6711TIP3    H241625   1.542   1.629   3.314 -0.1748 -0.6138  1.2481
 6712TIP3   OH241626   4.515   1.352  12.706  0.3350 -0.5057 -0.1402
 6712TIP3    H141627   4.511   1.257  12.691 -0.5598 -0.3312 -1.0655
 6712TIP3    H241628   4.601   1.377  12.673 -0.1596 -0.7176 -1.6500
 6713TIP3   OH241629   1.651   3.297  16.148 -0.0215 -0.5716  0.0429
 6713TIP3    H141630   1.725   3.273  16.203 -0.5284  0.1867  1.0810
 6713TIP3    H241631   1.579   3.240  16.177 -0.2420 -0.2881  0.0650
 6714TIP3   OH241632   5.183   5.189  13.801  0.0538  0.2375 -0.2322
 6714TIP3    H141633   5.183   5.284  13.789 -1.0114  0.0274 -2.4490
 6714TIP3    H241634   5.176   5.154  13.712  0.1882 -1.9281  0.5486
 6715TIP3   OH241635   5.842   2.290   1.890  0.0248  0.2910  0.1350
 6715TIP3    H141636   5.804   2.296   1.802  2.1249  0.1086 -0.8442
 6715TIP3    H241637   5.768   2.267   1.946 -1.5386  1.1959 -1.4308
 6716TIP3   OH241638   6.015   0.177  15.501  0.0702  0.5384  0.3128
 6716TIP3    H141639   5.978   0.131  15.425 -1.4797  1.0297  0.7319
 6716TIP3    H241640   6.029   0.109  15.566  2.4132 -0.0724 -0.7037
 6717TIP3   OH241641   2.014   2.174  14.519  0.4882  0.6214 -0.7146
 6717TIP3    H141642   1.988   2.244  14.460  0.2080 -0.2324 -1.6446
 6717TIP3    H241643   1.991   2.094  14.472 -1.3024 -0.0974  1.2542
 6718TIP3   OH241644   1.595   1.976  14.996 -0.1709  0.3000  0.0082
 6718TIP3    H141645   1.641   1.906  15.043 -0.2480 -0.4378 -0.9903
 6718TIP3    H241646   1.624   2.056  15.040  0.3533 -0.3096  0.8161
 6719TIP3   OH241647   3.561   2.475  16.109 -0.2244 -0.6543 -0.1203
 6719TIP3    H141648   3.583   2.384  16.130 -0.6325 -0.8058 -0.3280
 6719TIP3    H241649   3.569   2.481  16.014  0.2919 -0.3329 -0.0634
 6720TIP3   OH241650   0.643   0.590  14.102 -0.2889 -0.3536  0.1436
 6720TIP3    H141651   0.642   0.656  14.034  0.2300 -0.7621 -0.2676
 6720TIP3    H241652   0.696   0.519  14.066  0.8456 -0.1628  1.3563
 6721TIP3   OH241653   4.421   0.562   0.730 -0.1549 -0.2821  0.6612
 6721TIP3    H141654   4.405   0.495   0.797 -0.0311  0.6118  1.6068
 6721TIP3    H241655   4.374   0.639   0.762  0.5625  0.3955  0.1065
 6722TIP3   OH241656   1.910   0.487  16.280 -0.4740 -0.4334 -0.3897
 6722TIP3    H141657   1.991   0.459  16.322 -0.0648  0.9144 -0.2083
 6722TIP3    H241658   1.895   0.575  16.314 -1.4762 -0.2729 -1.1870
 6723TIP3   OH241659   3.390   5.886   0.269 -0.3372  0.0211  0.2066
 6723TIP3    H141660   3.409   5.980   0.269 -1.6406  0.3049 -0.3303
 6723TIP3    H241661   3.471   5.845   0.239 -0.2291  1.1037 -1.1038
 6724TIP3   OH241662   0.317   5.327  15.461  0.4623  0.0829  0.1456
 6724TIP3    H141663   0.371   5.405  15.471 -0.4141  0.6778  0.3573
 6724TIP3    H241664   0.328   5.301  15.370 -0.5929  1.5027 -0.4381
 6725TIP3   OH241665   6.176   2.312  16.992  0.5612 -0.0562  0.2392
 6725TIP3    H141666   6.257   2.326  16.942  0.5593  0.5393  0.3917
 6725TIP3    H241667   6.193   2.232  17.042 -0.3832 -2.1593 -2.5817
 6726TIP3   OH241668   5.629   4.120   4.370  0.1566  0.7485  0.7316
 6726TIP3    H141669   5.612   4.117   4.276 -1.3597 -0.1816  1.0052
 6726TIP3    H241670   5.609   4.211   4.395  1.3428  1.2229  0.0613
 6727TIP3   OH241671   4.358   5.369  16.675  0.3688  0.1909  0.6649
 6727TIP3    H141672   4.401   5.312  16.738 -0.5248 -1.4354 -0.1475
 6727TIP3    H241673   4.383   5.334  16.590  0.7096  1.7253  0.0984
 6728TIP3   OH241674   2.655   1.243  11.730  0.2547  0.1196  0.3898
 6728TIP3    H141675   2.705   1.324  11.729  0.9347 -0.2827  0.8515
 6728TIP3    H241676   2.567   1.268  11.702  0.7462  0.8100 -0.5577
 6729TIP3   OH241677   4.703   0.054   6.444  0.3897 -0.4495 -0.6366
 6729TIP3    H141678   4.697   0.010   6.358  1.2856 -0.6467 -0.6129
 6729TIP3    H241679   4.665   0.140   6.430 -0.1920 -0.7656 -1.0315
 6730TIP3   OH241680   6.655   3.556  14.755 -0.3001 -0.5270  0.5553
 6730TIP3    H141681   6.696   3.500  14.689  0.6326 -0.5683  1.1473
 6730TIP3    H241682   6.635   3.637  14.709  0.9264 -0.3198  0.3518
 6731TIP3   OH241683   3.375   3.672  11.818  0.1844  0.0796 -0.2641
 6731TIP3    H141684   3.304   3.637  11.871  0.2439  0.0520 -0.2024
 6731TIP3    H241685   3.385   3.763  11.849 -0.0687  0.1975 -0.5289
 6732TIP3   OH241686   2.822   0.380   0.716 -0.2997  0.2091 -0.4366
 6732TIP3    H141687   2.859   0.321   0.651 -0.1441 -0.2901  0.0969
 6732TIP3    H241688   2.896   0.433   0.746  0.0494 -0.8768  0.7244
 6733TIP3   OH241689   2.070   3.253   1.704 -1.1086 -0.1339  0.3272
 6733TIP3    H141690   2.139   3.190   1.725 -1.2480 -0.3329  0.1841
 6733TIP3    H241691   2.080   3.269   1.610 -0.7662  0.4237  0.4547
 6734TIP3   OH241692   1.022   5.616   4.526  0.2970  0.1800 -0.2400
 6734TIP3    H141693   0.988   5.531   4.554 -1.6973  0.7145 -0.8832
 6734TIP3    H241694   0.951   5.655   4.475  1.5529  1.8067 -0.8464
 6735TIP3   OH241695   1.894   2.368  13.450  0.0066 -0.7688 -0.4352
 6735TIP3    H141696   1.927   2.304  13.514  0.5530 -0.4266 -0.3691
 6735TIP3    H241697   1.808   2.394  13.485  0.3434 -0.5090  0.2235
 6736TIP3   OH241698   2.420   1.810  13.620 -0.2712 -0.7468 -0.1752
 6736TIP3    H141699   2.436   1.736  13.679  1.6007  0.4830  0.9297
 6736TIP3    H241700   2.349   1.859  13.662 -0.4183 -1.0320 -0.0844
 6737TIP3   OH241701   2.541   6.709   3.177  0.6209 -0.5756 -0.3593
 6737TIP3    H141702   2.529   6.686   3.269  0.5023  0.3330 -0.1386
 6737TIP3    H241703   2.594   6.789   3.179 -1.8553  1.1887 -0.9385
 6738TIP3   OH241704   1.054   1.689  15.233  0.0819 -0.0833  0.3984
 6738TIP3    H141705   1.073   1.780  15.207  1.7173  0.0402  1.8392
 6738TIP3    H241706   1.066   1.639  15.152 -0.6931  0.9391 -0.3870
 6739TIP3   OH241707   3.229   3.101   0.227 -0.1053  0.0245 -0.0188
 6739TIP3    H141708   3.245   3.017   0.183 -1.4821 -1.0181  1.3617
 6739TIP3    H241709   3.172   3.149   0.168 -0.7132 -0.7351 -0.0517
 6740TIP3   OH241710   5.948   1.563  16.545 -0.2730  0.1865  0.1759
 6740TIP3    H141711   5.919   1.640  16.496 -1.7576 -0.2728  0.2797
 6740TIP3    H241712   5.899   1.490  16.505  2.0288 -0.9388 -0.7779
 6741TIP3   OH241713   5.478   1.396   4.319  0.2061  0.1957 -0.4694
 6741TIP3    H141714   5.434   1.469   4.361  0.3896 -0.2907  0.5867
 6741TIP3    H241715   5.417   1.323   4.326  0.9694 -0.3609  0.5840
 6742TIP3   OH241716   2.605   4.133   5.125  0.2537  0.4097 -0.5263
 6742TIP3    H141717   2.635   4.092   5.044  0.2808  1.2841 -0.9770
 6742TIP3    H241718   2.546   4.203   5.096  0.6966  1.0871  0.1777
 6743TIP3   OH241719   1.853   2.483   1.794  0.8159 -0.2378  0.0590
 6743TIP3    H141720   1.921   2.470   1.729 -1.1963  3.9699 -3.4213
 6743TIP3    H241721   1.887   2.553   1.851  0.9585 -1.0448  0.9896
 6744TIP3   OH241722   6.094   1.748   4.468  0.2987  0.1908  0.6807
 6744TIP3    H141723   6.116   1.662   4.505  0.7227 -0.0985 -0.2179
 6744TIP3    H241724   6.050   1.794   4.539  1.7246 -0.0821  1.7820
 6745TIP3   OH241725   3.184   6.499   4.786  0.3678 -0.5246 -0.3231
 6745TIP3    H141726   3.238   6.573   4.815  0.5104 -1.6080  2.4181
 6745TIP3    H241727   3.095   6.535   4.781  0.6216  0.1291 -0.2787
 6746TIP3   OH241728   6.568   2.575   3.131 -0.1706  0.2839  0.2347
 6746TIP3    H141729   6.549   2.584   3.225 -2.4210  0.8385 -0.2313
 6746TIP3    H241730   6.566   2.481   3.115 -1.4851  0.2641  0.4450
 6747TIP3   OH241731   0.237   0.854  12.576 -0.6148 -0.1384  0.4520
 6747TIP3    H141732   0.248   0.781  12.516 -1.6446 -1.4907  1.8336
 6747TIP3    H241733   0.252   0.817  12.663 -1.3256  1.2333  1.2026
 6748TIP3   OH241734   0.147   1.480  13.039 -0.1643 -0.4313 -0.0937
 6748TIP3    H141735   0.201   1.547  12.996 -0.4461 -0.0644  0.1231
 6748TIP3    H241736   0.196   1.456  13.118 -0.9214  0.8422  0.7911
 6749TIP3   OH241737   1.710   5.467  16.786 -0.1025  0.2281  0.1495
 6749TIP3    H141738   1.675   5.381  16.811  1.8965 -0.9317 -0.8003
 6749TIP3    H241739   1.632   5.522  16.777 -1.7137 -2.0775 -1.4860
 6750TIP3   OH241740   1.079   2.142   2.287 -0.3437 -0.1601  0.3174
 6750TIP3    H141741   1.125   2.068   2.327  2.2536  1.6309  0.9320
 6750TIP3    H241742   1.143   2.179   2.225 -1.7070  1.3277 -0.2761
 6751TIP3   OH241743   2.259   5.430  15.938  0.4928  0.2353 -0.1951
 6751TIP3    H141744   2.280   5.456  16.028  1.2679 -0.5962 -0.1306
 6751TIP3    H241745   2.241   5.336  15.943  0.9055  0.1042 -0.9696
 6752TIP3   OH241746   4.735   3.243   5.177  0.1329  0.5394 -0.6472
 6752TIP3    H141747   4.651   3.253   5.221  0.1048  0.2551 -0.6333
 6752TIP3    H241748   4.774   3.331   5.179  1.3578  0.0763  2.4118
 6753TIP3   OH241749   6.734   3.757   1.543 -0.1122 -0.0898  0.3690
 6753TIP3    H141750   6.663   3.807   1.501  0.5724  0.2265 -0.4590
 6753TIP3    H241751   6.784   3.721   1.469  0.0418 -1.1041  0.9487
 6754TIP3   OH241752   2.736   0.091  12.063 -0.4023  1.0469 -0.7198
 6754TIP3    H141753   2.723   0.150  11.989 -0.0057  0.6228 -1.1313
 6754TIP3    H241754   2.831   0.084  12.073 -0.4382  2.1295  0.6744
 6755TIP3   OH241755   6.023   5.643   3.971  0.5936  0.0987 -0.3376
 6755TIP3    H141756   6.039   5.646   4.065 -0.1680 -0.8516 -0.1588
 6755TIP3    H241757   5.947   5.699   3.957 -1.3044 -2.2002  0.1208
 6756TIP3   OH241758   1.048   4.631  16.139  0.0208 -0.4224  0.5169
 6756TIP3    H141759   1.143   4.633  16.148 -0.0659 -1.5179  2.1423
 6756TIP3    H241760   1.024   4.539  16.154 -1.2210 -0.3888 -0.9689
 6757TIP3   OH241761   0.280   6.804  16.544 -0.0011  0.2251 -0.1580
 6757TIP3    H141762   0.362   6.754  16.547  0.7896  1.3422 -1.5825
 6757TIP3    H241763   0.308   6.896  16.546 -1.4003  0.6836  2.3160
 6758TIP3   OH241764   5.608   1.727  16.103  0.1318 -0.5081  0.8358
 6758TIP3    H141765   5.695   1.757  16.076 -0.1995  0.0339  0.3688
 6758TIP3    H241766   5.547   1.789  16.063 -0.4158 -0.1520  2.1623
 6759TIP3   OH241767   3.407   4.171   5.621  0.6020  0.2655  0.6201
 6759TIP3    H141768   3.467   4.194   5.551  2.0600 -1.3766  1.2690
 6759TIP3    H241769   3.344   4.112   5.580 -0.4689  1.7697  0.0060
 6760TIP3   OH241770   6.714   6.168   0.782 -0.3337 -0.0335 -0.1201
 6760TIP3    H141771   6.732   6.120   0.862 -0.5093  0.1814  0.0505
 6760TIP3    H241772   6.687   6.101   0.719  0.4605 -0.2801 -0.2044
 6761TIP3   OH241773   6.625   0.489   4.349  0.1684  1.0242 -0.2389
 6761TIP3    H141774   6.610   0.563   4.408 -1.2693  0.1095  0.6069
 6761TIP3    H241775   6.685   0.523   4.283 -0.1353  2.8250  0.3509
 6762TIP3   OH241776   6.171   1.803   4.203 -0.7805 -0.5099 -0.3114
 6762TIP3    H141777   6.166   1.777   4.295  0.3840  1.0995  0.2562
 6762TIP3    H241778   6.255   1.768   4.173  0.2774  1.4767  0.1496
 6763TIP3   OH241779   4.053   0.224  13.681  0.2641 -0.2051 -0.4583
 6763TIP3    H141780   4.139   0.184  13.666 -0.3633 -1.6069 -0.5046
 6763TIP3    H241781   4.007   0.215  13.598 -0.5119 -1.0099  0.0406
 6764TIP3   OH241782   3.719   1.403   4.332  0.7609 -0.1805  0.1799
 6764TIP3    H141783   3.713   1.422   4.425  0.2938 -2.0244  0.5824
 6764TIP3    H241784   3.790   1.458   4.300  0.2858  1.2037  1.4047
 6765TIP3   OH241785   4.871   6.152  13.398 -0.1696  0.1046 -0.1138
 6765TIP3    H141786   4.811   6.224  13.381  0.5838  0.3898 -1.6654
 6765TIP3    H241787   4.957   6.185  13.374  0.5534 -0.5273  1.4342
 6766TIP3   OH241788   3.828   2.487  15.940 -0.2070 -0.6070  0.1336
 6766TIP3    H141789   3.739   2.462  15.914 -1.7681 -2.4423  5.6333
 6766TIP3    H241790   3.817   2.572  15.983  1.6654  1.1237 -2.5278
 6767TIP3   OH241791   4.522   5.859  13.516  0.5077  0.3664  0.4009
 6767TIP3    H141792   4.613   5.834  13.531  0.6735  0.2525 -0.7473
 6767TIP3    H241793   4.526   5.954  13.500  0.6345  0.1080 -1.2023
 6768TIP3   OH241794   3.549   5.196   0.605 -0.1296  0.3398 -0.4712
 6768TIP3    H141795   3.535   5.206   0.699 -0.5405  1.1630 -0.6073
 6768TIP3    H241796   3.610   5.267   0.582  0.9773 -0.6281 -0.6168
 6769TIP3   OH241797   3.722   0.153  16.323 -0.1662 -0.1615 -0.3238
 6769TIP3    H141798   3.636   0.144  16.364  0.1365 -0.7650  0.1858
 6769TIP3    H241799   3.742   0.246  16.330 -0.4047 -0.1573  0.3181
 6770TIP3   OH241800   1.280   1.112   4.991 -0.1396 -0.4394  0.4646
 6770TIP3    H141801   1.274   1.052   5.066 -2.5924  0.0642  0.7495
 6770TIP3    H241802   1.202   1.093   4.939  0.0826  1.1356 -0.4993
 6771TIP3   OH241803   3.126   2.074   1.598  0.2351  0.3673 -0.2886
 6771TIP3    H141804   3.141   2.160   1.559 -0.4094  0.7175  0.2285
 6771TIP3    H241805   3.031   2.063   1.597  0.1947  0.4105  1.2409
 6772TIP3   OH241806   2.305   5.968  13.460 -0.4720 -0.2166 -0.2234
 6772TIP3    H141807   2.278   6.025  13.389  1.4968  0.0466 -0.8133
 6772TIP3    H241808   2.276   6.012  13.539 -3.0872 -0.7213 -0.7967
 6773TIP3   OH241809   0.857   4.582   4.180  0.1457 -0.2226  0.0973
 6773TIP3    H141810   0.787   4.518   4.165  0.2838 -0.0742 -1.3168
 6773TIP3    H241811   0.813   4.657   4.221 -0.0229 -1.1736  1.7450
 6774TIP3   OH241812   0.271   2.585   2.001 -0.1872 -0.4168  0.0127
 6774TIP3    H141813   0.220   2.512   1.967 -2.1319  0.7541  0.2179
 6774TIP3    H241814   0.322   2.548   2.072 -0.7334 -1.6788 -0.2227
 6775TIP3   OH241815   4.919   4.175  13.647 -0.1719  0.1749 -0.5211
 6775TIP3    H141816   4.923   4.119  13.725 -0.8101 -0.4585 -0.9229
 6775TIP3    H241817   4.829   4.163  13.614  0.1670  0.2251 -1.4935
 6776TIP3   OH241818   2.685   0.496   5.521 -0.4069  0.3141  0.1166
 6776TIP3    H141819   2.671   0.461   5.433  2.5890 -0.4675 -0.1639
 6776TIP3    H241820   2.678   0.420   5.579  3.3096 -0.4098 -0.1836
 6777TIP3   OH241821   3.463   1.745   2.051  0.9661 -0.0286 -0.3390
 6777TIP3    H141822   3.437   1.653   2.059  0.1701  0.3507  2.1350
 6777TIP3    H241823   3.433   1.786   2.132  2.3784  2.1753 -0.8437
 6778TIP3   OH241824   3.342   0.891   3.766  0.1295  0.2909  0.8702
 6778TIP3    H141825   3.338   0.892   3.671  2.9772 -1.0408  0.6347
 6778TIP3    H241826   3.273   0.952   3.794  0.0960  1.7420 -2.0482
 6779TIP3   OH241827   3.679   5.652   3.125  0.5155 -0.0968 -0.5344
 6779TIP3    H141828   3.698   5.745   3.130  0.7273 -0.1831  0.5131
 6779TIP3    H241829   3.633   5.632   3.207  1.1496 -1.0550 -0.3885
 6780TIP3   OH241830   5.669   2.203  12.081  0.2264  0.2539  0.0614
 6780TIP3    H141831   5.750   2.159  12.056  0.8195  1.1218  0.4043
 6780TIP3    H241832   5.687   2.240  12.168 -0.8242 -0.2586  0.5146
 6781TIP3   OH241833   1.344   6.015   2.457 -0.3541 -0.1704  0.0721
 6781TIP3    H141834   1.359   5.986   2.547  1.6453  2.0970  0.5708
 6781TIP3    H241835   1.256   6.054   2.459 -1.1569 -1.8998  0.4869
 6782TIP3   OH241836   3.878   1.285  13.247  0.2462  0.2132  0.6598
 6782TIP3    H141837   3.813   1.291  13.178  0.6585 -1.2924  0.0993
 6782TIP3    H241838   3.934   1.211  13.222  2.3759  1.6384  0.9591
 6783TIP3   OH241839   5.789   5.589   6.018 -0.5592 -0.4908  0.3337
 6783TIP3    H141840   5.701   5.613   5.991 -1.4745 -1.5559  2.1586
 6783TIP3    H241841   5.792   5.611   6.111  1.3691  0.1978  0.1540
 6784TIP3   OH241842   1.240   4.793  13.652  0.5006  0.5380 -0.0592
 6784TIP3    H141843   1.333   4.802  13.673  0.3689 -0.0975  0.8237
 6784TIP3    H241844   1.236   4.719  13.591  0.3718 -0.8341  1.5488
 6785TIP3   OH241845   4.843   5.968  15.661 -0.6145 -0.5781  0.1228
 6785TIP3    H141846   4.781   6.018  15.609 -0.8631 -0.7253  0.2746
 6785TIP3    H241847   4.916   6.028  15.676 -1.1807 -0.0501  0.8166
 6786TIP3   OH241848   6.347   5.315  11.806 -0.0189  0.6583 -0.3106
 6786TIP3    H141849   6.354   5.409  11.789  0.6481  1.1466  2.2820
 6786TIP3    H241850   6.255   5.295  11.787 -0.4399  2.0580  0.1094
 6787TIP3   OH241851   1.257   2.754   3.370 -0.3267 -0.0076 -0.4589
 6787TIP3    H141852   1.261   2.661   3.348 -1.3056  0.5243 -3.2171
 6787TIP3    H241853   1.341   2.789   3.340 -0.1519  0.1128  0.1483
 6788TIP3   OH241854   4.138   1.119   6.036 -1.1287  0.1636  0.1404
 6788TIP3    H141855   4.189   1.043   6.007 -2.1439  0.1019 -1.6561
 6788TIP3    H241856   4.166   1.134   6.126  1.5786 -0.2555 -0.5353
 6789TIP3   OH241857   6.673   3.308   3.583 -0.0894 -0.0570  0.0072
 6789TIP3    H141858   6.703   3.240   3.644  0.9115 -0.5972 -1.0316
 6789TIP3    H241859   6.733   3.381   3.598 -0.2950  0.0826  0.1571
 6790TIP3   OH241860   3.742   5.554  12.890 -0.5904 -0.4085  0.0955
 6790TIP3    H141861   3.648   5.566  12.898 -0.4504  1.5797 -0.6337
 6790TIP3    H241862   3.761   5.568  12.797  0.6169  1.2237  0.5358
 6791TIP3   OH241863   5.028   1.412  11.628  0.2818 -0.2650 -0.5179
 6791TIP3    H141864   5.029   1.496  11.581 -0.5763  0.1169  0.1102
 6791TIP3    H241865   5.074   1.429  11.710 -0.5023 -0.1942 -0.0752
 6792TIP3   OH241866   6.749   0.423   1.169 -0.2340 -0.6190 -0.3263
 6792TIP3    H141867   6.693   0.495   1.199 -1.0997 -0.7941 -1.4493
 6792TIP3    H241868   6.763   0.370   1.248 -0.9079 -0.0745  0.1762
 6793TIP3   OH241869   5.305   6.448   6.186  0.2342 -0.3950  0.7729
 6793TIP3    H141870   5.269   6.536   6.173 -0.4373 -0.8990 -1.1359
 6793TIP3    H241871   5.362   6.456   6.263 -0.8406  1.3748  1.4330
 6794TIP3   OH241872   2.920   3.555   1.059 -0.2219 -0.0486  0.8105
 6794TIP3    H141873   2.914   3.649   1.042 -0.5683  0.0216  1.2968
 6794TIP3    H241874   2.894   3.514   0.977 -1.5086  0.2845  1.0266
 6795TIP3   OH241875   1.962   2.470   2.134 -0.0842 -0.1006 -0.8754
 6795TIP3    H141876   1.915   2.515   2.064 -1.4177  1.1289  0.7268
 6795TIP3    H241877   2.033   2.530   2.158 -1.7318  1.1841  1.1141
 6796TIP3   OH241878   2.418   4.401   1.941  0.1847  0.4472  0.5446
 6796TIP3    H141879   2.432   4.495   1.954  0.2740  0.3612  1.0919
 6796TIP3    H241880   2.451   4.360   2.021  1.8839 -0.2229 -0.4397
 6797TIP3   OH241881   1.496   5.975   4.394 -0.7001  0.4971 -0.2690
 6797TIP3    H141882   1.420   5.923   4.366 -1.5349  0.2715  2.1786
 6797TIP3    H241883   1.479   6.062   4.360 -1.5268  0.2046 -0.6399
 6798TIP3   OH241884   0.938   0.646  14.775  0.1944 -0.1586 -0.3540
 6798TIP3    H141885   0.851   0.612  14.794  0.2627  0.0074  0.2822
 6798TIP3    H241886   0.928   0.741  14.777  0.2940 -0.1351 -0.7537
 6799TIP3   OH241887   6.030   3.630   1.759  0.3464  0.0427  0.1663
 6799TIP3    H141888   5.937   3.650   1.757  0.3910  0.2894 -1.9992
 6799TIP3    H241889   6.073   3.714   1.778  0.1671  0.1506  0.0946
 6800TIP3   OH241890   6.097   1.044  14.471 -0.0718 -0.4392  0.5841
 6800TIP3    H141891   6.168   1.081  14.419 -0.5024  0.0103  0.3046
 6800TIP3    H241892   6.110   0.949  14.467 -0.4443 -0.4442 -0.8469
 6801TIP3   OH241893   2.820   4.226   2.189  0.3408 -0.0800  0.5550
 6801TIP3    H141894   2.731   4.232   2.156  0.9580 -0.8367 -1.3787
 6801TIP3    H241895   2.839   4.132   2.191  1.3856  0.1061  0.0475
 6802TIP3   OH241896   3.204   4.642   2.576 -0.1326  0.3312  0.6837
 6802TIP3    H141897   3.242   4.688   2.501  0.0996  0.8636  1.1183
 6802TIP3    H241898   3.197   4.551   2.547  0.4570  0.4274  0.2064
 6803TIP3   OH241899   5.284   4.757  12.736 -0.2640  0.2537 -0.1068
 6803TIP3    H141900   5.345   4.815  12.692 -1.0628 -0.5724 -2.4979
 6803TIP3    H241901   5.223   4.816  12.781  0.8865  1.1272  0.3544
 6804TIP3   OH241902   4.094   1.323   2.025  0.5390 -0.8262 -0.2352
 6804TIP3    H141903   4.163   1.266   2.059  0.2347 -0.5973  0.8039
 6804TIP3    H241904   4.131   1.411   2.030  0.0436 -0.6598  0.6970
 6805TIP3   OH241905   0.962   5.963  15.784  0.2359  0.1379 -0.1458
 6805TIP3    H141906   1.026   6.010  15.732  0.3486  0.5847  0.3858
 6805TIP3    H241907   0.880   5.973  15.736  0.2803  0.7982 -0.0861
 6806TIP3   OH241908   3.388   3.716   4.173  0.2115 -0.2388 -0.0461
 6806TIP3    H141909   3.453   3.762   4.120  2.1223 -1.2580  1.3328
 6806TIP3    H241910   3.413   3.733   4.264 -0.8206 -1.5163  0.5168
 6807TIP3   OH241911   3.393   1.263   4.200  0.1527 -0.4068 -0.8279
 6807TIP3    H141912   3.392   1.170   4.177 -0.9070 -0.6526  0.1494
 6807TIP3    H241913   3.468   1.298   4.151 -0.0752 -1.5405 -2.0668
 6808TIP3   OH241914   2.745   4.503   6.130 -0.0506  0.6554  0.6618
 6808TIP3    H141915   2.707   4.584   6.166 -1.8644  1.3323 -2.4423
 6808TIP3    H241916   2.694   4.485   6.051  1.2123 -2.8040  0.4505
 6809TIP3   OH241917   2.636   5.804  15.495 -0.1971  0.8422 -0.4497
 6809TIP3    H141918   2.680   5.796  15.580 -0.2899 -0.5216 -0.5168
 6809TIP3    H241919   2.565   5.740  15.498 -0.7299  1.3727 -1.2427
 6810TIP3   OH241920   1.133   4.845  12.230 -0.5552 -0.1670 -0.9218
 6810TIP3    H141921   1.165   4.850  12.321 -0.6886  0.3840 -0.8984
 6810TIP3    H241922   1.050   4.799  12.237 -0.7758  0.2499 -0.6967
 6811TIP3   OH241923   6.249   3.368   4.062 -0.2719  0.2005  0.2209
 6811TIP3    H141924   6.327   3.406   4.021  0.2419  1.7120  2.4248
 6811TIP3    H241925   6.263   3.380   4.156 -1.6526 -2.5700  0.8840
 6812TIP3   OH241926   2.451   2.467  16.981  0.1277 -0.1831  0.1332
 6812TIP3    H141927   2.503   2.547  16.976  0.0606  0.0691  2.2747
 6812TIP3    H241928   2.445   2.449  17.075 -1.7230 -1.4778 -0.1757
 6813TIP3   OH241929   6.035   1.135   1.480  0.3154 -0.0541 -0.2299
 6813TIP3    H141930   6.009   1.172   1.565 -1.0209  1.5500 -1.2798
 6813TIP3    H241931   6.118   1.176   1.459  0.3080  0.0685 -0.0183
 6814TIP3   OH241932   6.601   2.046  15.952 -0.1817  0.1463  0.1919
 6814TIP3    H141933   6.675   2.087  15.907  0.1345  0.9017  1.3558
 6814TIP3    H241934   6.621   1.952  15.950  0.0256  0.2059 -0.8587
 6815TIP3   OH241935   3.537   3.950   5.209 -0.5822 -0.6919  0.2128
 6815TIP3    H141936   3.570   4.038   5.189  0.3565 -0.1588  3.4872
 6815TIP3    H241937   3.596   3.891   5.161 -0.1377  0.4215 -0.6540
 6816TIP3   OH241938   5.503   3.579  16.645  0.2040  0.1045 -0.8910
 6816TIP3    H141939   5.435   3.568  16.579 -1.7077 -1.1014  1.1516
 6816TIP3    H241940   5.545   3.494  16.651 -1.2771 -0.5553  1.0598
 6817TIP3   OH241941   0.162   0.755  15.996 -0.0430 -0.0565 -0.1038
 6817TIP3    H141942   0.067   0.751  15.985  0.2081  0.9887 -4.3722
 6817TIP3    H241943   0.177   0.839  16.039 -1.0173  0.5672 -0.9248
 6818TIP3   OH241944   0.829   0.405  14.047 -0.4334 -0.1938  0.0485
 6818TIP3    H141945   0.815   0.327  14.101  0.1442  0.1950  0.7704
 6818TIP3    H241946   0.924   0.415  14.044 -0.4570 -0.2010 -1.0371
 6819TIP3   OH241947   1.032   6.700  14.241  0.1438  0.0969 -0.3887
 6819TIP3    H141948   0.988   6.767  14.294  0.0263 -1.3316  1.4073
 6819TIP3    H241949   0.972   6.684  14.168 -0.9205  0.2975  0.4259
 6820TIP3   OH241950   5.818   5.899  12.623  0.3919 -0.5402 -0.6136
 6820TIP3    H141951   5.867   5.964  12.572  2.4561 -0.7364  0.9928
 6820TIP3    H241952   5.878   5.825  12.631 -1.0595 -1.7551 -0.4878
 6821TIP3   OH241953   4.732   3.696   4.381 -0.6610 -0.1584 -0.1765
 6821TIP3    H141954   4.758   3.776   4.336  0.2206 -0.2093  0.2206
 6821TIP3    H241955   4.792   3.689   4.455  0.1557 -1.8796 -0.9501
 6822TIP3   OH241956   5.212   5.609   1.961  0.4474 -0.2195  0.3137
 6822TIP3    H141957   5.303   5.586   1.943  0.9163  0.6013  1.5005
 6822TIP3    H241958   5.194   5.683   1.903  0.0843 -1.2270 -0.8950
 6823TIP3   OH241959   6.345   0.644  10.859 -0.0309  0.0951 -0.4338
 6823TIP3    H141960   6.418   0.655  10.799 -0.1628  1.2280 -0.4170
 6823TIP3    H241961   6.339   0.550  10.875  0.7412 -0.0958 -1.2720
 6824TIP3   OH241962   0.100   4.248  14.713  0.1684  0.5733  0.0824
 6824TIP3    H141963   0.184   4.225  14.754  0.9412  1.6944 -0.8021
 6824TIP3    H241964   0.035   4.201  14.764  1.3977 -1.0488  0.2554
 6825TIP3   OH241965   0.875   3.019   4.347  0.5484 -0.2150  0.2948
 6825TIP3    H141966   0.899   3.098   4.299  0.3792 -0.1694  0.2840
 6825TIP3    H241967   0.826   2.966   4.283  2.4862 -1.3007 -0.3694
 6826TIP3   OH241968   5.261   4.345  11.826  0.4494 -0.1457 -0.0797
 6826TIP3    H141969   5.176   4.340  11.784 -1.7050 -0.1435  3.8267
 6826TIP3    H241970   5.260   4.429  11.873  2.9353  0.1579 -0.3912
 6827TIP3   OH241971   3.994   4.692  14.323 -0.0977  0.6399  0.3457
 6827TIP3    H141972   4.031   4.635  14.391 -0.8144 -0.0546  0.1638
 6827TIP3    H241973   3.970   4.772  14.370 -0.6476  0.1419  0.9326
 6828TIP3   OH241974   2.289   3.314  14.169  0.6333  0.4348  0.0077
 6828TIP3    H141975   2.254   3.285  14.253  0.0626 -0.2250 -0.4533
 6828TIP3    H241976   2.212   3.332  14.115  0.9790 -0.5992 -0.8651
 6829TIP3   OH241977   0.419   1.609   2.913  0.2244 -0.3575  0.1965
 6829TIP3    H141978   0.504   1.572   2.888 -0.2759 -1.5745  0.1925
 6829TIP3    H241979   0.440   1.674   2.980  1.3613  1.1517 -1.5400
 6830TIP3   OH241980   0.289   3.349   0.263  0.3850  0.6291  0.8051
 6830TIP3    H141981   0.221   3.373   0.325 -0.6498 -0.3002  0.0686
 6830TIP3    H241982   0.360   3.314   0.317 -0.7973 -0.8822  1.4318
 6831TIP3   OH241983   4.039   0.712   4.957 -0.0790 -0.2538 -0.2089
 6831TIP3    H141984   4.076   0.648   4.897 -0.7965 -0.7447 -0.1474
 6831TIP3    H241985   4.100   0.714   5.031 -0.0248 -0.8324 -0.2321
 6832TIP3   OH241986   4.710   1.207   1.886  0.6669  0.6302  0.0653
 6832TIP3    H141987   4.787   1.203   1.942 -0.3320  1.3842  1.5547
 6832TIP3    H241988   4.661   1.128   1.908  1.1652 -0.0657 -1.1824
 6833TIP3   OH241989   0.819   2.812  14.706 -0.0539 -0.0501  0.4552
 6833TIP3    H141990   0.739   2.800  14.758  0.5137  0.4521  1.4939
 6833TIP3    H241991   0.890   2.788  14.766  0.5390 -2.1781 -0.9755
 6834TIP3   OH241992   6.781   5.695   4.156  0.0438  0.1060  0.2810
 6834TIP3    H141993   6.812   5.647   4.232 -0.9347  0.9339  1.2169
 6834TIP3    H241994   6.718   5.637   4.114  0.9748 -0.5712 -0.2454
 6835TIP3   OH241995   3.001   5.277   5.709 -0.0159  0.2855  0.3579
 6835TIP3    H141996   3.061   5.204   5.727  2.0974  1.0642 -2.6816
 6835TIP3    H241997   2.938   5.242   5.646 -1.8142 -0.0319  2.2285
 6836TIP3   OH241998   1.269   5.525  16.857  0.5391  0.1724 -0.1221
 6836TIP3    H141999   1.179   5.500  16.874  0.3733  0.9810  0.2131
 6836TIP3    H242000   1.316   5.506  16.938 -0.3058  4.2911  1.5672
 6837TIP3   OH242001   6.633   5.915  14.967 -0.5040 -0.0764  0.0573
 6837TIP3    H142002   6.686   5.842  14.934  0.2973  0.7836 -0.6432
 6837TIP3    H242003   6.695   5.988  14.973 -1.8749  1.3566 -2.1218
 6838TIP3   OH242004   3.889   6.217  13.613 -0.5932  0.4950 -0.0431
 6838TIP3    H142005   3.912   6.223  13.520 -0.8091  0.2003 -0.1158
 6838TIP3    H242006   3.801   6.179  13.614 -1.0051  1.4385  0.2478
 6839TIP3   OH242007   0.546   1.780  12.373  0.2381  0.1025 -0.3395
 6839TIP3    H142008   0.569   1.838  12.445 -1.1798  1.0751 -0.6217
 6839TIP3    H242009   0.471   1.730  12.407  0.8991 -0.9661 -0.4090
 6840TIP3   OH242010   5.887   3.302   5.814  0.0983 -0.4699 -0.5641
 6840TIP3    H142011   5.944   3.374   5.786  0.4200 -1.0668 -1.5192
 6840TIP3    H242012   5.927   3.269   5.895 -0.5614  0.9800  0.3851
 6841TIP3   OH242013   5.921   1.277  13.510 -0.0070 -0.4122 -0.4698
 6841TIP3    H142014   5.943   1.363  13.545 -0.7968 -1.3935  2.8444
 6841TIP3    H242015   5.877   1.295  13.427  0.9482  2.2605 -0.4994
 6842TIP3   OH242016   6.589   2.065   4.722 -0.3171  0.7541  0.3672
 6842TIP3    H142017   6.558   1.982   4.686 -2.5297  1.4429  0.5836
 6842TIP3    H242018   6.622   2.113   4.646  1.9180 -0.6398  0.3643
 6843TIP3   OH242019   5.144   4.707   0.214 -0.5041  0.3506  0.6868
 6843TIP3    H142020   5.227   4.718   0.168 -0.0010 -0.1175  1.4572
 6843TIP3    H242021   5.154   4.759   0.293 -0.6243 -0.3547  1.1746
 6844TIP3   OH242022   3.573   0.964  14.341 -0.0449 -0.2985  0.4907
 6844TIP3    H142023   3.668   0.954  14.349  0.1900  1.2803  0.0112
 6844TIP3    H242024   3.548   0.907  14.269  1.0188  1.4581 -1.3664
 6845TIP3   OH242025   5.142   3.993   3.635  0.2951 -0.7142 -0.1463
 6845TIP3    H142026   5.223   3.943   3.647  1.7482  1.7019  1.0909
 6845TIP3    H242027   5.090   3.940   3.575  1.7362 -3.5455  0.8843
 6846TIP3   OH242028   4.518   5.597   0.676 -0.3638  0.2636 -0.6049
 6846TIP3    H142029   4.436   5.548   0.680 -0.9309  1.1229 -1.3446
 6846TIP3    H242030   4.580   5.543   0.725 -1.1760 -0.7712 -0.6672
 6847TIP3   OH242031   6.006   4.097  12.450  0.8335  0.1880 -0.4248
 6847TIP3    H142032   5.938   4.035  12.476  0.0034  1.4345  0.4426
 6847TIP3    H242033   6.083   4.042  12.434  0.0777 -1.0839  0.1482
 6848TIP3   OH242034   4.913   6.549   2.226  0.2947  0.4131 -0.1653
 6848TIP3    H142035   4.879   6.462   2.204 -0.4444  0.5135  0.5217
 6848TIP3    H242036   4.837   6.607   2.221  0.3795  0.6827  1.2008
 6849TIP3   OH242037   0.135   3.125   0.455 -0.1902 -0.8199 -0.2011
 6849TIP3    H142038   0.200   3.067   0.495  0.6402  0.3760  0.2455
 6849TIP3    H242039   0.118   3.192   0.521 -1.2617 -0.6374 -0.6369
 6850TIP3   OH242040   0.222   3.741  14.130 -0.2230 -0.6619 -0.2733
 6850TIP3    H142041   0.193   3.833  14.128  0.6385 -0.3914 -1.0099
 6850TIP3    H242042   0.280   3.733  14.055 -0.2828 -1.8240 -0.2087
 6851TIP3   OH242043   0.958   0.965  15.533 -0.0459  0.4410  0.3440
 6851TIP3    H142044   0.925   0.936  15.618 -0.1556  1.4246  0.6409
 6851TIP3    H242045   0.894   0.933  15.470 -0.5072  0.6076  0.7282
 6852TIP3   OH242046   2.160   2.977   0.738 -0.3492 -0.7355  0.0973
 6852TIP3    H142047   2.178   3.053   0.682  0.6983 -0.5501  0.6654
 6852TIP3    H242048   2.110   2.918   0.682  1.1301 -0.7845 -1.2355
 6853TIP3   OH242049   1.309   0.078   2.387 -0.0969  0.0812 -0.1093
 6853TIP3    H142050   1.232   0.092   2.443  0.7396  1.3356  0.7797
 6853TIP3    H242051   1.351  -0.000   2.423 -1.4267 -1.1886 -1.1925
 6854TIP3   OH242052   5.949   5.437   5.266 -0.3060  0.4272  0.4625
 6854TIP3    H142053   5.945   5.350   5.304  0.6083  0.1214 -0.1290
 6854TIP3    H242054   5.987   5.492   5.335  1.0550 -0.0611  0.1310
 6855TIP3   OH242055   2.942   3.424  12.883 -0.4323  0.5292  0.0872
 6855TIP3    H142056   2.943   3.453  12.792 -1.3287 -0.8267 -0.3984
 6855TIP3    H242057   2.898   3.494  12.930 -0.4898  0.9870 -0.6262
 6856TIP3   OH242058   0.295   5.463   3.682  0.1972  0.1460  0.1604
 6856TIP3    H142059   0.200   5.456   3.680  0.2388 -0.4188 -1.0920
 6856TIP3    H242060   0.321   5.453   3.590  1.4547  0.4397  0.4685
 6857TIP3   OH242061   3.593   0.366   5.213  0.0754  0.4985  0.0467
 6857TIP3    H142062   3.516   0.313   5.232 -0.1859  0.1262 -1.8821
 6857TIP3    H242063   3.614   0.347   5.122  1.5761  1.7115  0.0931
 6858TIP3   OH242064   1.940   4.918   3.220  0.0254 -0.3164 -0.1851
 6858TIP3    H142065   1.953   4.992   3.278 -0.0939  0.4428 -1.0998
 6858TIP3    H242066   1.997   4.849   3.255 -0.6905 -0.1861  1.3267
 6859TIP3   OH242067   1.964   4.220  14.619  0.0909 -0.3398 -0.1646
 6859TIP3    H142068   2.047   4.176  14.602 -0.7418 -2.2332  0.4128
 6859TIP3    H242069   1.906   4.151  14.651 -0.8858  1.4310  2.1952
 6860TIP3   OH242070   4.819   3.192   2.889  0.1299 -0.3004 -0.0790
 6860TIP3    H142071   4.800   3.119   2.948 -1.2285 -0.1787 -0.3234
 6860TIP3    H242072   4.832   3.268   2.947 -1.1598 -0.1888  0.0834
 6861TIP3   OH242073   1.133   4.931  13.413  0.1264  0.7332 -0.1484
 6861TIP3    H142074   1.134   5.004  13.352 -0.1614 -0.5878 -1.8011
 6861TIP3    H242075   1.065   4.873  13.380 -0.0597 -0.0187  1.4581
 6862TIP3   OH242076   0.839   3.076   2.227 -0.0720 -0.8309 -0.0214
 6862TIP3    H142077   0.840   3.137   2.153  1.1606 -1.3246 -0.4334
 6862TIP3    H242078   0.818   2.992   2.187 -1.1271 -0.8110  0.4563
 6863TIP3   OH242079   4.729   3.963  11.895 -0.0526 -0.1813 -0.1763
 6863TIP3    H142080   4.644   4.000  11.874  0.3931  1.2240  0.3650
 6863TIP3    H242081   4.758   4.013  11.972  1.2055 -0.7061 -0.2928
 6864TIP3   OH242082   1.447   6.243   4.319  0.0599  0.0208  0.1012
 6864TIP3    H142083   1.488   6.328   4.335  0.1739  0.0645 -0.4173
 6864TIP3    H242084   1.379   6.261   4.254  0.3384 -0.3516 -0.2993
 6865TIP3   OH242085   6.079   0.355  11.337  0.3259 -0.3142 -0.2485
 6865TIP3    H142086   6.015   0.375  11.405  0.7159 -0.7819  0.2716
 6865TIP3    H242087   6.058   0.415  11.266 -0.2159  0.0503  0.2052
 6866TIP3   OH242088   2.862   3.417   5.203  0.0773 -0.1432 -0.2914
 6866TIP3    H142089   2.809   3.429   5.282  0.4556 -1.3251  0.1648
 6866TIP3    H242090   2.937   3.365   5.233 -2.5893 -6.1106 -2.3433
 6867TIP3   OH242091   1.237   3.493   1.077  0.3751  0.0209  0.3254
 6867TIP3    H142092   1.252   3.586   1.057 -0.2132  0.1809  0.6101
 6867TIP3    H242093   1.281   3.446   1.006  0.7949  0.5146  0.2520
 6868TIP3   OH242094   4.969   2.172  16.991  0.2629 -0.0202  0.3811
 6868TIP3    H142095   4.926   2.238  17.047  0.0505 -0.0030  0.1960
 6868TIP3    H242096   5.009   2.223  16.921  0.1233 -0.0838  0.2536
 6869TIP3   OH242097   5.303   6.066  12.256  0.0687 -0.0477 -0.8004
 6869TIP3    H142098   5.370   6.070  12.324  2.1129  0.1928 -2.7017
 6869TIP3    H242099   5.265   5.978  12.264  2.8684 -1.4363 -1.5845
 6870TIP3   OH242100   3.057   0.303  14.718 -0.4536  0.7981  0.1105
 6870TIP3    H142101   3.041   0.297  14.624 -0.9886  1.0466  0.1813
 6870TIP3    H242102   3.152   0.305  14.726 -0.3970  0.2855 -0.3947
 6871TIP3   OH242103   0.977   5.462  15.857 -0.3051 -0.4645 -0.2534
 6871TIP3    H142104   0.929   5.529  15.809  0.8970 -0.5512 -1.6424
 6871TIP3    H242105   1.015   5.507  15.932 -0.5610  0.1178 -0.4736
 6872TIP3   OH242106   0.782   1.997   2.640 -0.1598  0.5863  0.2740
 6872TIP3    H142107   0.698   1.976   2.681 -0.8692  0.7993 -1.0299
 6872TIP3    H242108   0.765   2.076   2.588  0.9987  0.9717  0.4378
 6873TIP3   OH242109   4.743   2.878  13.959  0.2109 -0.0687  0.0311
 6873TIP3    H142110   4.818   2.883  14.019 -0.4910 -0.3074  0.9477
 6873TIP3    H242111   4.722   2.969  13.940  0.1473  0.0210  0.5221
 6874TIP3   OH242112   6.338   6.433   5.694 -0.4097  0.3237  0.3361
 6874TIP3    H142113   6.298   6.401   5.775  1.6416  0.4789  1.4931
 6874TIP3    H242114   6.382   6.514   5.720  0.9041 -0.0072 -0.7554
 6875TIP3   OH242115   1.202   1.783  12.880 -0.6921 -0.2169 -0.3393
 6875TIP3    H142116   1.152   1.844  12.936  0.6893  0.8381 -0.2142
 6875TIP3    H242117   1.156   1.700  12.891 -2.0542  0.5579  0.2650
 6876TIP3   OH242118   6.190   3.065  10.989 -0.1508 -0.3162  0.5096
 6876TIP3    H142119   6.233   3.018  10.918  2.3842  0.6645  1.2997
 6876TIP3    H242120   6.127   3.002  11.025 -0.7444 -1.1778 -1.8520
 6877TIP3   OH242121   3.297   2.575   5.453  0.4302  0.4467 -0.1083
 6877TIP3    H142122   3.258   2.542   5.372 -0.7357  1.2736  0.0932
 6877TIP3    H242123   3.385   2.603   5.427  1.2374 -2.0906 -0.4283
 6878TIP3   OH242124   2.127   6.497   5.409  0.0641  0.5159 -0.1608
 6878TIP3    H142125   2.165   6.409   5.417 -2.3045 -0.6641 -0.9069
 6878TIP3    H242126   2.190   6.545   5.354  0.3263 -1.4489 -1.7091
 6879TIP3   OH242127   1.162   3.607   3.873  0.3699 -0.0659 -0.1464
 6879TIP3    H142128   1.203   3.666   3.810 -0.4599  1.0647  0.3516
 6879TIP3    H242129   1.148   3.526   3.823  2.7234 -0.3611 -0.4772
 6880TIP3   OH242130   3.982   1.833   1.799 -0.0324 -0.7720 -0.1276
 6880TIP3    H142131   4.053   1.771   1.780  0.2389 -0.7433  0.7133
 6880TIP3    H242132   3.994   1.904   1.736 -0.6307 -1.7695 -1.4201
 6881TIP3   OH242133   0.920   5.354  12.389 -0.4441 -0.1770  0.5047
 6881TIP3    H142134   1.002   5.398  12.411 -1.2961  2.3429 -0.8533
 6881TIP3    H242135   0.947   5.273  12.346  1.4037  1.0572 -0.8277
 6882TIP3   OH242136   4.638   6.375  14.356 -0.0586  0.8226  0.5249
 6882TIP3    H142137   4.689   6.401  14.432  1.5749 -2.1479  0.5780
 6882TIP3    H242138   4.696   6.393  14.281 -0.5864  1.1860  0.1918
 6883TIP3   OH242139   1.049   3.262   2.548  0.2207 -0.1455  0.0683
 6883TIP3    H142140   1.036   3.200   2.619 -0.6534 -0.4550 -0.3469
 6883TIP3    H242141   0.960   3.284   2.519  0.5725 -0.4163 -1.2653
 6884TIP3   OH242142   3.477   3.124   5.060 -0.4942  0.5699  0.3220
 6884TIP3    H142143   3.569   3.120   5.085 -0.2075  0.2724 -0.7241
 6884TIP3    H242144   3.440   3.041   5.090  0.4868 -1.0470 -2.5503
 6885TIP3   OH242145   1.685   2.789   6.605 -0.2778  0.2067  0.0161
 6885TIP3    H142146   1.599   2.765   6.640 -0.2489  0.4804  0.2848
 6885TIP3    H242147   1.741   2.796   6.683 -0.1655  0.6443 -0.0991
 6886TIP3   OH242148   4.783   4.529  14.151  0.4626 -0.0892 -0.1886
 6886TIP3    H142149   4.803   4.606  14.203  1.8259  1.1220 -2.3661
 6886TIP3    H242150   4.860   4.517  14.094 -1.4579 -0.4173 -2.9422
 6887TIP3   OH242151   4.998   3.849   2.646 -0.5659 -0.4412  0.3009
 6887TIP3    H142152   4.921   3.820   2.695  0.5320 -2.2477  1.0501
 6887TIP3    H242153   4.998   3.944   2.657 -1.6632 -0.5794  1.8663
 6888TIP3   OH242154   3.479   4.490  12.366  0.1939 -0.0092  0.0753
 6888TIP3    H142155   3.399   4.439  12.375 -0.0284  0.4686  0.8681
 6888TIP3    H242156   3.549   4.425  12.370 -0.1511 -0.4620 -0.9305
 6889TIP3   OH242157   0.896   4.951   2.703 -0.2000 -0.1528  0.0625
 6889TIP3    H142158   0.844   4.965   2.782  0.3659  0.7858  0.2810
 6889TIP3    H242159   0.844   4.992   2.633  0.0229  0.3824  0.2064
 6890TIP3   OH242160   2.509   1.089   1.773 -0.8157  0.6601  0.2468
 6890TIP3    H142161   2.586   1.145   1.763 -0.4434  0.0491 -0.4745
 6890TIP3    H242162   2.436   1.150   1.783 -0.2200  1.2456  1.1571
 6891TIP3   OH242163   4.523   4.515  16.419 -0.4252  0.7284  0.1987
 6891TIP3    H142164   4.513   4.602  16.381 -0.6821 -0.5553 -3.0735
 6891TIP3    H242165   4.599   4.522  16.477  0.7905  2.7259 -1.4780
 6892TIP3   OH242166   2.336   4.265  12.794  0.2268 -0.2075 -0.3313
 6892TIP3    H142167   2.332   4.207  12.718  1.7900 -0.8387  0.0358
 6892TIP3    H242168   2.374   4.211  12.864  0.6789  0.9305  0.3364
 6893TIP3   OH242169   1.474   5.949   5.627 -0.4134 -0.2623 -0.4697
 6893TIP3    H142170   1.458   5.859   5.655  1.2808 -0.2539  0.6311
 6893TIP3    H242171   1.398   5.998   5.661 -0.1943 -0.8928  1.0092
 6894TIP3   OH242172   3.286   3.517   4.685  0.5089  0.0440 -0.0497
 6894TIP3    H142173   3.267   3.583   4.752 -1.2051  0.2941 -0.7303
 6894TIP3    H242174   3.304   3.437   4.735 -0.4224  0.3024  0.7413
 6895TIP3   OH242175   1.798   1.270   0.629  0.0310 -0.1783 -0.2088
 6895TIP3    H142176   1.878   1.230   0.663 -0.5799 -0.6075  0.7887
 6895TIP3    H242177   1.745   1.288   0.707 -0.7619  0.2792 -0.8331
 6896TIP3   OH242178   6.120   0.407   5.422 -0.0532 -0.1901 -0.4692
 6896TIP3    H142179   6.075   0.377   5.502 -0.3753 -0.0372 -0.5898
 6896TIP3    H242180   6.170   0.331   5.393 -0.3546 -0.4148 -0.4098
 6897TIP3   OH242181   3.603   5.614   0.696 -0.2076 -0.3327  0.1034
 6897TIP3    H142182   3.529   5.561   0.725 -0.5219 -0.1091 -0.2830
 6897TIP3    H242183   3.671   5.551   0.674 -1.0273 -0.6747 -1.6298
 6898TIP3   OH242184   3.715   3.911   0.951 -0.1524 -0.9493 -0.0301
 6898TIP3    H142185   3.681   3.830   0.991 -0.1695 -1.1069 -0.3575
 6898TIP3    H242186   3.793   3.931   1.001  0.2952 -1.6122 -0.4346
 6899TIP3   OH242187   2.848   1.305  15.016  0.7747 -0.1569  0.5111
 6899TIP3    H142188   2.763   1.295  14.972  0.8437  0.3256  0.2652
 6899TIP3    H242189   2.826   1.329  15.106  0.6577  1.2036  0.1392
 6900TIP3   OH242190   3.057   2.084  17.270  0.1193  0.0672  0.5385
 6900TIP3    H142191   3.091   2.003  17.310 -0.7878 -0.2219  0.7587
 6900TIP3    H242192   3.045   2.062  17.178  0.6341  0.2076  0.4363
 6901TIP3   OH242193   1.126   4.606   4.230 -0.1549 -0.0005 -0.2281
 6901TIP3    H142194   1.121   4.701   4.243  0.0484 -0.0246  0.0388
 6901TIP3    H242195   1.038   4.581   4.201 -0.9343 -0.0636  1.9909
 6902TIP3   OH242196   5.635   3.612  12.541  0.0807 -0.1596 -0.4265
 6902TIP3    H142197   5.583   3.688  12.568 -0.1181 -0.7983  1.1173
 6902TIP3    H242198   5.714   3.616  12.595 -0.8611 -2.1178  1.2649
 6903TIP3   OH242199   1.310   0.920   1.161  0.6682 -0.3236 -0.0248
 6903TIP3    H142200   1.358   1.000   1.139  1.2187 -0.3445  1.0426
 6903TIP3    H242201   1.255   0.904   1.085  1.0422  0.7007 -0.5346
 6904TIP3   OH242202   3.254   3.714   4.871  0.1892 -0.2960 -0.1097
 6904TIP3    H142203   3.162   3.718   4.895  0.2578 -1.0278  0.2996
 6904TIP3    H242204   3.298   3.766   4.939  0.2506 -1.3725  0.7112
 6905TIP3   OH242205   1.975   3.114  14.268 -0.5053 -0.0223  0.4876
 6905TIP3    H142206   1.958   3.121  14.174  0.4476  0.3907  0.3378
 6905TIP3    H242207   1.907   3.055  14.300 -2.3393  1.7008 -0.0426
 6906TIP3   OH242208   2.446   3.952   1.647 -0.0278  0.7854  0.0975
 6906TIP3    H142209   2.460   3.949   1.742  0.1880 -0.1947  0.0399
 6906TIP3    H242210   2.475   3.867   1.615 -2.0209  0.2996 -0.5852
 6907TIP3   OH242211   5.082   4.789  14.088  0.1238 -0.0772  0.3850
 6907TIP3    H142212   5.176   4.780  14.072  0.1363 -0.5560  0.6857
 6907TIP3    H242213   5.073   4.777  14.183 -0.3211 -0.7786  0.2599
 6908TIP3   OH242214   3.515   5.276  11.977  0.3808 -0.4683  0.1270
 6908TIP3    H142215   3.506   5.197  12.031  2.2174  0.4780  1.9268
 6908TIP3    H242216   3.431   5.320  11.987  0.1535 -1.0549  1.0261
 6909TIP3   OH242217   4.948   3.030  11.303 -0.0837 -1.0464 -0.7726
 6909TIP3    H142218   4.854   3.045  11.293  0.2712  0.7185 -2.0213
 6909TIP3    H242219   4.980   3.107  11.350  0.8393 -1.2932 -0.9689
 6910TIP3   OH242220   6.582   2.472   0.901  0.5152 -0.2964 -0.4891
 6910TIP3    H142221   6.629   2.421   0.967 -0.0627 -0.8804 -0.5231
 6910TIP3    H242222   6.648   2.533   0.868  0.4671  1.0118  1.6416
 6911TIP3   OH242223   3.717   5.275  15.915  0.1570  0.0556  0.0496
 6911TIP3    H142224   3.762   5.248  15.834 -1.2538  0.9957 -1.1034
 6911TIP3    H242225   3.787   5.289  15.978  1.3540 -0.1128 -1.2027
 6912TIP3   OH242226   0.921   0.473   0.994  0.5639  0.7485 -0.3365
 6912TIP3    H142227   0.878   0.430   0.920  0.9276  2.8046 -1.8080
 6912TIP3    H242228   0.998   0.419   1.011 -0.3963 -0.6720 -0.3233
 6913TIP3   OH242229   6.133   0.785  10.941  1.1548  0.2897 -0.3879
 6913TIP3    H142230   6.179   0.720  10.889 -0.1118  0.3297 -1.6159
 6913TIP3    H242231   6.172   0.869  10.915  0.4706  0.3171 -1.3618
 6914TIP3   OH242232   5.232   0.555   2.081 -0.2805 -0.1554  0.3458
 6914TIP3    H142233   5.210   0.545   1.988 -0.5068  1.9973  0.1148
 6914TIP3    H242234   5.327   0.544   2.084 -0.1058  0.9325 -0.3714
 6915TIP3   OH242235   3.878   2.692  13.565  0.1147  0.2327  0.6985
 6915TIP3    H142236   3.963   2.735  13.559  0.3297 -0.2573 -0.0331
 6915TIP3    H242237   3.823   2.738  13.502 -0.1960  0.6007  1.2271
 6916TIP3   OH242238   3.518   2.395   3.949  0.5844  0.3433 -0.0161
 6916TIP3    H142239   3.613   2.392   3.948  0.6113  0.6612  0.7785
 6916TIP3    H242240   3.497   2.460   4.017 -0.1910  0.3855 -0.2886
 6917TIP3   OH242241   6.407   4.900  14.833 -0.3155 -0.3288 -0.1598
 6917TIP3    H142242   6.403   4.867  14.923 -2.4021 -0.2579 -0.1909
 6917TIP3    H242243   6.317   4.898  14.802  0.3791 -0.5474 -2.3519
 6918TIP3   OH242244   0.717   1.647  13.802 -0.7212  0.9558 -0.2820
 6918TIP3    H142245   0.795   1.644  13.858 -1.4433  0.6307  0.7263
 6918TIP3    H242246   0.751   1.629  13.714  0.3799  1.0801  0.1022
 6919TIP3   OH242247   3.708   3.176   2.718 -0.2503  0.4571  0.1320
 6919TIP3    H142248   3.713   3.191   2.624  2.9180  1.6556  0.3747
 6919TIP3    H242249   3.672   3.257   2.754 -0.7222  0.3009  0.0102
 6920TIP3   OH242250   4.208   3.507  15.814  0.1659 -0.4091  0.6188
 6920TIP3    H142251   4.211   3.415  15.787  1.8299 -0.2970  0.2693
 6920TIP3    H242252   4.293   3.521  15.856 -0.1282  0.9445  0.7895
 6921TIP3   OH242253   2.510   3.293   2.307  0.3597  0.3081 -0.2463
 6921TIP3    H142254   2.427   3.317   2.267 -1.1217 -1.8458  1.3434
 6921TIP3    H242255   2.533   3.209   2.266  0.8932  0.0639  0.5278
 6922TIP3   OH242256   6.427   5.043   4.302  0.2317 -0.1326 -0.2039
 6922TIP3    H142257   6.462   5.122   4.344 -0.1694 -0.5577  0.9846
 6922TIP3    H242258   6.350   5.021   4.354 -0.5251 -0.4807 -1.4215
 6923TIP3   OH242259   5.531   3.907  12.424  0.1628  0.1858 -0.1156
 6923TIP3    H142260   5.483   3.918  12.507  0.2658  0.2379 -0.0630
 6923TIP3    H242261   5.467   3.868  12.364  0.0877  0.1479 -0.0117
 6924TIP3   OH242262   5.129   3.499   0.590  0.0709  0.2502  0.2651
 6924TIP3    H142263   5.143   3.518   0.683  0.5378 -0.2867  0.3040
 6924TIP3    H242264   5.125   3.404   0.585 -1.0049  0.2906 -0.1177
 6925TIP3   OH242265   1.878   1.042  12.922 -0.2295 -0.5487 -0.5088
 6925TIP3    H142266   1.880   1.106  12.851  1.0723 -1.2164 -1.1187
 6925TIP3    H242267   1.789   1.006  12.920 -0.8771  0.9991 -0.3599
 6926TIP3   OH242268   0.755   6.194  15.537  0.2411 -0.3418 -0.1978
 6926TIP3    H142269   0.714   6.108  15.549  0.3196 -0.5486 -1.2821
 6926TIP3    H242270   0.789   6.217  15.624 -1.3728 -0.5626  0.5203
 6927TIP3   OH242271   2.077   1.104  15.052  0.1159 -0.6661  0.3329
 6927TIP3    H142272   2.113   1.020  15.082 -0.9280 -1.0767  0.4729
 6927TIP3    H242273   1.983   1.090  15.051  0.0162  0.0300 -1.1393
 6928TIP3   OH242274   6.072   3.235   4.419 -0.1653 -0.0536 -0.0752
 6928TIP3    H142275   6.079   3.141   4.398  1.3397 -0.1590  0.7521
 6928TIP3    H242276   6.156   3.272   4.391 -0.7239  1.0621 -0.3447
 6929TIP3   OH242277   1.090   1.125   5.280  0.4953  0.0507  0.0049
 6929TIP3    H142278   1.066   1.067   5.208 -0.9615  0.7242 -0.0991
 6929TIP3    H242279   1.051   1.209   5.258  0.9152  0.5529  1.0789
 6930TIP3   OH242280   0.719   6.072   0.674  0.1060  0.1512  0.3260
 6930TIP3    H142281   0.797   6.075   0.618 -0.4629 -0.3499 -0.5208
 6930TIP3    H242282   0.676   6.156   0.658  1.2801  1.1328  2.0377
 6931TIP3   OH242283   1.643   3.920  15.735  0.0467 -0.1705  0.0669
 6931TIP3    H142284   1.601   3.988  15.786 -0.2147  0.4320 -0.9187
 6931TIP3    H242285   1.737   3.934  15.748  0.0362  1.1338 -1.0285
 6932TIP3   OH242286   0.158   0.058  15.741 -0.3845 -0.3559 -0.2658
 6932TIP3    H142287   0.223   0.020  15.799 -0.6240 -0.8800 -0.3265
 6932TIP3    H242288   0.208   0.087  15.665 -0.2931 -1.4342 -0.6454
 6933TIP3   OH242289   5.630   6.567  14.141 -0.7632 -0.0597  0.0812
 6933TIP3    H142290   5.682   6.581  14.220 -0.4055  1.2482 -0.3508
 6933TIP3    H242291   5.558   6.511  14.169  0.6067 -1.5295  0.8037
 6934TIP3   OH242292   3.202   0.217  15.197  0.0166  0.0572  0.1605
 6934TIP3    H142293   3.195   0.166  15.116 -0.8321 -0.7954  0.7420
 6934TIP3    H242294   3.246   0.159  15.258  0.3191  0.5588  0.4248
 6935TIP3   OH242295   4.349   2.376   5.254 -0.4611 -0.0007  0.1106
 6935TIP3    H142296   4.402   2.452   5.231 -2.2943  1.4754  0.5171
 6935TIP3    H242297   4.413   2.308   5.275  1.2674  1.8642  1.2385
 6936TIP3   OH242298   4.425   5.392   0.902 -0.0269  0.2918  0.2875
 6936TIP3    H142299   4.390   5.362   0.985 -0.3776  1.1939  0.4762
 6936TIP3    H242300   4.350   5.431   0.857  0.1453 -0.2350 -0.4804
 6937TIP3   OH242301   3.849   6.345   3.362  0.3216  0.2054 -0.3177
 6937TIP3    H142302   3.871   6.374   3.274  0.5453 -1.7298 -0.9535
 6937TIP3    H242303   3.932   6.311   3.398  0.3517  1.4341  0.8529
 6938TIP3   OH242304   0.873   0.527  11.763  0.0961 -0.0699  0.3095
 6938TIP3    H142305   0.939   0.555  11.699  1.7665 -0.8540  1.5929
 6938TIP3    H242306   0.812   0.473  11.712  0.0434  1.1940 -1.0448
 6939TIP3   OH242307   3.706   5.746  17.059 -0.0875  0.2589 -0.4564
 6939TIP3    H142308   3.730   5.673  17.117 -3.1190  0.4252  1.1837
 6939TIP3    H242309   3.637   5.711  17.003 -0.9189  1.5796 -0.2870
 6940TIP3   OH242310   3.103   2.021   2.433  0.1327 -0.0406 -0.1507
 6940TIP3    H142311   3.088   1.993   2.342  0.1681  0.4711 -0.3134
 6940TIP3    H242312   3.018   2.055   2.461 -0.0002 -0.6064  0.1598
 6941TIP3   OH242313   2.970   4.050   5.306 -0.0884 -0.4230  0.2952
 6941TIP3    H142314   2.918   3.999   5.243 -0.8760  0.5037  0.1560
 6941TIP3    H242315   2.971   4.139   5.269  1.2611 -0.3252  0.5205
 6942TIP3   OH242316   0.831   0.705  17.174 -0.0116 -0.4173  0.0043
 6942TIP3    H142317   0.768   0.775  17.158  1.1954  1.4131  2.6089
 6942TIP3    H242318   0.917   0.748  17.173  1.1060 -2.4723 -1.4553
 6943TIP3   OH242319   1.196   2.694  13.683 -0.2622 -0.3908  0.3234
 6943TIP3    H142320   1.199   2.633  13.609  0.2804  0.3009 -0.2392
 6943TIP3    H242321   1.152   2.772  13.649  1.8648  0.7691  0.0480
 6944TIP3   OH242322   2.112   5.879  16.903 -0.4308 -0.6739  0.4263
 6944TIP3    H142323   2.085   5.876  16.811 -0.1661 -1.3293  0.3661
 6944TIP3    H242324   2.169   5.956  16.908 -1.1043 -0.1556  0.2283
 6945TIP3   OH242325   2.161   0.285  15.989 -0.1271  0.1209  0.1759
 6945TIP3    H142326   2.138   0.192  15.992 -0.6344  0.2553  1.2756
 6945TIP3    H242327   2.130   0.319  16.073  0.9499  1.0799  0.2088
 6946TIP3   OH242328   2.821   1.719   5.610  0.6764  0.2667  0.2330
 6946TIP3    H142329   2.861   1.635   5.586  1.0271  0.2739  0.7717
 6946TIP3    H242330   2.875   1.784   5.566  1.5633  0.3009  1.3345
 6947TIP3   OH242331   3.054   0.913   1.768  0.3435  0.5508 -0.2422
 6947TIP3    H142332   2.996   0.868   1.706  1.1088 -1.1804  0.2303
 6947TIP3    H242333   3.142   0.902   1.732  0.5315  2.2261 -0.4006
 6948TIP3   OH242334   3.106   1.524   6.460 -0.0503 -0.4116  0.2088
 6948TIP3    H142335   3.133   1.444   6.504  0.6368 -1.7030 -2.3967
 6948TIP3    H242336   3.047   1.496   6.390  2.4156  0.8677 -2.6535
 6949TIP3   OH242337   5.955   3.525  11.838 -0.4005 -0.4480 -0.1303
 6949TIP3    H142338   6.010   3.454  11.804 -1.4174 -0.4622 -1.8924
 6949TIP3    H242339   5.882   3.479  11.880 -0.2167 -0.4374  0.2013
 6950TIP3   OH242340   2.328   4.511   5.155  0.7759 -0.1542 -0.5143
 6950TIP3    H142341   2.322   4.480   5.246 -0.7656 -1.3403 -0.9813
 6950TIP3    H242342   2.366   4.599   5.163  2.3895 -0.9175  1.1022
 6951TIP3   OH242343   6.553   5.467   1.015 -0.2515  0.0225  0.3684
 6951TIP3    H142344   6.589   5.452   1.102 -1.4020 -0.0134  0.8499
 6951TIP3    H242345   6.520   5.557   1.018  1.1472  0.6234 -0.5713
 6952TIP3   OH242346   5.571   4.441   2.703  0.7741  0.1180  0.0584
 6952TIP3    H142347   5.585   4.369   2.765  1.0145  0.9022  0.9307
 6952TIP3    H242348   5.476   4.440   2.687  0.8319 -0.6588 -0.2740
 6953TIP3   OH242349   6.813   1.826  14.785 -0.1200 -0.8460 -0.3160
 6953TIP3    H142350   6.729   1.864  14.809 -0.0166 -0.9738  0.2802
 6953TIP3    H242351   6.877   1.895  14.802 -0.1745 -0.5009 -1.4638
 6954TIP3   OH242352   4.041   3.883  12.886  0.1829  0.0858  0.2061
 6954TIP3    H142353   3.964   3.852  12.935 -2.0048  2.7039 -1.2692
 6954TIP3    H242354   4.095   3.927  12.951  0.3808 -1.5982  1.2333
 6955TIP3   OH242355   4.884   6.361   0.611  0.1920 -0.4929 -0.0479
 6955TIP3    H142356   4.902   6.333   0.521  0.6008  0.8328 -0.3975
 6955TIP3    H242357   4.856   6.281   0.655 -0.2605 -1.1239 -1.4087
 6956TIP3   OH242358   4.970   2.575   3.276 -0.6736  0.3693 -0.3699
 6956TIP3    H142359   4.967   2.496   3.223 -0.3596  0.8684 -1.1531
 6956TIP3    H242360   4.974   2.544   3.366 -0.7856 -0.4974 -0.6582
 6957TIP3   OH242361   5.906   5.742  13.029 -0.0020  0.0935 -0.2885
 6957TIP3    H142362   5.876   5.808  13.091 -1.7794 -1.4896  0.6443
 6957TIP3    H242363   5.834   5.734  12.967  0.4843 -0.5136 -0.7872
 6958TIP3   OH242364   6.587   1.068  16.235  0.1996  0.5417 -0.2917
 6958TIP3    H142365   6.638   1.048  16.156 -1.2634 -0.2451 -1.0644
 6958TIP3    H242366   6.536   1.146  16.211 -0.9691 -0.2602 -0.4921
 6959TIP3   OH242367   1.601   5.232   3.950  0.3599  0.1646  0.6028
 6959TIP3    H142368   1.688   5.267   3.933  0.8859 -0.2041  2.3882
 6959TIP3    H242369   1.610   5.137   3.940 -0.2127  0.2284 -0.6851
 6960TIP3   OH242370   4.005   5.618   4.277  0.2625  0.1378 -0.6906
 6960TIP3    H142371   3.930   5.563   4.256 -0.6248  0.8878  0.3682
 6960TIP3    H242372   4.000   5.692   4.216 -0.5774  0.7896  0.1322
 6961TIP3   OH242373   0.514   1.858  16.192 -0.4344 -0.3174  0.1723
 6961TIP3    H142374   0.481   1.866  16.102  0.3249 -0.6319 -0.1425
 6961TIP3    H242375   0.443   1.815  16.239 -0.3391 -1.3596 -0.5894
 6962TIP3   OH242376   5.268   3.325  16.562  0.3724 -0.0294  0.2852
 6962TIP3    H142377   5.344   3.326  16.503  0.4160  1.3571  0.3325
 6962TIP3    H242378   5.237   3.415  16.562 -3.3414 -1.0727 -2.3265
 6963TIP3   OH242379   6.030   2.178  11.341 -0.2113 -0.1344  0.4080
 6963TIP3    H142380   6.051   2.271  11.340 -0.2540 -0.1275 -0.1151
 6963TIP3    H242381   6.005   2.158  11.251 -0.2079 -0.6503  0.5172
 6964TIP3   OH242382   4.959   4.574   0.343 -0.3514 -0.3650 -0.0652
 6964TIP3    H142383   4.888   4.580   0.279  0.2274  0.3799 -0.6548
 6964TIP3    H242384   5.026   4.633   0.310  1.3063 -2.3584 -0.4811
 6965TIP3   OH242385   0.888   2.884   0.705  0.2101  0.5954  0.0958
 6965TIP3    H142386   0.889   2.948   0.776 -0.0082  0.4747  0.2055
 6965TIP3    H242387   0.815   2.911   0.649 -1.2181 -0.7552  1.2296
 6966TIP3   OH242388   4.603   3.937  13.760 -0.3526 -0.9046 -0.6535
 6966TIP3    H142389   4.626   4.008  13.700 -1.1634  1.0234  1.2240
 6966TIP3    H242390   4.673   3.937  13.825 -2.7241  1.5253  2.1210
 6967TIP3   OH242391   5.561   5.430   2.779  0.3638 -0.6961  0.6163
 6967TIP3    H142392   5.533   5.517   2.809 -0.6439 -0.7408 -0.1505
 6967TIP3    H242393   5.499   5.369   2.821  0.5997 -0.9789  0.5573
 6968TIP3   OH242394   3.157   3.861  11.147 -0.5330 -0.1976  0.5149
 6968TIP3    H142395   3.211   3.869  11.225  0.2200 -1.2609  0.1207
 6968TIP3    H242396   3.112   3.777  11.158  0.2386 -0.7785 -0.5745
 6969TIP3   OH242397   0.252   6.372  12.242 -0.2843  0.4442 -0.7889
 6969TIP3    H142398   0.302   6.366  12.161  0.4073  0.7224 -0.3859
 6969TIP3    H242399   0.253   6.284  12.278 -1.8737 -0.0399 -1.8233
 6970TIP3   OH242400   4.329   6.466  14.824  0.5350 -0.2470 -1.1361
 6970TIP3    H142401   4.246   6.437  14.787 -0.6438  1.4959 -0.0269
 6970TIP3    H242402   4.330   6.429  14.913  0.2338  0.9025 -0.6366
 6971TIP3   OH242403   2.125   3.810  16.054 -0.1226 -0.2269  0.1250
 6971TIP3    H142404   2.108   3.756  15.977 -0.6460  0.1179 -0.0089
 6971TIP3    H242405   2.218   3.796  16.074 -0.6110 -2.4381  1.0796
 6972TIP3   OH242406   5.383   1.253   2.661 -0.0606 -0.6535  0.1514
 6972TIP3    H142407   5.462   1.226   2.615 -0.1285  0.2971 -0.5573
 6972TIP3    H242408   5.312   1.239   2.599  0.0013  1.8961 -0.6286
 6973TIP3   OH242409   4.978   4.463   2.286  0.5173 -0.2842  0.0418
 6973TIP3    H142410   4.884   4.482   2.282  0.1862 -2.0201 -1.3528
 6973TIP3    H242411   5.020   4.545   2.257 -0.5747  0.3194  0.1140
 6974TIP3   OH242412   3.403   6.482  12.118  0.2019  0.0283  0.3002
 6974TIP3    H142413   3.340   6.410  12.115  0.1775  0.0673 -0.3138
 6974TIP3    H242414   3.459   6.467  12.041  1.5785 -0.5792  1.3713
 6975TIP3   OH242415   3.037   4.149   0.632 -0.3271  0.0667 -0.3433
 6975TIP3    H142416   2.968   4.155   0.566 -0.7566 -1.9753 -0.1520
 6975TIP3    H242417   3.092   4.077   0.602  2.8582  2.7062 -1.4270
 6976TIP3   OH242418   2.896   5.392  11.044 -0.3699  0.3034 -0.2452
 6976TIP3    H142419   2.990   5.408  11.037 -0.2547  0.5239  1.3282
 6976TIP3    H242420   2.866   5.455  11.110 -1.1379 -1.4514  1.1674
 6977TIP3   OH242421   0.883   0.342   2.448 -0.7216  0.1734  0.0197
 6977TIP3    H142422   0.791   0.370   2.443 -0.4768  0.9799 -0.1944
 6977TIP3    H242423   0.928   0.400   2.386  0.1178  0.5759  0.9751
 6978TIP3   OH242424   0.407   2.878  13.316  0.5044 -0.0182  0.7093
 6978TIP3    H142425   0.398   2.904  13.408  0.3601  0.9948  0.4192
 6978TIP3    H242426   0.367   2.791  13.312  1.0500 -0.3421  1.7266
 6979TIP3   OH242427   4.706   2.595  16.162  0.1900 -0.7950  0.3020
 6979TIP3    H142428   4.737   2.631  16.079 -0.5414 -0.0437  0.3468
 6979TIP3    H242429   4.613   2.578  16.147  0.0759 -0.7339  0.9400
 6980TIP3   OH242430   5.847   2.851   4.554  0.1097  0.6138  0.0399
 6980TIP3    H142431   5.784   2.782   4.532 -0.2677  0.8155  0.4613
 6980TIP3    H242432   5.884   2.877   4.470 -1.0979  1.1789 -0.3522
 6981TIP3   OH242433   5.716   4.472  11.758  0.1972  0.1775  0.4716
 6981TIP3    H142434   5.741   4.492  11.848 -1.2633 -1.2985  1.2757
 6981TIP3    H242435   5.719   4.556  11.712 -1.8760  1.5663  2.6479
 6982TIP3   OH242436   4.371   2.570   1.161 -0.5363 -0.7315  0.0161
 6982TIP3    H142437   4.290   2.581   1.209  1.0228  1.1687  2.4718
 6982TIP3    H242438   4.388   2.476   1.162 -2.7251 -1.1822 -0.7118
 6983TIP3   OH242439   5.893   1.047   2.850 -0.6147  0.1483  0.2409
 6983TIP3    H142440   5.855   1.132   2.871  0.2944  0.7898 -0.6443
 6983TIP3    H242441   5.959   1.065   2.783 -0.5667 -1.2838 -0.1397
 6984TIP3   OH242442   6.747   5.052   3.767  0.5995 -0.6294 -0.6464
 6984TIP3    H142443   6.765   5.034   3.859  0.1168 -1.3050 -0.6745
 6984TIP3    H242444   6.667   5.002   3.748  0.0862  0.3642 -1.1497
 6985TIP3   OH242445   6.551   5.345  12.277  0.1275  0.4096 -0.1351
 6985TIP3    H142446   6.458   5.362  12.262 -0.6517 -2.5873  0.6185
 6985TIP3    H242447   6.567   5.372  12.367 -0.8141 -1.7249  0.7169
 6986TIP3   OH242448   2.910   6.164  15.090 -0.9547 -0.0257  0.2400
 6986TIP3    H142449   2.952   6.115  15.160  0.5226 -0.2992 -0.7875
 6986TIP3    H242450   2.828   6.118  15.073 -0.3100 -1.2273  0.3349
 6987TIP3   OH242451   6.718   4.602  15.053 -0.0804 -0.0052  0.0505
 6987TIP3    H142452   6.715   4.698  15.056  2.2679  0.1157  1.7766
 6987TIP3    H242453   6.693   4.575  15.141  0.6380 -0.8736  0.0054
 6988TIP3   OH242454   2.265   4.893  12.059  0.3305 -0.1135  0.0306
 6988TIP3    H142455   2.334   4.901  11.993  2.8161  1.3011  2.6136
 6988TIP3    H242456   2.241   4.983  12.079 -3.2663 -0.5341 -1.5728
 6989TIP3   OH242457   3.815   3.708  15.330 -0.2091  0.0759  0.3603
 6989TIP3    H142458   3.743   3.744  15.382  0.6625  1.8552  0.3768
 6989TIP3    H242459   3.877   3.674  15.395  0.7641  2.0767  0.5317
 6990TIP3   OH242460   4.833   1.593  14.087  0.6800  0.8470 -0.0517
 6990TIP3    H142461   4.864   1.679  14.114  2.3538  0.7457 -1.4336
 6990TIP3    H242462   4.846   1.538  14.165  3.9580  0.8859 -0.4161
 6991TIP3   OH242463   3.824   1.250  12.670  0.1047 -0.1925  0.5023
 6991TIP3    H142464   3.862   1.187  12.609 -0.7028 -0.2497  0.0367
 6991TIP3    H242465   3.852   1.220  12.756  2.7146  0.8888  0.1042
 6992TIP3   OH242466   0.943   1.578   0.873  0.0306  0.6679  0.0510
 6992TIP3    H142467   1.022   1.588   0.821  1.6544 -1.8278  1.7810
 6992TIP3    H242468   0.872   1.567   0.809  1.0259  2.8519 -1.5330
 6993TIP3   OH242469   0.962   5.648   3.208 -0.4441 -0.0793  1.0339
 6993TIP3    H142470   0.987   5.693   3.288 -0.1625  0.9801  0.3723
 6993TIP3    H242471   0.899   5.707   3.166 -0.6699 -0.6698  0.5263
 6994TIP3   OH242472   6.439   4.385   3.462  0.0090 -0.0326 -0.1071
 6994TIP3    H142473   6.373   4.397   3.529 -0.1539  1.0498 -0.4343
 6994TIP3    H242474   6.396   4.412   3.381  0.4713 -0.4970 -0.5153
 6995TIP3   OH242475   2.901   3.492   4.358 -0.0336 -0.0521 -0.8458
 6995TIP3    H142476   2.990   3.477   4.389 -0.1268 -0.1208 -0.6156
 6995TIP3    H242477   2.882   3.418   4.301  0.0153 -0.0944 -0.8067
 6996TIP3   OH242478   3.959   1.066   4.852  0.4847  0.1175  0.2020
 6996TIP3    H142479   4.022   1.046   4.783  0.9865 -0.0256  0.6977
 6996TIP3    H242480   3.876   1.031   4.820  0.3102  1.5874 -1.1309
 6997TIP3   OH242481   1.084   6.280   0.781  0.0324 -0.2798 -0.6482
 6997TIP3    H142482   1.179   6.283   0.773  0.0149 -0.8976 -1.1808
 6997TIP3    H242483   1.069   6.242   0.868  0.3162 -2.4367 -1.4660
 6998TIP3   OH242484   4.186   5.098   3.034 -0.1006 -0.1103  0.3632
 6998TIP3    H142485   4.181   5.110   2.940 -1.8712 -0.9669  0.3036
 6998TIP3    H242486   4.211   5.006   3.046 -3.5659 -1.1893  0.5973
 6999TIP3   OH242487   3.893   6.442  16.467 -0.2024  0.3098  0.2097
 6999TIP3    H142488   3.891   6.510  16.399 -1.4156 -0.1594 -0.2676
 6999TIP3    H242489   3.818   6.464  16.523  0.4226  0.3338  1.0403
 7000TIP3   OH242490   4.369   2.903   0.571  0.0671  0.1402 -0.3497
 7000TIP3    H142491   4.356   2.860   0.487  0.1029 -0.6906  0.0538
 7000TIP3    H242492   4.329   2.843   0.634  2.7739 -0.8479  0.5802
 7001TIP3   OH242493   5.817   1.183   0.816 -0.2155 -0.3947 -0.0051
 7001TIP3    H142494   5.729   1.222   0.814 -0.7505 -1.5413  0.3184
 7001TIP3    H242495   5.840   1.182   0.909 -0.7771 -2.0295  0.1477
 7002TIP3   OH242496   1.997   0.006  15.627  0.2434 -0.8287 -0.3764
 7002TIP3    H142497   1.922   0.009  15.568  0.3553 -0.5940 -0.5093
 7002TIP3    H242498   1.968   0.056  15.704  0.2407 -0.7909 -0.4017
 7003TIP3   OH242499   3.786   3.454   0.881  0.4938 -0.2550 -0.0592
 7003TIP3    H142500   3.836   3.408   0.948 -0.4333 -0.4386  0.5285
 7003TIP3    H242501   3.838   3.445   0.801 -0.1007 -3.1786 -0.2161
 7004TIP3   OH242502   3.533   3.711  15.624  0.4103 -0.5100  0.1725
 7004TIP3    H142503   3.533   3.782  15.560  1.7795 -0.5076  0.1444
 7004TIP3    H242504   3.496   3.750  15.703 -0.2891 -0.2167 -0.2830
 7005TIP3   OH242505   6.307   6.592   3.321 -0.1451 -0.5025 -0.0807
 7005TIP3    H142506   6.396   6.618   3.295 -0.2604 -0.0408 -0.0177
 7005TIP3    H242507   6.298   6.624   3.410 -0.6867  0.2216 -0.3882
 7006TIP3   OH242508   4.790   0.601  14.036  0.1999  0.2243  0.5687
 7006TIP3    H142509   4.802   0.637  14.124  2.3435  0.6692  0.1582
 7006TIP3    H242510   4.842   0.521  14.035 -0.9572 -0.5371  0.1207
 7007TIP3   OH242511   6.105   0.482  15.584  0.2649  0.1936 -0.3111
 7007TIP3    H142512   6.108   0.477  15.680  1.2426 -0.9005 -0.3742
 7007TIP3    H242513   6.054   0.405  15.558  0.1741  0.3783 -0.6834
 7008TIP3   OH242514   2.957   6.067   0.483 -0.4961  0.5906 -0.0083
 7008TIP3    H142515   3.045   6.036   0.463 -0.7597 -0.2632  0.1059
 7008TIP3    H242516   2.947   6.146   0.430  0.2055  0.5028 -0.2913
 7009TIP3   OH242517   5.745   0.492   4.726 -0.3277 -0.7379 -0.3462
 7009TIP3    H142518   5.738   0.453   4.639  1.1416  1.2044 -1.4164
 7009TIP3    H242519   5.678   0.561   4.727  0.5232  0.1230 -0.4964
 7010TIP3   OH242520   1.865   6.473   5.330 -0.2633 -0.4379  0.7972
 7010TIP3    H142521   1.954   6.486   5.299 -1.0222  0.9961 -0.9351
 7010TIP3    H242522   1.871   6.397   5.389  1.9807 -0.6882  0.3307
 7011TIP3   OH242523   2.554   5.346  14.122 -0.1201  0.0854 -0.3562
 7011TIP3    H142524   2.643   5.372  14.144 -0.1641 -0.0529 -0.0121
 7011TIP3    H242525   2.514   5.425  14.085 -0.5818  0.8334  1.6479
 7012TIP3   OH242526   3.320   6.347  14.136 -0.1375 -0.3521 -0.2576
 7012TIP3    H142527   3.243   6.350  14.194  0.6230  2.5105  0.7435
 7012TIP3    H242528   3.283   6.341  14.048 -1.6509  2.0719  0.1191
 7013TIP3   OH242529   2.011   2.478   1.099 -0.0513  0.6661 -0.0339
 7013TIP3    H142530   1.939   2.494   1.038  1.0564  2.3295 -0.9944
 7013TIP3    H242531   2.024   2.562   1.144 -0.4666 -0.3572  2.1491
 7014TIP3   OH242532   5.891   1.980  12.881 -0.3685 -0.2012  0.2435
 7014TIP3    H142533   5.896   2.075  12.875  0.7976 -0.3190 -1.1971
 7014TIP3    H242534   5.816   1.963  12.939  0.3794  1.5841  1.8241
 7015TIP3   OH242535   5.943   1.974   2.898  0.0752 -0.0162  0.5927
 7015TIP3    H142536   5.883   1.972   2.972 -0.9874 -1.8527 -0.2473
 7015TIP3    H242537   5.971   1.883   2.887 -0.5634  0.0098 -1.8197
 7016TIP3   OH242538   3.669   1.406  12.366 -0.1989 -0.2670  0.3275
 7016TIP3    H142539   3.601   1.473  12.376  0.1328  0.3648 -1.2084
 7016TIP3    H242540   3.744   1.440  12.415 -0.4566 -0.1647  0.6541
 7017TIP3   OH242541   2.790   6.622  14.943 -0.1532 -0.2592 -0.1977
 7017TIP3    H142542   2.809   6.689  14.877  0.3353 -1.4749 -1.3272
 7017TIP3    H242543   2.748   6.552  14.894 -1.4836 -0.4263  1.1307
 7018TIP3   OH242544   4.345   6.412  15.112 -0.0132  0.5454 -0.0357
 7018TIP3    H142545   4.349   6.467  15.190  1.0336 -0.8312  0.9385
 7018TIP3    H242546   4.266   6.359  15.125  0.5175 -0.1455  0.4371
 7019TIP3   OH242547   1.965   1.522   4.052 -0.0381 -0.0873  0.1597
 7019TIP3    H142548   1.891   1.563   4.007  0.7981 -0.0462 -1.2240
 7019TIP3    H242549   1.987   1.583   4.122 -0.0537  0.8805 -0.6516
 7020TIP3   OH242550   2.521   5.930   3.527  0.3951 -0.1114 -0.2515
 7020TIP3    H142551   2.547   5.968   3.443  0.0843 -1.8271 -1.1656
 7020TIP3    H242552   2.516   5.836   3.510 -0.2007 -0.4370  1.5607
 7021TIP3   OH242553   2.587   3.322  13.691  0.2430 -0.3599 -0.1961
 7021TIP3    H142554   2.577   3.275  13.774  0.5641 -0.8042 -0.4054
 7021TIP3    H242555   2.497   3.337  13.661  0.0438  1.4931  1.1486
 7022TIP3   OH242556   4.185   4.948  17.051  0.3171  0.4116 -0.6202
 7022TIP3    H142557   4.227   5.030  17.077 -1.6554  1.4191 -0.4388
 7022TIP3    H242558   4.226   4.881  17.105  1.1033  1.4514  0.1025
 7023TIP3   OH242559   3.328   0.204  11.131  0.5816 -0.3115 -0.6016
 7023TIP3    H142560   3.391   0.152  11.081  0.3141 -1.5743  0.3358
 7023TIP3    H242561   3.328   0.165  11.218  0.8952  1.7158  0.3763
 7024TIP3   OH242562   5.247   2.439  16.210 -0.1179  0.6335 -0.2773
 7024TIP3    H142563   5.207   2.436  16.297  1.4923 -0.3858  0.4723
 7024TIP3    H242564   5.316   2.505  16.218  1.8444 -1.3771  0.0876
 7025TIP3   OH242565   0.884   0.477  13.760 -0.0386 -0.1982 -0.1927
 7025TIP3    H142566   0.822   0.512  13.696 -1.4819 -1.3501  0.5331
 7025TIP3    H242567   0.832   0.461  13.838  1.3316 -0.5442  0.6772
 7026TIP3   OH242568   6.285   0.566  12.784 -0.3168  0.0904  0.1505
 7026TIP3    H142569   6.334   0.643  12.812 -0.4538  0.8223 -1.4653
 7026TIP3    H242570   6.311   0.553  12.693 -1.3948 -0.8893 -0.0467
 7027TIP3   OH242571   5.172   5.535  14.631 -0.7260  0.2589  0.1617
 7027TIP3    H142572   5.177   5.439  14.639  0.0771  0.2990  0.2450
 7027TIP3    H242573   5.156   5.550  14.538 -0.0212  0.0608  0.0021
 7028TIP3   OH242574   1.739   4.821   4.663  0.2502 -0.4621 -0.1610
 7028TIP3    H142575   1.743   4.843   4.570  0.6107 -0.0932 -0.0597
 7028TIP3    H242576   1.649   4.844   4.690  0.4993  0.5521 -0.1442
 7029TIP3   OH242577   0.817   4.286  11.191 -0.5267  0.1486 -0.4095
 7029TIP3    H142578   0.801   4.308  11.283 -1.0304 -0.8859 -0.2339
 7029TIP3    H242579   0.771   4.354  11.142 -0.4338  0.5898  0.1116
 7030TIP3   OH242580   4.662   6.705  13.521 -0.3135  0.5635 -0.1621
 7030TIP3    H142581   4.637   6.746  13.603 -2.1638 -1.3113  0.2903
 7030TIP3    H242582   4.616   6.621  13.520  3.0411 -1.4750 -1.1010
 7031TIP3   OH242583   2.360   6.055   3.058 -0.6967 -0.1377 -0.0926
 7031TIP3    H142584   2.288   5.994   3.073 -0.0993 -0.9463 -0.4837
 7031TIP3    H242585   2.324   6.141   3.083 -1.7031 -0.5679 -0.0250
 7032TIP3   OH242586   1.111   3.249  10.470  0.7340  0.0465 -0.3745
 7032TIP3    H142587   1.056   3.317  10.509 -2.0726 -0.8436 -2.4770
 7032TIP3    H242588   1.199   3.267  10.505 -0.4916  2.6426  1.7749
 7033TIP3   OH242589   5.835   2.348   3.564  0.0459  0.8659 -0.3931
 7033TIP3    H142590   5.855   2.259   3.594 -0.9888  0.2326 -1.5117
 7033TIP3    H242591   5.921   2.389   3.553  0.5891 -0.4011 -1.0476
 7034TIP3   OH242592   0.562   0.659   4.662  0.1488  0.1017 -0.3155
 7034TIP3    H142593   0.552   0.661   4.758 -0.7895  1.3316 -0.4014
 7034TIP3    H242594   0.547   0.568   4.638  2.8340 -0.7467  0.9056
 7035TIP3   OH242595   0.481   5.994   4.473  0.0917 -0.2101 -0.6476
 7035TIP3    H142596   0.553   5.993   4.410 -0.7940  1.5488 -1.7847
 7035TIP3    H242597   0.426   6.068   4.445 -1.5153 -0.7514  0.8874
 7036TIP3   OH242598   5.674   5.210   2.627 -0.0340  0.1458  0.0027
 7036TIP3    H142599   5.626   5.279   2.674  0.2418  0.0782  0.3884
 7036TIP3    H242600   5.736   5.176   2.692 -0.0152 -0.3111 -0.2537
 7037TIP3   OH242601   3.066   0.022   3.290 -0.3098 -0.3351 -0.3676
 7037TIP3    H142602   3.012   0.018   3.212  0.2456  0.0265 -0.7775
 7037TIP3    H242603   3.065   0.115   3.315 -0.6155 -0.4726  0.1496
 7038TIP3   OH242604   6.247   1.172  14.274  0.4545 -0.1984  0.7340
 7038TIP3    H142605   6.308   1.132  14.212  1.1394  0.4542  0.9813
 7038TIP3    H242606   6.293   1.249  14.307 -1.2752  1.4873 -0.5788
 7039TIP3   OH242607   0.044   6.342  11.753 -0.2589 -0.3522  0.0212
 7039TIP3    H142608   0.054   6.293  11.836 -0.2350 -0.4314 -0.0284
 7039TIP3    H242609  -0.000   6.423  11.779 -0.0021 -0.2524  0.1543
 7040TIP3   OH242610   4.547   4.363   0.693  0.1801  0.2455  0.2400
 7040TIP3    H142611   4.484   4.432   0.672 -1.7366 -0.8667  1.9685
 7040TIP3    H242612   4.563   4.319   0.610  1.1044  2.4083 -0.8135
 7041TIP3   OH242613   3.704   0.579  14.176 -0.2308 -0.2196  0.0004
 7041TIP3    H142614   3.764   0.602  14.104 -0.1099 -0.3085  0.0722
 7041TIP3    H242615   3.617   0.588  14.138 -0.1947  0.5169  0.0741
 7042TIP3   OH242616   3.012   2.931  13.672 -0.5483 -0.7455 -0.1474
 7042TIP3    H142617   3.019   3.014  13.719 -0.5837 -1.0326  0.3834
 7042TIP3    H242618   2.941   2.885  13.717  0.2474 -1.5435  0.3320
 7043TIP3   OH242619   1.824   6.605   2.757 -0.0986  0.4236  0.6449
 7043TIP3    H142620   1.737   6.615   2.794  0.2023 -0.4562  1.6151
 7043TIP3    H242621   1.828   6.515   2.725  0.4514  0.4597  0.5861
 7044TIP3   OH242622   3.042   2.366   2.338  0.6989  0.3480 -0.4000
 7044TIP3    H142623   3.040   2.397   2.428 -0.1127 -1.7726  0.3773
 7044TIP3    H242624   3.131   2.384   2.308  1.3265  0.0439  1.2159
 7045TIP3   OH242625   1.855   2.550   3.685  0.1287  1.0917  0.1603
 7045TIP3    H142626   1.887   2.585   3.769  2.5004  1.6075 -0.8658
 7045TIP3    H242627   1.878   2.457   3.688 -1.2958  0.7355  0.7137
 7046TIP3   OH242628   5.785   5.531  11.430  0.1765 -0.1114 -0.1099
 7046TIP3    H142629   5.728   5.486  11.492 -0.3229 -0.9814 -1.1576
 7046TIP3    H242630   5.829   5.461  11.382  0.6726  0.5377 -0.6200
 7047TIP3   OH242631   4.024   0.272  12.652 -0.4107  0.1704  0.1119
 7047TIP3    H142632   3.985   0.313  12.729 -0.5677 -0.8226  0.5861
 7047TIP3    H242633   3.980   0.187  12.646 -0.8449  0.4862 -1.4530
 7048TIP3   OH242634   4.734   6.536  12.610 -0.2359 -0.3035 -0.2974
 7048TIP3    H142635   4.739   6.630  12.593  0.2849 -0.7772 -3.1306
 7048TIP3    H242636   4.641   6.518  12.621 -0.2998  0.5837  0.8950
 7049TIP3   OH242637   5.197   3.643   4.402  0.3197  0.3080 -0.4726
 7049TIP3    H142638   5.195   3.612   4.311  0.3306 -0.1200 -0.3283
 7049TIP3    H242639   5.130   3.590   4.446  0.5283  0.3005 -0.1633
 7050TIP3   OH242640   5.074   0.522  11.052  0.2020 -0.5711 -0.3949
 7050TIP3    H142641   4.980   0.535  11.040  0.1305 -1.9355 -1.6045
 7050TIP3    H242642   5.094   0.441  11.005  2.1296  0.1129 -0.8838
 7051TIP3   OH242643   4.393   0.376  13.966 -0.9524  0.5401  0.1168
 7051TIP3    H142644   4.442   0.458  13.971  0.6641 -0.4005  0.4155
 7051TIP3    H242645   4.328   0.382  14.036  0.8759  0.5070  1.9039
 7052TIP3   OH242646   5.280   6.001  16.421  0.0591 -0.5143  0.7074
 7052TIP3    H142647   5.253   5.913  16.396  1.6364 -0.7899 -0.1436
 7052TIP3    H242648   5.205   6.036  16.468 -0.8238 -2.0931  0.5560
 7053TIP3   OH242649   4.362   1.829  14.582 -0.6742  0.3081  0.5070
 7053TIP3    H142650   4.284   1.788  14.544  0.2686  1.5468 -3.1946
 7053TIP3    H242651   4.414   1.755  14.614 -2.1072 -0.7776  0.4337
 7054TIP3   OH242652   2.486   4.226   4.035  0.0366  0.2661 -0.1840
 7054TIP3    H142653   2.559   4.261   4.086  0.3906 -0.3492 -0.2614
 7054TIP3    H242654   2.476   4.136   4.066  0.7475 -0.3652 -1.7098
 7055TIP3   OH242655   4.183   3.044   5.465  0.1422  0.7743  0.3746
 7055TIP3    H142656   4.193   3.136   5.492 -1.3392  0.9705  0.3560
 7055TIP3    H242657   4.182   2.996   5.548  0.6829  0.7981  0.3975
 7056TIP3   OH242658   1.169   6.033  13.046 -0.0644  0.8805  0.2668
 7056TIP3    H142659   1.197   5.941  13.047 -0.0181  0.8705 -0.8782
 7056TIP3    H242660   1.086   6.033  13.000 -0.0234  1.4299  0.1861
 7057TIP3   OH242661   4.277   5.335   1.107 -1.0685  0.2649 -0.0443
 7057TIP3    H142662   4.275   5.239   1.113 -0.7930  0.3324  1.5314
 7057TIP3    H242663   4.266   5.364   1.198 -2.6608  1.7607 -0.6721
 7058TIP3   OH242664   0.090   3.999  14.118 -0.4802  0.0580  0.2345
 7058TIP3    H142665   0.137   4.082  14.111 -2.5523  1.2671 -0.1192
 7058TIP3    H242666   0.018   4.007  14.056 -0.9939 -1.8536  0.5128
 7059TIP3   OH242667   6.553   3.991   1.817  0.0853 -0.3373 -0.2908
 7059TIP3    H142668   6.475   3.936   1.821 -0.6602  0.6576 -0.8513
 7059TIP3    H242669   6.624   3.934   1.849 -0.7127 -1.5140 -0.5518
 7060TIP3   OH242670   4.642   2.826   4.821 -0.4882 -0.1669 -0.2788
 7060TIP3    H142671   4.716   2.778   4.784 -0.5739 -1.4447  1.0925
 7060TIP3    H242672   4.572   2.815   4.757  0.8807  2.3946 -2.3609
 7061TIP3   OH242673   5.501   5.882  13.260 -0.0122 -0.3669  0.1838
 7061TIP3    H142674   5.473   5.940  13.331  1.9016  0.1652  0.5696
 7061TIP3    H242675   5.496   5.936  13.181  0.5611 -0.0563  0.3551
 7062TIP3   OH242676   3.017   1.353   0.551 -0.6652  0.7926  0.0706
 7062TIP3    H142677   3.043   1.319   0.637  1.4186 -0.1169 -0.8523
 7062TIP3    H242678   2.949   1.294   0.520  1.7723 -1.7437 -0.8068
 7063TIP3   OH242679   3.506   6.298   6.171 -0.2828  0.3014  0.4370
 7063TIP3    H142680   3.487   6.208   6.144  0.2499 -0.0257  1.1324
 7063TIP3    H242681   3.577   6.326   6.112  0.6133 -0.2794  1.2097
 7064TIP3   OH242682   1.314   1.712  13.454 -0.2538 -0.5409 -0.5856
 7064TIP3    H142683   1.360   1.629  13.450 -0.3432 -0.8641  2.4781
 7064TIP3    H242684   1.382   1.778  13.439  1.3426 -1.0289  3.1419
 7065TIP3   OH242685   1.176   3.031   0.406  0.0751  0.1647 -0.5130
 7065TIP3    H142686   1.175   2.977   0.484 -0.6976 -0.6405 -1.0555
 7065TIP3    H242687   1.256   3.005   0.359 -0.2628 -0.4852 -0.7437
 7066TIP3   OH242688   6.594   3.373  15.034  0.0178  0.0828 -0.4306
 7066TIP3    H142689   6.635   3.340  15.114 -0.1596 -0.2178 -0.4614
 7066TIP3    H242690   6.526   3.309  15.014  0.2569 -0.0043 -0.9841
 7067TIP3   OH242691   5.257   0.597  14.115  0.1394 -0.2916 -0.4498
 7067TIP3    H142692   5.314   0.667  14.147  0.8332 -0.8785 -0.3893
 7067TIP3    H242693   5.214   0.562  14.193 -2.7516  2.1663 -0.7171
 7068TIP3   OH242694   2.215   0.506   3.269 -0.2214  1.1386 -0.3770
 7068TIP3    H142695   2.293   0.494   3.214  0.9286  1.7641  1.0613
 7068TIP3    H242696   2.195   0.600   3.263  1.4650  1.7585  2.1864
 7069TIP3   OH242697   0.607   0.501  16.061 -0.2467  0.0979 -0.2932
 7069TIP3    H142698   0.518   0.510  16.028 -0.4945 -0.0107  0.3320
 7069TIP3    H242699   0.611   0.560  16.135 -0.1722 -0.7645  0.4082
 7070TIP3   OH242700   4.404   6.709  15.055 -0.4572  0.0234 -0.2480
 7070TIP3    H142701   4.499   6.725  15.057 -0.5702  1.5236 -2.3279
 7070TIP3    H242702   4.393   6.621  15.090  1.9876 -1.1168 -2.0481
 7071TIP3   OH242703   6.651   2.456   5.277 -0.0978  0.0853  0.2655
 7071TIP3    H142704   6.649   2.547   5.250  1.5076  0.4243  1.1160
 7071TIP3    H242705   6.744   2.438   5.292 -0.5913 -0.7858  2.9453
 7072TIP3   OH242706   5.880   3.701   2.074  0.1343 -0.2665 -0.0457
 7072TIP3    H142707   5.822   3.705   1.998 -0.2662 -0.4032  0.2499
 7072TIP3    H242708   5.900   3.793   2.094  0.0064 -0.2181 -0.1410
 7073TIP3   OH242709   2.198   0.586  12.814 -0.0879  0.0687 -0.0102
 7073TIP3    H142710   2.142   0.593  12.737 -3.1654  0.4957  2.1287
 7073TIP3    H242711   2.259   0.660  12.806  0.1419 -0.3111 -2.3364
 7074TIP3   OH242712   2.294   0.451   6.038 -0.4150 -0.1274  0.0296
 7074TIP3    H142713   2.338   0.375   6.078 -0.6453 -1.1898 -1.6494
 7074TIP3    H242714   2.357   0.522   6.046  0.4820 -0.9185  0.1789
 7075TIP3   OH242715   5.184   4.931  11.681 -0.0750 -0.0057  0.0316
 7075TIP3    H142716   5.094   4.961  11.688  0.2009  0.6651  0.9286
 7075TIP3    H242717   5.233   4.990  11.739  1.2217  0.8209 -1.7939
 7076TIP3   OH242718   1.472   5.376   3.355 -0.1220 -0.0806 -0.2651
 7076TIP3    H142719   1.452   5.449   3.413  1.5188 -1.5578  2.3625
 7076TIP3    H242720   1.549   5.404   3.306 -0.6196  0.6063 -0.6781
 7077TIP3   OH242721   1.253   1.081   0.921  0.0369  0.0823 -0.3128
 7077TIP3    H142722   1.233   1.160   0.872 -0.8816 -0.3337 -0.6220
 7077TIP3    H242723   1.170   1.035   0.929  0.6768 -1.2091 -0.7558
 7078TIP3   OH242724   0.798   5.466   1.548 -0.1167 -0.6019  0.3898
 7078TIP3    H142725   0.807   5.558   1.573  0.8150  0.0947 -2.1944
 7078TIP3    H242726   0.707   5.458   1.519  0.2003 -0.0419 -0.8381
 7079TIP3   OH242727   1.876   3.970  14.760 -0.0672  0.0689  0.4220
 7079TIP3    H142728   1.877   3.926  14.845 -0.7640 -0.6707  0.0560
 7079TIP3    H242729   1.879   3.898  14.696 -1.4165  0.5364 -0.1830
 7080TIP3   OH242730   1.805   4.723   4.930 -0.0614  0.3454 -0.3278
 7080TIP3    H142731   1.895   4.755   4.940  0.2224 -0.8427  1.5515
 7080TIP3    H242732   1.784   4.737   4.838  1.7624  1.3635 -0.6410
 7081TIP3   OH242733   4.013   4.553  15.376 -0.3650 -0.1860  0.3485
 7081TIP3    H142734   4.031   4.559  15.282  0.5138 -0.5814  0.4823
 7081TIP3    H242735   3.921   4.576  15.384 -0.5197 -0.4034 -0.6433
 7082TIP3   OH242736   6.227   2.071   1.290 -0.1942 -0.2462 -0.2055
 7082TIP3    H142737   6.140   2.041   1.263 -0.0177  0.3043 -1.4763
 7082TIP3    H242738   6.253   2.133   1.221  1.2420 -0.4800  0.0983
 7083TIP3   OH242739   5.400   4.343   0.743 -0.0969  0.5888  0.0679
 7083TIP3    H142740   5.461   4.291   0.796 -0.4446  1.7393  1.6592
 7083TIP3    H242741   5.398   4.298   0.658  1.2564 -0.7345  0.6904
 7084TIP3   OH242742   1.633   0.500  16.356  0.1793  0.2401 -0.0448
 7084TIP3    H142743   1.613   0.406  16.363 -0.9067  0.3630 -1.1698
 7084TIP3    H242744   1.726   0.503  16.334  0.2118 -0.5754 -0.0691
 7085TIP3   OH242745   4.341   2.208  12.633 -0.4898  0.0830  0.2371
 7085TIP3    H142746   4.337   2.175  12.723 -1.2234 -1.1886 -0.2443
 7085TIP3    H242747   4.293   2.291  12.636 -0.6150 -0.0124  0.9966
 7086TIP3   OH242748   0.351   0.939   4.772 -0.4050  0.2791 -0.1803
 7086TIP3    H142749   0.414   0.995   4.818 -0.5550  0.2961  0.0063
 7086TIP3    H242750   0.291   1.000   4.730 -0.4736  0.2604 -0.1098
 7087TIP3   OH242751   6.074   2.529   3.561  0.0052  0.6336 -0.0220
 7087TIP3    H142752   6.029   2.604   3.600 -1.1260  1.1026 -2.0903
 7087TIP3    H242753   6.106   2.561   3.477  1.2028 -0.6958 -0.1050
 7088TIP3   OH242754   2.650   2.131   4.169  0.3465 -0.3865  0.0679
 7088TIP3    H142755   2.564   2.174   4.167  0.0673 -0.9291  0.1286
 7088TIP3    H242756   2.710   2.195   4.132 -0.1682 -0.1796 -0.4226
 7089TIP3   OH242757   3.979   2.606  10.910  0.1227 -0.0633 -0.1461
 7089TIP3    H142758   3.942   2.522  10.884 -2.9568  0.8872  0.7831
 7089TIP3    H242759   4.074   2.592  10.907 -0.2556 -3.4345 -0.3497
 7090TIP3   OH242760   3.239   3.911   2.505 -0.2822 -0.2300  0.1880
 7090TIP3    H142761   3.313   3.969   2.485  1.1592 -1.0992  2.5410
 7090TIP3    H242762   3.260   3.829   2.461  0.1961 -0.4800  0.8644
 7091TIP3   OH242763   2.475   1.842  11.528 -0.1816 -0.4049 -0.6131
 7091TIP3    H142764   2.554   1.891  11.552 -1.3605  0.9655  0.7172
 7091TIP3    H242765   2.421   1.905  11.481  0.0284 -1.7096 -2.6991
 7092TIP3   OH242766   0.644   4.464   1.763 -0.0203  0.2713  0.4032
 7092TIP3    H142767   0.661   4.511   1.681 -0.7244 -0.2060 -0.0176
 7092TIP3    H242768   0.731   4.440   1.795  0.2322  0.0691 -0.4299
 7093TIP3   OH242769   4.719   4.776  11.491  0.1014 -0.5578  0.1401
 7093TIP3    H142770   4.668   4.708  11.535  0.5712 -1.0422 -0.0603
 7093TIP3    H242771   4.810   4.751  11.506  0.2747 -0.1348 -0.1965
 7094TIP3   OH242772   2.155   6.016   3.878 -0.3427 -0.4191  0.2834
 7094TIP3    H142773   2.250   6.002   3.874 -0.1664  0.5368  0.8393
 7094TIP3    H242774   2.137   6.029   3.971 -1.1056 -1.1103  0.2397
 7095TIP3   OH242775   3.131   1.608  13.762 -0.7981  0.0619 -0.3364
 7095TIP3    H142776   3.145   1.523  13.804  1.0325  0.1362 -0.7261
 7095TIP3    H242777   3.036   1.612  13.748 -1.0554 -1.4191  0.7017
 7096TIP3   OH242778   6.330   3.509   4.612 -0.2631 -0.1498  0.4462
 7096TIP3    H142779   6.368   3.467   4.690 -0.1001 -1.0312 -0.0879
 7096TIP3    H242780   6.396   3.572   4.584 -1.6407  2.6145  2.8739
 7097TIP3   OH242781   0.808   2.944   0.183  0.3844 -0.2887 -0.4786
 7097TIP3    H142782   0.774   2.968   0.097 -0.8507 -2.7702 -0.7822
 7097TIP3    H242783   0.846   3.024   0.218 -3.0204  1.9580 -1.4671
 7098TIP3   OH242784   4.279   4.585   2.051  0.2721  0.3983 -0.1406
 7098TIP3    H142785   4.309   4.640   2.124  0.4934  1.0460 -0.7138
 7098TIP3    H242786   4.203   4.631   2.016  0.1167  0.0440 -0.2662
 7099TIP3   OH242787   5.357   5.784  15.416 -0.0646 -0.0445 -0.0013
 7099TIP3    H142788   5.357   5.734  15.335 -1.7172  1.3996 -0.9405
 7099TIP3    H242789   5.336   5.719  15.484 -1.5226 -0.7825 -1.1065
 7100TIP3   OH242790   3.918   1.540   0.871 -0.0612  0.2527  0.1635
 7100TIP3    H142791   3.848   1.575   0.816 -0.6828  0.2318  0.9316
 7100TIP3    H242792   3.912   1.590   0.952 -0.6073 -1.2413  1.0781
 7101TIP3   OH242793   6.720   0.299   4.554 -0.1274  0.1437  0.3990
 7101TIP3    H142794   6.672   0.335   4.629 -0.9697 -0.0222 -0.0521
 7101TIP3    H242795   6.697   0.356   4.481  1.4542  0.8859  0.4473
 7102TIP3   OH242796   4.307   2.447   6.511 -0.4974  0.0153 -0.1035
 7102TIP3    H142797   4.368   2.519   6.526 -2.0978  1.6528 -0.9214
 7102TIP3    H242798   4.243   2.455   6.582 -0.8327 -0.4425 -0.3508
 7103TIP3   OH242799   4.802   4.074  15.160  0.0587  0.2410 -0.0006
 7103TIP3    H142800   4.767   4.051  15.247  0.3698  0.4840  0.1930
 7103TIP3    H242801   4.739   4.137  15.125 -1.5666 -1.8461 -1.1192
 7104TIP3   OH242802   1.279   5.209  15.051 -0.6359  0.3624  0.3394
 7104TIP3    H142803   1.200   5.214  14.999 -0.3044  2.9916 -0.0521
 7104TIP3    H242804   1.346   5.254  14.999  1.1610 -1.7858  0.6398
 7105TIP3   OH242805   6.638   6.000   1.603 -0.1810 -0.5626 -0.3565
 7105TIP3    H142806   6.676   5.912   1.595 -1.2206 -1.3483  2.2077
 7105TIP3    H242807   6.544   5.984   1.612 -0.3198  0.7080  0.8667
 7106TIP3   OH242808   2.163   5.362  14.344 -0.0159 -0.3588 -0.0179
 7106TIP3    H142809   2.246   5.319  14.364  0.6253  0.5444 -0.6656
 7106TIP3    H242810   2.147   5.343  14.252 -0.0904  0.1765 -0.1199
 7107TIP3   OH242811   2.385   0.860   1.876  0.4667 -0.1728 -0.3715
 7107TIP3    H142812   2.346   0.851   1.790 -0.8565  0.7877  0.0800
 7107TIP3    H242813   2.447   0.932   1.867 -1.2489  1.4266 -0.0745
 7108TIP3   OH242814   5.012   1.863  11.819 -0.0698 -0.3036  0.0424
 7108TIP3    H142815   4.963   1.937  11.784  0.5196 -0.2095 -0.6013
 7108TIP3    H242816   5.070   1.901  11.885 -0.4631 -0.3351  0.4077
 7109TIP3   OH242817   3.457   0.211  16.860  0.5855 -0.7047 -0.2344
 7109TIP3    H142818   3.372   0.232  16.822  0.9387 -1.9436 -1.8717
 7109TIP3    H242819   3.478   0.124  16.824  1.5808 -1.3784  1.8265
 7110TIP3   OH242820   3.947   0.362   1.795  0.0300 -0.0208 -0.0718
 7110TIP3    H142821   4.008   0.289   1.782 -1.0704 -1.1155  0.6208
 7110TIP3    H242822   3.992   0.439   1.761  0.7289 -1.2307 -2.0117
 7111TIP3   OH242823   6.764   6.324   3.384  0.1718  0.7160  0.4456
 7111TIP3    H142824   6.677   6.321   3.424 -0.9573  0.3551 -1.9077
 7111TIP3    H242825   6.819   6.273   3.444 -1.2329  0.8698  1.9292
 7112TIP3   OH242826   1.784   3.674  15.208 -0.5886  0.0071  0.1534
 7112TIP3    H142827   1.775   3.579  15.211  0.6387 -0.1895 -1.4580
 7112TIP3    H242828   1.718   3.706  15.271 -1.0772 -1.8744  0.6602
 7113TIP3   OH242829   3.329   1.094   5.446 -0.1131 -0.3102 -0.3890
 7113TIP3    H142830   3.285   1.119   5.527  2.5859  1.3039  0.7171
 7113TIP3    H242831   3.285   1.014   5.419 -0.7805 -1.2562  2.9896
 7114TIP3   OH242832   0.475   4.701   4.396  0.1048 -0.7001  0.0033
 7114TIP3    H142833   0.532   4.750   4.336 -0.1018 -0.6937 -0.1907
 7114TIP3    H242834   0.437   4.632   4.341 -2.0208  0.7897 -0.5269
 7115TIP3   OH242835   0.226   1.403   2.880  0.0233 -0.1506  0.1846
 7115TIP3    H142836   0.175   1.375   2.956 -1.1622  0.3836 -0.3822
 7115TIP3    H242837   0.259   1.490   2.904  1.3913 -0.8295  0.8690
 7116TIP3   OH242838   4.412   2.664  14.962  0.5783 -0.1158 -0.5063
 7116TIP3    H142839   4.430   2.758  14.963  0.8566 -0.1382  1.8276
 7116TIP3    H242840   4.491   2.624  14.925  1.1844  0.4570  0.1544
 7117TIP3   OH242841   3.231   2.197   6.166  0.4408 -0.1373  0.6459
 7117TIP3    H142842   3.284   2.122   6.194  0.1182 -0.1666  1.1926
 7117TIP3    H242843   3.296   2.265   6.146  0.6899  0.2206  2.4565
 7118TIP3   OH242844   5.373   4.439   0.347  0.0521 -0.2331 -0.0239
 7118TIP3    H142845   5.310   4.377   0.310 -0.1606  0.0201 -0.0906
 7118TIP3    H242846   5.330   4.474   0.425  0.1176 -0.0732 -0.0584
 7119TIP3   OH242847   5.561   0.127  12.853  0.0095 -0.2435 -0.4054
 7119TIP3    H142848   5.488   0.110  12.793 -0.3440  1.1416 -0.4017
 7119TIP3    H242849   5.519   0.142  12.938  0.2261  1.1240 -0.5160
 7120TIP3   OH242850   3.273   4.524  13.501 -0.4935  0.1931 -0.7645
 7120TIP3    H142851   3.312   4.609  13.518  0.5633 -0.4699  0.2912
 7120TIP3    H242852   3.303   4.469  13.573 -0.6518 -1.2384 -1.7481
 7121TIP3   OH242853   2.345   0.601   5.475 -0.2002  0.3785  0.1063
 7121TIP3    H142854   2.352   0.571   5.566  0.2284 -0.5007 -0.2064
 7121TIP3    H242855   2.253   0.629   5.466  0.5936  4.1827  1.8796
 7122TIP3   OH242856   2.705   4.354   4.146 -0.4096  0.2340 -0.1002
 7122TIP3    H142857   2.683   4.346   4.238  1.6619  1.8471  0.6072
 7122TIP3    H242858   2.709   4.448   4.130  3.5176  0.1348 -0.6266
 7123TIP3   OH242859   3.495   3.757   1.908  0.1983  0.0642  0.2613
 7123TIP3    H142860   3.560   3.700   1.866  0.3065 -0.8019  1.5455
 7123TIP3    H242861   3.547   3.829   1.945  0.5069 -0.8216  1.6111
 7124TIP3   OH242862   3.501   5.467  11.277  0.0745  0.7182  0.0961
 7124TIP3    H142863   3.452   5.410  11.219 -1.5825  1.8246  0.3308
 7124TIP3    H242864   3.561   5.515  11.220  0.9523 -0.6779 -0.1911
 7125TIP3   OH242865   6.278   0.086   4.485 -0.0539 -0.1996 -0.2596
 7125TIP3    H142866   6.350   0.023   4.479 -0.5076 -0.6738 -0.9241
 7125TIP3    H242867   6.308   0.162   4.435 -0.2878 -0.6777 -1.1478
 7126TIP3   OH242868   2.387   5.072   5.568  0.3528 -0.5449 -0.3131
 7126TIP3    H142869   2.389   5.088   5.663 -0.0792 -0.5604 -0.3019
 7126TIP3    H242870   2.415   5.155   5.530 -0.1506 -0.3183 -0.1928
 7127TIP3   OH242871   0.328   3.150  16.570 -0.0006 -0.0600 -0.2948
 7127TIP3    H142872   0.235   3.165  16.588 -0.0653 -1.8495  1.2151
 7127TIP3    H242873   0.374   3.201  16.637  0.0653 -0.1364 -0.2811
 7128TIP3   OH242874   6.391   4.487  12.263 -0.1745 -0.1170  0.3884
 7128TIP3    H142875   6.380   4.450  12.351 -1.0188  0.9789  0.7710
 7128TIP3    H242876   6.306   4.474  12.221 -0.4692  1.2900  0.5109
 7129TIP3   OH242877   2.070   0.763  16.995 -0.0435 -0.0471  0.2769
 7129TIP3    H142878   2.023   0.824  17.053  1.3974  0.8232  0.5810
 7129TIP3    H242879   2.163   0.781  17.011  0.4324  0.4074 -2.5059
 7130TIP3   OH242880   3.701   3.594  11.282  0.2536 -0.0406 -0.4515
 7130TIP3    H142881   3.653   3.671  11.312  2.3101  0.9072  0.6663
 7130TIP3    H242882   3.688   3.529  11.351  2.7448  1.1999  1.3652
 7131TIP3   OH242883   0.060   3.376  10.628  0.2390  0.5076 -0.5278
 7131TIP3    H142884   0.020   3.300  10.671  1.4772  0.7022  1.0467
 7131TIP3    H242885   0.020   3.377  10.541 -2.6495  0.3008  0.6669
 7132TIP3   OH242886   5.340   2.275   3.490 -0.4025 -0.0040  0.0367
 7132TIP3    H142887   5.341   2.370   3.485  0.6014 -0.0600 -1.7697
 7132TIP3    H242888   5.272   2.249   3.428 -0.2833 -0.4746  0.0991
 7133TIP3   OH242889   0.238   6.416   3.991 -0.5400  0.4408  0.0738
 7133TIP3    H142890   0.216   6.323   4.001  0.1291  0.4229  1.6077
 7133TIP3    H242891   0.229   6.433   3.897 -2.1972 -0.7814 -0.0342
 7134TIP3   OH242892   1.680   2.004   4.248 -0.5046  0.1048 -0.4074
 7134TIP3    H142893   1.641   1.958   4.322 -0.4869 -2.1586 -1.7100
 7134TIP3    H242894   1.611   2.061   4.216 -0.9063  0.2020  0.5853
 7135TIP3   OH242895   0.466   4.916  11.982  0.6358  0.2213 -0.3042
 7135TIP3    H142896   0.443   4.854  12.051 -1.8655  0.5341 -0.7585
 7135TIP3    H242897   0.383   4.934  11.937  1.5128  2.8606 -1.0575
 7136TIP3   OH242898   2.894   3.546  14.412  0.1368 -0.2395  0.0458
 7136TIP3    H142899   2.845   3.617  14.454  1.4317  0.0154  1.1826
 7136TIP3    H242900   2.942   3.589  14.341  0.5906 -0.0318  0.4688
 7137TIP3   OH242901   4.339   1.864  13.955  0.1967 -0.3925  0.2782
 7137TIP3    H142902   4.315   1.771  13.959 -1.2210 -0.1429 -1.1484
 7137TIP3    H242903   4.376   1.883  14.040 -1.1021 -1.8628  1.2289
 7138TIP3   OH242904   0.279   3.387   6.493 -0.4678  0.0432  0.0108
 7138TIP3    H142905   0.344   3.381   6.563  0.6572  0.1168 -0.9827
 7138TIP3    H242906   0.323   3.350   6.417 -1.2086  1.0553 -0.9475
 7139TIP3   OH242907   6.150   6.008  14.633 -0.1417  0.2891  0.0723
 7139TIP3    H142908   6.100   6.010  14.551  1.4644 -1.5931 -1.0392
 7139TIP3    H242909   6.229   6.058  14.614  0.6560 -0.8996  0.1189
 7140TIP3   OH242910   2.021   0.657  12.607 -0.0178  0.3698 -0.0298
 7140TIP3    H142911   1.991   0.637  12.519 -1.1427 -0.2245  0.4746
 7140TIP3    H242912   1.972   0.735  12.632  1.7052  1.7150 -0.6181
 7141TIP3   OH242913   4.471   1.711  12.872  0.2695  0.5339  0.2366
 7141TIP3    H142914   4.559   1.738  12.846 -0.3061  1.0260 -1.2791
 7141TIP3    H242915   4.415   1.785  12.847 -0.4863  0.5822  1.9523
 7142TIP3   OH242916   3.036   1.103  14.920 -0.1416 -0.3023 -0.2533
 7142TIP3    H142917   2.945   1.132  14.908 -0.2546 -0.5859 -0.0852
 7142TIP3    H242918   3.070   1.159  14.990 -0.6807 -1.2539  0.8085
 7143TIP3   OH242919   0.460   6.474  15.745  0.3224 -0.2967  0.3359
 7143TIP3    H142920   0.443   6.491  15.653  0.6661 -0.6060  0.2134
 7143TIP3    H242921   0.375   6.449  15.781  0.2416 -0.4497  0.0392
 7144TIP3   OH242922   2.308   0.798  13.763 -0.0062  0.0533  0.3548
 7144TIP3    H142923   2.324   0.793  13.857  0.2237 -1.2807  0.2628
 7144TIP3    H242924   2.214   0.784  13.754  0.0915 -0.6289  0.3439
 7145TIP3   OH242925   6.700   4.491   6.487  0.8226  0.4414 -0.2604
 7145TIP3    H142926   6.612   4.486   6.449  0.5345 -0.6146  0.5134
 7145TIP3    H242927   6.727   4.582   6.473 -0.0928  0.5911 -1.1546
 7146TIP3   OH242928   2.111   6.002   3.278 -0.2071 -0.0455 -0.1261
 7146TIP3    H142929   2.150   5.919   3.304 -0.8695 -0.3049  0.0573
 7146TIP3    H242930   2.062   6.031   3.355  0.2469  0.6618 -0.0883
 7147TIP3   OH242931   3.820   5.102   0.736  0.8906 -0.0322 -0.7247
 7147TIP3    H142932   3.791   5.156   0.663 -1.2566 -2.2829 -1.7092
 7147TIP3    H242933   3.837   5.164   0.807 -0.7848  1.9585 -1.9445
 7148TIP3   OH242934   0.242   6.050   2.536 -0.0010 -0.3724 -0.5433
 7148TIP3    H142935   0.289   5.976   2.497 -0.0198 -0.3361 -0.6353
 7148TIP3    H242936   0.158   6.013   2.564 -1.0341  0.0928 -2.7514
 7149TIP3   OH242937   0.698   5.544  16.889  0.7450  0.1765 -0.0042
 7149TIP3    H142938   0.688   5.550  16.984  1.1481 -0.8717  0.1205
 7149TIP3    H242939   0.717   5.451  16.873  0.5112  0.3073 -1.1242
 7150TIP3   OH242940   0.127   0.682   5.167  0.3688 -0.5745 -0.6840
 7150TIP3    H142941   0.144   0.762   5.117 -1.4052 -0.0848 -0.5621
 7150TIP3    H242942   0.107   0.713   5.256 -4.0825 -0.6994 -1.4319
 7151TIP3   OH242943   4.935   2.839  14.164 -0.0928  0.0454 -0.6107
 7151TIP3    H142944   4.942   2.753  14.204  1.3707  0.2915 -0.2744
 7151TIP3    H242945   5.022   2.877  14.174 -0.3749  1.0834 -1.8428
 7152TIP3   OH242946   6.678   5.973   2.444 -0.2532 -0.2356 -0.2756
 7152TIP3    H142947   6.756   5.963   2.389  0.4240  0.8746  0.4415
 7152TIP3    H242948   6.659   5.884   2.474 -0.2050 -0.7497 -1.7035
 7153TIP3   OH242949   3.610   1.515  15.269  0.5701 -0.0538  0.0894
 7153TIP3    H142950   3.600   1.489  15.360  1.2257 -0.6126  0.0151
 7153TIP3    H242951   3.658   1.442  15.229  0.4532  0.2705 -0.6546
 7154TIP3   OH242952   0.925   4.335  10.562 -0.3365  0.1940  0.5057
 7154TIP3    H142953   1.001   4.361  10.510 -0.9073  0.7531 -0.0820
 7154TIP3    H242954   0.948   4.250  10.599  0.3452  0.0933 -0.1321
 7155TIP3   OH242955   4.171   0.590  14.120 -0.9913 -0.7129  0.4743
 7155TIP3    H142956   4.170   0.539  14.201 -1.3123  0.4292  1.2080
 7155TIP3    H242957   4.080   0.620  14.110 -0.6328  0.4312  0.5381
 7156TIP3   OH242958   3.339   3.600   0.199  0.1243 -0.1971  0.3169
 7156TIP3    H142959   3.316   3.644   0.117 -0.3241 -0.3859  0.3401
 7156TIP3    H242960   3.433   3.583   0.191  0.3446  0.9181  0.3839
 7157TIP3   OH242961   2.878   3.381  15.494 -0.0393 -0.2538 -0.3862
 7157TIP3    H142962   2.910   3.293  15.514 -1.1664 -0.4457  0.7119
 7157TIP3    H242963   2.843   3.413  15.577 -1.2680  0.5274 -1.1722
 7158TIP3   OH242964   4.701   2.004   0.569  0.6578  0.1582  0.1401
 7158TIP3    H142965   4.715   2.022   0.476  1.5416  1.8073  0.5643
 7158TIP3    H242966   4.606   1.998   0.578  0.5063  1.1239 -0.6725
 7159TIP3   OH242967   2.094   5.698  11.049 -0.2580 -0.4708  0.3057
 7159TIP3    H142968   2.140   5.651  10.980  0.7029  1.3848 -0.3875
 7159TIP3    H242969   2.012   5.727  11.007  0.9135  1.8151 -0.5863
 7160TIP3   OH242970   0.243   5.522  16.334  0.3685 -0.1504  0.3777
 7160TIP3    H142971   0.189   5.582  16.386 -0.3637 -0.7791  0.3599
 7160TIP3    H242972   0.332   5.555  16.345 -0.0223  0.9783  0.3038
 7161TIP3   OH242973   3.980   2.679  14.662  0.0342 -0.4685 -0.2610
 7161TIP3    H142974   4.003   2.724  14.581 -0.3541 -0.5039 -0.3938
 7161TIP3    H242975   4.060   2.634  14.688  0.9899  1.7180  0.8287
 7162TIP3   OH242976   4.348   5.101   0.388 -0.3042  0.5085 -0.1919
 7162TIP3    H142977   4.371   5.103   0.481 -0.2779 -1.6857 -0.0929
 7162TIP3    H242978   4.429   5.125   0.343  0.2651 -0.3261  0.3375
 7163TIP3   OH242979   4.083   3.833   4.085 -0.6824  0.0659  0.1015
 7163TIP3    H142980   4.060   3.920   4.117 -0.0900  0.2870 -0.0550
 7163TIP3    H242981   4.155   3.805   4.142  0.7259  0.6682 -1.2893
 7164TIP3   OH242982   1.061   3.186   5.002 -0.1590  0.2696  0.2246
 7164TIP3    H142983   1.051   3.129   5.078  2.3319  1.0757  1.2705
 7164TIP3    H242984   1.154   3.181   4.980 -0.3230  2.1014 -1.1288
 7165TIP3   OH242985   3.671   3.063   0.803 -0.2554  0.3261  0.7338
 7165TIP3    H142986   3.756   3.099   0.828  0.6179 -0.3461 -1.1037
 7165TIP3    H242987   3.607   3.114   0.855  1.2515  0.4395  2.6032
 7166TIP3   OH242988   6.021   4.488   5.636  0.1940 -0.0403  0.2146
 7166TIP3    H142989   6.003   4.478   5.543  0.9338  1.8571 -0.1732
 7166TIP3    H242990   5.935   4.494   5.677 -0.1505  1.4779 -0.6644
 7167TIP3   OH242991   3.310   6.154   5.494  0.4583 -0.2079  0.2321
 7167TIP3    H142992   3.280   6.076   5.448  0.3311 -0.6536  1.0631
 7167TIP3    H242993   3.236   6.214   5.489  1.0613  0.4645 -1.6969
 7168TIP3   OH242994   1.163   3.099  11.730 -0.3460  0.1257 -0.0076
 7168TIP3    H142995   1.086   3.156  11.738 -1.1565 -0.5909 -2.0305
 7168TIP3    H242996   1.206   3.128  11.649  0.1311 -1.0682 -0.1972
 7169TIP3   OH242997   1.807   3.600   2.260  0.3374 -0.1328 -0.0680
 7169TIP3    H142998   1.838   3.587   2.350 -1.7213 -0.6926  0.6247
 7169TIP3    H242999   1.817   3.514   2.219 -1.4304 -0.7073  0.5866
 7170TIP3   OH243000   2.532   3.016  12.933  0.3916 -0.0927  0.0968
 7170TIP3    H143001   2.568   2.927  12.934 -0.2950 -0.3934 -0.6763
 7170TIP3    H243002   2.472   3.018  13.007 -2.0825 -1.3924 -1.6890
 7171TIP3   OH243003   1.675   1.371  15.430 -0.0997 -0.0197 -0.2697
 7171TIP3    H143004   1.691   1.452  15.381  0.9362  0.7125  1.2363
 7171TIP3    H243005   1.737   1.308  15.393 -0.6371 -0.0502 -1.1710
 7172TIP3   OH243006   2.587   5.217   0.915  0.2115 -0.1075  0.4013
 7172TIP3    H143007   2.551   5.280   0.978  2.7978  0.1461  1.7478
 7172TIP3    H243008   2.539   5.136   0.933 -1.4881  0.8198  0.2748
 7173TIP3   OH243009   4.178   6.584   5.167 -0.6853 -0.2200  0.2930
 7173TIP3    H143010   4.251   6.525   5.186 -0.3323  0.2278  0.3373
 7173TIP3    H243011   4.100   6.535   5.195 -0.3795 -0.5732  0.5369
 7174TIP3   OH243012   6.234   4.926   4.489  0.1927  0.2851 -0.1881
 7174TIP3    H143013   6.153   4.928   4.439  0.4214 -0.7376 -0.6244
 7174TIP3    H243014   6.287   4.859   4.446  0.3911 -0.6315  1.4035
 7175TIP3   OH243015   3.292   2.858   0.125  0.0327  0.1356  0.6473
 7175TIP3    H143016   3.381   2.843   0.157  0.1329 -1.5640 -0.2774
 7175TIP3    H243017   3.242   2.783   0.158 -0.6570  0.1888 -0.2272
 7176TIP3   OH243018   5.825   1.666  10.711 -0.6918 -0.1450  0.0178
 7176TIP3    H143019   5.777   1.743  10.681 -0.3849 -0.7163 -2.1542
 7176TIP3    H243020   5.906   1.667  10.660  0.9957 -0.0120  2.5084
 7177TIP3   OH243021   1.346   5.623   0.543  0.0981  0.7485 -0.0052
 7177TIP3    H143022   1.310   5.535   0.554 -0.9365  1.2290  0.5572
 7177TIP3    H243023   1.319   5.649   0.455  0.9886  0.2633 -0.4445
 7178TIP3   OH243024   3.134   2.137  13.009  0.2942  0.3671  0.0012
 7178TIP3    H143025   3.156   2.044  13.002 -1.1732 -0.1028  1.0906
 7178TIP3    H243026   3.052   2.146  12.961  0.0405  0.9416  0.5198
 7179TIP3   OH243027   5.259   5.714  14.845 -0.0084  0.2285 -0.3255
 7179TIP3    H143028   5.338   5.744  14.801 -0.1872  0.1739 -0.6872
 7179TIP3    H243029   5.216   5.657  14.781  0.5125 -1.1026  0.4655
 7180TIP3   OH243030   2.753   2.600  12.673 -0.2933 -0.2131 -0.3246
 7180TIP3    H143031   2.796   2.685  12.687  1.4229 -1.2182  0.9071
 7180TIP3    H243032   2.670   2.622  12.631 -0.1601  2.1158  0.4683
 7181TIP3   OH243033   4.648   5.474  16.828 -0.0917  0.0169  0.2486
 7181TIP3    H143034   4.689   5.470  16.915 -0.4336 -0.7632  0.3827
 7181TIP3    H243035   4.712   5.521  16.774 -0.5458  1.9196  1.2803
 7182TIP3   OH243036   2.875   4.386  10.567 -0.2605 -0.1621  0.0047
 7182TIP3    H143037   2.956   4.400  10.616  0.4925 -1.2293 -0.8992
 7182TIP3    H243038   2.892   4.423  10.481 -0.0654 -1.9463 -0.7655
 7183TIP3   OH243039   5.648   5.414   4.208  0.1808 -0.0295  0.0367
 7183TIP3    H143040   5.562   5.378   4.188  0.4596 -0.5883 -0.1882
 7183TIP3    H243041   5.695   5.413   4.125  0.2753  0.6481  0.0727
 7184TIP3   OH243042   5.099   4.626   3.504 -0.4327  0.5032  0.1224
 7184TIP3    H143043   5.116   4.573   3.582 -0.3880  0.8507  0.3562
 7184TIP3    H243044   5.185   4.661   3.480 -0.4494  0.4146 -0.0698
 7185TIP3   OH243045   3.227   2.219   4.437 -0.4363 -0.8720  0.4298
 7185TIP3    H143046   3.217   2.137   4.390  0.1264 -0.1501 -1.0199
 7185TIP3    H243047   3.138   2.249   4.454 -0.6585 -1.0425 -0.3932
 7186TIP3   OH243048   5.361   2.294  13.565 -0.4546  0.0773 -0.2131
 7186TIP3    H143049   5.306   2.216  13.563  0.0051 -0.2385 -0.7515
 7186TIP3    H243050   5.337   2.342  13.485  1.4275 -1.0358 -1.5097
 7187TIP3   OH243051   3.540   2.153  15.898 -0.2960  0.5841  0.0808
 7187TIP3    H143052   3.456   2.187  15.867  0.7497  2.3861 -0.9531
 7187TIP3    H243053   3.534   2.058  15.884 -1.9398  0.7497 -0.4992
 7188TIP3   OH243054   1.223   4.448  15.972 -0.1588  0.4315 -0.8408
 7188TIP3    H143055   1.267   4.478  15.893 -0.3387  1.9478 -0.4059
 7188TIP3    H243056   1.131   4.471  15.959 -0.0027  1.8093  0.2706
 7189TIP3   OH243057   3.631   3.656   0.608 -0.8076 -0.0662  0.2118
 7189TIP3    H143058   3.583   3.579   0.579  0.5494 -0.0606 -2.3221
 7189TIP3    H243059   3.563   3.718   0.634 -2.0142 -1.2377 -0.0625
 7190TIP3   OH243060   4.262   0.957  16.168 -0.0205  0.1175  0.1407
 7190TIP3    H143061   4.266   0.897  16.243  1.4121  1.2337  1.0128
 7190TIP3    H243062   4.177   0.940  16.129  0.0632 -2.0151  0.7355
 7191TIP3   OH243063   0.852   2.786   4.703 -0.4492  0.0937  0.2973
 7191TIP3    H143064   0.853   2.878   4.730  0.8213 -0.0701  0.8984
 7191TIP3    H243065   0.853   2.789   4.607  0.8295  0.7328  0.3061
 7192TIP3   OH243066   4.649   4.609   6.052 -0.1336 -0.2576  0.1973
 7192TIP3    H143067   4.605   4.590   5.970  1.6668 -0.6390 -0.7439
 7192TIP3    H243068   4.583   4.653   6.106 -1.3927 -0.1228 -1.3886
 7193TIP3   OH243069   3.861   4.515   2.908  0.1243 -0.6649  0.2569
 7193TIP3    H143070   3.857   4.595   2.961  1.3297  0.9405 -1.9147
 7193TIP3    H243071   3.934   4.465   2.946 -0.8223 -0.9452  1.8140
 7194TIP3   OH243072   2.672   6.128  10.441 -0.1147  0.5263  0.5757
 7194TIP3    H143073   2.683   6.034  10.458 -2.3458 -0.1102 -1.0103
 7194TIP3    H243074   2.759   6.157  10.413  0.5575 -1.1622  0.7505
 7195TIP3   OH243075   0.163   1.421   4.757 -0.2834  0.0874  0.0316
 7195TIP3    H143076   0.236   1.365   4.733 -0.2042 -0.2413  0.9961
 7195TIP3    H243077   0.109   1.367   4.815 -0.7611  0.6618  0.1403
 7196TIP3   OH243078   3.264   2.478   2.225 -0.1239  0.0184  0.1046
 7196TIP3    H143079   3.241   2.483   2.132  2.2170  0.7182 -0.5106
 7196TIP3    H243080   3.242   2.564   2.260  0.0428  0.1330 -0.0722
 7197TIP3   OH243081   2.811   0.133   5.383  0.0335 -0.8165  0.6339
 7197TIP3    H143082   2.838   0.051   5.425 -0.0192 -0.3489  1.6086
 7197TIP3    H243083   2.716   0.127   5.377  0.1196 -1.3291 -0.3882
 7198TIP3   OH243084   3.067   4.735  12.989  0.3660 -0.2890 -0.0418
 7198TIP3    H143085   3.028   4.681  13.058 -1.7993  0.3800 -0.6386
 7198TIP3    H243086   3.030   4.822  13.004  1.7709  0.4415 -0.6229
 7199TIP3   OH243087   0.759   0.441  14.696 -0.1529  0.4027 -0.2169
 7199TIP3    H143088   0.836   0.403  14.652  0.2965  1.4081 -0.3225
 7199TIP3    H243089   0.776   0.425  14.789  0.6401  1.4124 -0.1726
 7200TIP3   OH243090   4.769   6.529   3.328 -0.1844 -0.3443 -0.2845
 7200TIP3    H143091   4.797   6.543   3.418  1.1875  1.6662 -0.9578
 7200TIP3    H243092   4.850   6.528   3.277 -0.9922 -0.2280 -1.6294
 7201TIP3   OH243093   5.827   1.997   5.332 -0.1168 -0.5002 -0.1036
 7201TIP3    H143094   5.894   2.065   5.333  0.5888 -1.0561 -2.9156
 7201TIP3    H243095   5.768   2.021   5.404  1.0125  2.1167  0.0637
 7202TIP3   OH243096   2.270   5.337   3.838 -0.5296 -0.1874  0.3431
 7202TIP3    H143097   2.264   5.431   3.856  0.5360 -0.0848  0.1882
 7202TIP3    H243098   2.267   5.331   3.742 -0.3673 -0.2972  0.3458
 7203TIP3   OH243099   0.423   2.412   1.822  0.4302  0.1668  0.0243
 7203TIP3    H143100   0.434   2.498   1.862  0.4499  0.1526  0.0494
 7203TIP3    H243101   0.469   2.418   1.738  2.5326 -0.5634  1.0442
 7204TIP3   OH243102   0.854   6.201   1.964  0.3455 -0.1037 -0.6015
 7204TIP3    H143103   0.879   6.110   1.949 -1.6309 -0.8004 -0.0038
 7204TIP3    H243104   0.937   6.246   1.981  1.2795 -2.0278  0.3297
 7205TIP3   OH243105   4.907   2.469   1.299  1.1116 -0.0624 -0.3328
 7205TIP3    H143106   4.949   2.550   1.273  1.5815 -0.4411 -0.7660
 7205TIP3    H243107   4.844   2.495   1.367 -1.6469  1.2662 -3.1629
 7206TIP3   OH243108   3.673   4.996  17.272 -0.8012  0.6470  0.2571
 7206TIP3    H143109   3.755   4.987  17.225 -0.6179 -0.2898  0.7189
 7206TIP3    H243110   3.617   4.927  17.237 -0.9851  0.5379  0.7517
 7207TIP3   OH243111   5.455   3.380   2.240  0.0053  0.6065  0.1785
 7207TIP3    H143112   5.509   3.450   2.203 -0.9002  1.2705  0.0723
 7207TIP3    H243113   5.365   3.410   2.226 -0.4235 -0.9360 -0.5581
 7208TIP3   OH243114   2.076   0.763  10.683  0.3489  0.2553  0.1249
 7208TIP3    H143115   1.980   0.764  10.683  0.3527  0.8932 -0.2743
 7208TIP3    H243116   2.099   0.700  10.751 -0.3551 -1.1090 -0.8543
 7209TIP3   OH243117   4.851   0.250  12.674  0.1596  0.7061  0.1926
 7209TIP3    H143118   4.914   0.315  12.643  0.9178 -0.0300  0.1501
 7209TIP3    H243119   4.904   0.173  12.695 -0.9297 -0.7515 -2.0097
 7210TIP3   OH243120   6.470   6.359   0.120 -0.1277  0.0572 -0.3126
 7210TIP3    H143121   6.534   6.425   0.147  0.4893 -1.3233  1.8385
 7210TIP3    H243122   6.399   6.410   0.080  0.8692  1.9158  0.1690
 7211TIP3   OH243123   1.661   4.788  13.924  0.3287  0.9004  0.2025
 7211TIP3    H143124   1.601   4.780  13.851 -0.3092 -0.6229  0.8491
 7211TIP3    H243125   1.727   4.721  13.909  0.5772  1.0258  0.6808
 7212TIP3   OH243126   4.531   4.691  11.680  0.0952 -0.2035  0.2252
 7212TIP3    H143127   4.477   4.767  11.705 -0.8096 -0.7956  0.1312
 7212TIP3    H243128   4.505   4.622  11.741  1.3037 -0.2942  0.6592
 7213TIP3   OH243129   3.475   6.807   0.230  0.1855 -1.2129 -0.0397
 7213TIP3    H143130   3.387   6.804   0.267 -0.3933 -0.0366 -1.2575
 7213TIP3    H243131   3.528   6.851   0.296 -0.3886 -0.9304  0.2342
 7214TIP3   OH243132   3.564   5.967  14.018  0.2167  0.2264 -0.4517
 7214TIP3    H143133   3.495   5.959  14.084  0.6431  0.0219 -0.0258
 7214TIP3    H243134   3.628   5.899  14.041  1.2965  1.3733  0.0776
 7215TIP3   OH243135   0.730   5.569   4.734 -0.5223 -0.1076  0.5736
 7215TIP3    H143136   0.691   5.652   4.707 -1.4114 -0.8643 -0.5740
 7215TIP3    H243137   0.811   5.594   4.777 -0.8510  1.3664  0.4062
 7216TIP3   OH243138   0.116   4.334   1.445  0.3043  0.1389  0.3301
 7216TIP3    H143139   0.084   4.245   1.429 -1.0914  0.3536  1.7370
 7216TIP3    H243140   0.202   4.322   1.485  0.3165 -0.5460  0.1175
 7217TIP3   OH243141   1.300   4.356  15.152 -0.4089 -0.2183  0.2736
 7217TIP3    H143142   1.331   4.307  15.076 -1.2490 -0.1725 -0.1134
 7217TIP3    H243143   1.256   4.291  15.207 -0.9131 -0.0342  0.0967
 7218TIP3   OH243144   2.364   3.970   2.231  0.1383  0.6703  0.4780
 7218TIP3    H143145   2.440   3.954   2.288  0.2015  2.0558  0.8154
 7218TIP3    H243146   2.296   3.999   2.291 -0.8561 -1.0365  0.2440
 7219TIP3   OH243147   5.110   6.549   3.663  0.0376  0.2269 -0.0782
 7219TIP3    H143148   5.098   6.567   3.757 -0.4750  0.1248 -0.1178
 7219TIP3    H243149   5.201   6.522   3.655  0.3346  1.0849  0.2558
 7220TIP3   OH243150   2.542   1.911   1.258 -0.2309  0.1878  0.1682
 7220TIP3    H143151   2.585   1.827   1.244 -0.8216 -0.0460 -0.2738
 7220TIP3    H243152   2.462   1.907   1.205  0.5148  1.6519 -1.1297
 7221TIP3   OH243153   0.873   5.574   3.492 -0.2582 -0.1723  0.4017
 7221TIP3    H143154   0.951   5.628   3.492 -0.5695  0.3109 -0.9167
 7221TIP3    H243155   0.899   5.493   3.537  1.1623 -0.2554 -0.5312
 7222TIP3   OH243156   3.293   0.862   1.594 -0.1484 -0.0393  0.0520
 7222TIP3    H143157   3.331   0.944   1.627 -0.4010 -0.4254  1.3572
 7222TIP3    H243158   3.289   0.874   1.499  0.1567  1.3150  0.1880
 7223TIP3   OH243159   1.108   3.118   6.382  0.0509 -0.3530  0.3014
 7223TIP3    H143160   1.179   3.173   6.348 -0.4173  1.1756  1.6658
 7223TIP3    H243161   1.151   3.038   6.410  1.0807  0.1383  0.1693
 7224TIP3   OH243162   5.612   5.392  15.975 -0.0589  0.1128 -0.1709
 7224TIP3    H143163   5.536   5.333  15.974  0.0210 -0.0612  1.5726
 7224TIP3    H243164   5.687   5.335  15.986  0.3804  0.2735 -2.0570
 7225TIP3   OH243165   6.072   0.672  11.388 -0.3766  0.0602  0.5650
 7225TIP3    H143166   6.050   0.765  11.394  0.2855  0.2467  0.1687
 7225TIP3    H243167   6.063   0.651  11.295  2.1017  0.4148  0.1742
 7226TIP3   OH243168   3.394   5.554   5.254 -0.3466 -0.0164  0.0655
 7226TIP3    H143169   3.337   5.506   5.315  0.0359  1.2493  1.4798
 7226TIP3    H243170   3.400   5.642   5.291 -0.7546  1.0758 -2.2897
 7227TIP3   OH243171   0.103   6.649   4.440 -0.0581 -0.2486 -0.3715
 7227TIP3    H143172   0.081   6.737   4.409 -1.3452 -0.5635 -0.4089
 7227TIP3    H243173   0.094   6.594   4.362 -0.2233 -0.5559 -0.1370
 7228TIP3   OH243174   4.025   2.575  12.983  0.6310  0.2044 -0.3875
 7228TIP3    H143175   3.961   2.514  13.019  0.2095 -0.3958 -2.0614
 7228TIP3    H243176   3.975   2.628  12.920  1.0353  2.1401  0.8170
 7229TIP3   OH243177   3.886   3.011   0.172  0.1225  0.1082  0.2005
 7229TIP3    H143178   3.844   3.064   0.239 -1.2205  2.1605 -2.0828
 7229TIP3    H243179   3.978   3.037   0.173  0.2711 -0.4257  1.6782
 7230TIP3   OH243180   2.810   4.423  13.948  0.1672  0.5211  0.3449
 7230TIP3    H143181   2.753   4.433  13.872 -0.0877  0.9012  0.5851
 7230TIP3    H243182   2.752   4.391  14.018  0.4677 -0.1747  0.2882
 7231TIP3   OH243183   4.152   4.398  16.676  0.4199  0.6430  0.0881
 7231TIP3    H143184   4.203   4.321  16.650  2.0851  0.1998  3.9439
 7231TIP3    H243185   4.195   4.471  16.631  0.7897 -0.3199 -1.1882
 7232TIP3   OH243186   3.281   5.546   0.287  0.4969  0.0575  0.1391
 7232TIP3    H143187   3.212   5.599   0.248 -0.7615 -1.0140  0.8104
 7232TIP3    H243188   3.270   5.460   0.245  2.6795  0.3583 -1.1630
 7233TIP3   OH243189   3.669   5.216  16.473 -0.5501 -0.0289 -0.0620
 7233TIP3    H143190   3.593   5.173  16.433 -1.1924  1.2342 -0.2322
 7233TIP3    H243191   3.649   5.218  16.567  0.2179 -1.5068  0.1749
 7234TIP3   OH243192   1.138   3.066  15.478 -0.4700  0.9022 -0.1402
 7234TIP3    H143193   1.202   3.031  15.539 -0.8125  0.6050  0.0541
 7234TIP3    H243194   1.053   3.036  15.512 -0.6329  0.2411 -1.0652
 7235TIP3   OH243195   5.742   5.042  13.708  0.0293  0.3391 -0.2462
 7235TIP3    H143196   5.675   4.994  13.658  0.5111 -1.0029  0.3373
 7235TIP3    H243197   5.742   5.130  13.670  0.4001 -0.6200 -2.6378
 7236TIP3   OH243198   1.495   4.968   1.084 -0.3566 -0.1031  0.1935
 7236TIP3    H143199   1.509   4.874   1.075  1.0226  0.2287 -1.6513
 7236TIP3    H243200   1.452   4.994   1.002  0.3985  1.0368  0.1277
 7237TIP3   OH243201   2.288   3.240  16.244 -0.2490  0.4724 -0.5492
 7237TIP3    H143202   2.236   3.161  16.257 -1.7905  1.2604 -1.6511
 7237TIP3    H243203   2.371   3.208  16.207 -0.8408 -0.6267 -0.9863
 7238TIP3   OH243204   3.635   1.960   2.025  0.0950 -0.0914  0.8295
 7238TIP3    H143205   3.572   1.888   2.036  0.1464 -0.0038  1.8103
 7238TIP3    H243206   3.582   2.035   1.999  0.0102 -0.4222  0.0288
 7239TIP3   OH243207   0.517   5.315  12.772  0.1186  0.3117  0.1398
 7239TIP3    H143208   0.480   5.335  12.858 -1.8678  1.0959 -0.8538
 7239TIP3    H243209   0.505   5.220  12.763 -2.8297  0.6698 -0.6063
 7240TIP3   OH243210   1.657   0.180  13.560 -0.3389  0.2678  0.3912
 7240TIP3    H143211   1.737   0.129  13.574 -1.1079 -0.9702  0.3933
 7240TIP3    H243212   1.685   0.252  13.502  0.0913 -2.2196 -2.7907
 7241TIP3   OH243213   1.921   4.435   0.446 -0.5663  0.2728 -0.4581
 7241TIP3    H143214   1.910   4.342   0.425  0.2522  0.2686 -0.9241
 7241TIP3    H243215   1.988   4.466   0.384  0.3102  0.7971  0.7036
 7242TIP3   OH243216   4.108   4.298  11.933 -0.4575 -0.3382  0.3774
 7242TIP3    H143217   4.111   4.331  11.843 -0.5143 -0.9877  0.1293
 7242TIP3    H243218   4.131   4.373  11.987 -1.8998  0.4675 -0.0768
 7243TIP3   OH243219   5.119   5.828  12.365 -0.0557 -0.2471 -0.3176
 7243TIP3    H143220   5.159   5.773  12.297  3.0592 -0.3698  1.4482
 7243TIP3    H243221   5.136   5.781  12.447 -0.0475  1.8542  0.9439
 7244TIP3   OH243222   1.857   4.579  16.307 -0.4857 -0.4120 -0.8425
 7244TIP3    H143223   1.790   4.552  16.245 -0.5361 -0.0155 -0.9653
 7244TIP3    H243224   1.923   4.625  16.254 -0.7512  0.3288 -0.5490
 7245TIP3   OH243225   4.960   4.516  15.964  0.0535 -0.1826  0.4752
 7245TIP3    H143226   4.892   4.517  16.030  1.1613 -0.6445  1.6633
 7245TIP3    H243227   4.958   4.427  15.928 -0.6826  0.1260 -0.2959
 7246TIP3   OH243228   2.981   2.531   4.846 -0.5612  0.0961  0.4962
 7246TIP3    H143229   3.019   2.602   4.897  3.8721 -1.6110 -0.0232
 7246TIP3    H243230   2.953   2.467   4.912  0.6455 -0.0206  0.9217
 7247TIP3   OH243231   5.617   6.734   3.777 -0.0999  0.4068 -0.1553
 7247TIP3    H143232   5.698   6.691   3.804  1.3072  3.6188  1.4413
 7247TIP3    H243233   5.549   6.696   3.834  0.4382 -1.5596 -0.7590
 7248TIP3   OH243234   0.621   1.262   3.631 -0.1840 -0.1421  0.0709
 7248TIP3    H143235   0.704   1.217   3.650  0.5548  0.9176 -0.6032
 7248TIP3    H243236   0.637   1.309   3.550 -0.4742  2.4506  1.4311
 7249TIP3   OH243237   5.762   4.920  13.102  0.1357  0.0536 -0.1403
 7249TIP3    H143238   5.852   4.896  13.122  0.2748  0.1372 -0.6408
 7249TIP3    H243239   5.710   4.844  13.129  0.1641  0.6114  1.6268
 7250TIP3   OH243240   3.475   6.182  11.942  0.0099 -0.1956 -0.0833
 7250TIP3    H143241   3.507   6.163  11.854  0.0248 -0.0990 -0.0987
 7250TIP3    H243242   3.516   6.265  11.965 -0.3395 -0.0015 -0.1569
 7251TIP3   OH243243   5.306   5.883  12.862  0.4685 -0.0745 -0.2086
 7251TIP3    H143244   5.399   5.873  12.841  0.5366  0.1671 -0.0210
 7251TIP3    H243245   5.285   5.804  12.911  0.6542  0.0215  0.0281
 7252TIP3   OH243246   3.756   0.995  15.054 -0.4781  0.3588  0.4604
 7252TIP3    H143247   3.713   1.003  15.139  0.8414  0.3996  1.1578
 7252TIP3    H243248   3.742   0.904  15.027 -2.4856  0.8162 -0.1930
 7253TIP3   OH243249   6.163   6.188  15.236 -0.0360  0.0289  0.4966
 7253TIP3    H143250   6.155   6.259  15.173 -1.3539 -1.4467 -1.0832
 7253TIP3    H243251   6.224   6.127  15.195  0.7939  0.0374  1.6675
 7254TIP3   OH243252   2.691   3.290   0.811 -0.2712 -0.1845  0.5137
 7254TIP3    H143253   2.726   3.234   0.741  1.2051 -0.0512  1.1031
 7254TIP3    H243254   2.752   3.364   0.815 -0.7281  0.1564  1.4789
 7255TIP3   OH243255   2.689   5.722   4.017  0.3212  0.2712  0.0707
 7255TIP3    H143256   2.698   5.795   3.956  0.8864  1.0121  1.0090
 7255TIP3    H243257   2.714   5.759   4.102 -3.0595  0.0058  1.3033
 7256TIP3   OH243258   4.631   6.716  11.653  0.4394  0.0164 -0.0142
 7256TIP3    H143259   4.669   6.779  11.713 -0.4309 -1.1283  1.8227
 7256TIP3    H243260   4.546   6.753  11.629  1.1137  0.8455 -1.2177
 7257TIP3   OH243261   6.426   1.397   0.174 -0.0255 -0.0000 -0.0460
 7257TIP3    H143262   6.494   1.419   0.237 -0.1106 -1.3277  0.5622
 7257TIP3    H243263   6.365   1.341   0.223 -0.0997 -1.0672 -1.2745
 7258TIP3   OH243264   3.695   2.122   1.352 -0.2743 -0.0772 -0.4007
 7258TIP3    H143265   3.620   2.064   1.361 -1.2670  0.8378 -2.2672
 7258TIP3    H243266   3.694   2.175   1.431 -1.1734 -0.5501 -0.0848
 7259TIP3   OH243267   3.052   0.698  11.177 -0.4173 -0.1958  0.1997
 7259TIP3    H143268   3.092   0.639  11.113 -1.1114 -0.0693 -0.3700
 7259TIP3    H243269   2.959   0.697  11.155 -0.5903  0.2591  0.8836
 7260TIP3   OH243270   4.435   1.528  11.921 -0.2873  0.6491 -0.5101
 7260TIP3    H143271   4.400   1.617  11.926 -0.5388  0.5647 -0.7606
 7260TIP3    H243272   4.456   1.506  12.012 -1.0844  0.6235 -0.3243
 7261TIP3   OH243273   2.178   3.507   6.380  0.6381  0.1942  0.5793
 7261TIP3    H143274   2.114   3.454   6.333  0.4911 -0.8327  1.8678
 7261TIP3    H243275   2.225   3.555   6.312 -0.0855 -0.6447 -0.5387
 7262TIP3   OH243276   4.116   3.339   2.103 -0.3861  0.0682  0.4617
 7262TIP3    H143277   4.146   3.265   2.051 -0.5198  0.0386  0.4249
 7262TIP3    H243278   4.123   3.310   2.194 -1.4897 -0.4050  0.4149
 7263TIP3   OH243279   1.886   2.532  14.585  0.6210 -0.8750  0.6512
 7263TIP3    H143280   1.833   2.453  14.592 -1.0486  0.1484  0.1207
 7263TIP3    H243281   1.836   2.590  14.527  1.6262  0.7042  1.2921
 7264TIP3   OH243282   1.641   2.025   3.686  0.0648 -0.3292  0.1495
 7264TIP3    H143283   1.604   2.113   3.680 -0.6202 -0.5542  0.8887
 7264TIP3    H243284   1.692   2.014   3.606  0.5541  0.9223  0.2737
 7265TIP3   OH243285   4.837   1.937   4.930  0.0115 -0.0056  0.5923
 7265TIP3    H143286   4.896   1.991   4.877  0.3494 -0.3865  0.5779
 7265TIP3    H243287   4.772   1.904   4.867  0.7920 -0.9907  0.2849
 7266TIP3   OH243288   0.273   5.771   5.731  0.1672  0.2389 -0.1328
 7266TIP3    H143289   0.247   5.709   5.663  0.0771  0.6804 -0.5096
 7266TIP3    H243290   0.279   5.719   5.811 -2.7939  0.2874  0.1980
 7267TIP3   OH243291   2.995   2.118   5.037 -0.0832  0.3644  0.1954
 7267TIP3    H143292   2.978   2.130   4.943 -1.3129 -0.2642  0.3078
 7267TIP3    H243293   3.022   2.026   5.044 -1.2608  0.0273  0.5877
 7268TIP3   OH243294   2.527   2.930  14.559  0.1466  0.4609 -0.4655
 7268TIP3    H143295   2.548   2.873  14.485  2.9573  0.3528  0.3202
 7268TIP3    H243296   2.554   3.017  14.530  1.1498  0.4368  0.3611
 7269TIP3   OH243297   2.718   5.398  15.796  0.2597 -0.0611  0.5736
 7269TIP3    H143298   2.661   5.322  15.787 -0.9922  0.7352  1.5857
 7269TIP3    H243299   2.795   5.376  15.742 -1.6983 -0.4280 -2.3008
 7270TIP3   OH243300   3.292   1.121  16.531 -0.1260 -0.1256 -0.3426
 7270TIP3    H143301   3.314   1.031  16.553  1.1922  0.7896  2.6025
 7270TIP3    H243302   3.372   1.157  16.493 -0.5103 -0.0507 -1.1062
 7271TIP3   OH243303   2.797   0.722   4.100  0.3599 -0.0351  0.2212
 7271TIP3    H143304   2.706   0.744   4.084  0.9059  0.6644 -2.3119
 7271TIP3    H243305   2.797   0.629   4.120 -0.9601  0.1121  1.0028
 7272TIP3   OH243306   6.346   4.562  13.900 -0.6229 -0.1625 -0.1306
 7272TIP3    H143307   6.281   4.590  13.964  0.6237 -0.0951  1.1659
 7272TIP3    H243308   6.426   4.547  13.951  0.6161  0.5016 -1.7599
 7273TIP3   OH243309   2.083   6.546  16.509  0.0870  0.3512 -0.2297
 7273TIP3    H143310   2.146   6.482  16.541 -0.7920 -0.4587 -0.0863
 7273TIP3    H243311   2.055   6.594  16.588  0.7766  0.9459 -0.3432
 7274TIP3   OH243312   2.081   4.831   2.558 -0.0915  0.1136  0.2638
 7274TIP3    H143313   2.085   4.927   2.559 -0.6847  0.2380 -2.3347
 7274TIP3    H243314   2.166   4.804   2.524  1.2583 -0.5491  3.7321
 7275TIP3   OH243315   5.460   3.834  16.322 -0.1422 -0.5242  0.3146
 7275TIP3    H143316   5.539   3.827  16.375  0.7060  1.4433 -0.5846
 7275TIP3    H243317   5.398   3.881  16.377  0.2831  0.3457  0.0695
 7276TIP3   OH243318   1.678   2.192  15.169 -0.5036  0.1065 -0.1121
 7276TIP3    H143319   1.772   2.191  15.187 -0.2855 -1.8710 -1.1837
 7276TIP3    H243320   1.654   2.285  15.175  0.9136  0.4141  2.9986
 7277TIP3   OH243321   6.230   3.770  15.251  0.0524 -0.5547 -0.0024
 7277TIP3    H143322   6.178   3.840  15.291 -0.9793 -0.6879 -1.0742
 7277TIP3    H243323   6.315   3.810  15.233 -0.3782  0.2886 -0.1852
 7278TIP3   OH243324   6.087   6.046   6.190 -0.1453  0.9361 -0.1290
 7278TIP3    H143325   6.125   6.050   6.278 -0.3115  0.7454 -0.0475
 7278TIP3    H243326   6.086   5.953   6.168 -0.1978  0.9743 -0.2919
 7279TIP3   OH243327   4.814   3.713  14.353  0.2074 -0.4047  0.4929
 7279TIP3    H143328   4.829   3.791  14.301  1.3649  0.2614  1.7751
 7279TIP3    H243329   4.722   3.691  14.337 -0.0402  1.0070 -0.1582
 7280TIP3   OH243330   4.558   4.707   4.907 -0.7866  0.4431  0.3838
 7280TIP3    H143331   4.529   4.777   4.849  0.3284  1.2749  0.8101
 7280TIP3    H243332   4.504   4.717   4.986 -1.2447  0.2627  0.0931
 7281TIP3   OH243333   5.359   3.639   4.006 -0.1593  0.7036  0.0824
 7281TIP3    H143334   5.426   3.647   4.074 -0.8848 -0.6228  1.0174
 7281TIP3    H243335   5.284   3.599   4.051 -1.1561  1.0530 -1.1990
 7282TIP3   OH243336   1.897   1.871  12.125 -0.3094  0.3176 -0.4720
 7282TIP3    H143337   1.919   1.962  12.147 -0.0097  0.3668 -0.9553
 7282TIP3    H243338   1.849   1.839  12.201  1.1735  0.3013  0.5098
 7283TIP3   OH243339   0.904   6.015   3.526  0.5783 -0.6782  0.2592
 7283TIP3    H143340   0.922   6.093   3.473  1.4713 -0.7783  0.4099
 7283TIP3    H243341   0.959   5.947   3.488 -0.6999 -1.4418 -0.3085
 7284TIP3   OH243342   0.013   6.334   6.465  0.4602  0.3712  0.6425
 7284TIP3    H143343  -0.041   6.374   6.534 -1.5185 -0.5889 -0.2651
 7284TIP3    H243344  -0.032   6.252   6.444  1.3322  0.3471 -1.3746
 7285TIP3   OH243345   3.749   6.757  17.229 -0.0575 -0.2312  0.0791
 7285TIP3    H143346   3.810   6.788  17.296 -0.8023  3.4248 -0.6903
 7285TIP3    H243347   3.799   6.694  17.178  2.6255  1.5004  0.3710
 7286TIP3   OH243348   6.283   1.954   4.640  0.0404  0.6537 -0.6168
 7286TIP3    H143349   6.321   1.874   4.676 -3.6400 -0.6040  1.0548
 7286TIP3    H243350   6.309   1.954   4.548  1.8568 -1.3129 -0.1817
 7287TIP3   OH243351   3.697   3.297   3.503 -0.0165 -0.7461 -0.1798
 7287TIP3    H143352   3.665   3.290   3.413  0.2299 -0.6995 -0.2730
 7287TIP3    H243353   3.682   3.211   3.541 -1.1074 -0.4611  0.0713
 7288TIP3   OH243354   6.116   4.003   0.497  0.0928  0.0499  0.5377
 7288TIP3    H143355   6.059   4.066   0.542 -0.9282 -0.6686  0.2775
 7288TIP3    H243356   6.072   3.919   0.507  1.4214 -0.6301  0.8387
 7289TIP3   OH243357   6.794   5.008  11.911  0.0763 -0.1388 -0.0033
 7289TIP3    H143358   6.742   5.057  11.976  1.0072  1.6508 -0.5505
 7289TIP3    H243359   6.843   5.075  11.864  1.6331 -1.6420 -0.6243
 7290TIP3   OH243360   0.269   1.650  13.310 -0.4799 -0.0874  0.4423
 7290TIP3    H143361   0.330   1.589  13.268  0.2893 -1.5855  3.3778
 7290TIP3    H243362   0.213   1.594  13.363 -1.7651  1.5878  0.9220
 7291TIP3   OH243363   4.735   1.432   2.147  0.0530  0.2349 -0.0193
 7291TIP3    H143364   4.740   1.430   2.052 -0.5210 -1.7420 -0.0592
 7291TIP3    H243365   4.816   1.391   2.177 -0.0337  0.3091  0.3269
 7292TIP3   OH243366   2.388   5.606   0.717  0.8536 -0.6872  0.8587
 7292TIP3    H143367   2.386   5.664   0.641 -2.5329  0.4311  1.6136
 7292TIP3    H243368   2.359   5.521   0.683 -2.7511  0.2890  1.0128
 7293TIP3   OH243369   6.487   1.699  16.472  0.3068 -0.0591 -0.4253
 7293TIP3    H143370   6.514   1.703  16.564  3.0085 -0.0812 -1.1358
 7293TIP3    H243371   6.401   1.658  16.475 -1.0243  2.5257  2.2934
 7294TIP3   OH243372   4.504   5.197  12.173 -0.0575 -0.1954 -0.5359
 7294TIP3    H143373   4.589   5.197  12.215 -0.8538 -1.1981  1.1539
 7294TIP3    H243374   4.456   5.269  12.214 -0.5551 -0.6531 -0.2905
 7295TIP3   OH243375   1.681   3.042  11.693  0.1558 -0.4889 -0.1102
 7295TIP3    H143376   1.685   3.004  11.606 -0.5899 -1.5976  0.3142
 7295TIP3    H243377   1.614   2.991  11.739 -0.5006  0.9773  0.6696
 7296TIP3   OH243378   6.597   3.112   0.773 -0.2063 -0.0716  0.6101
 7296TIP3    H143379   6.665   3.050   0.800 -1.0615 -1.6855 -0.7996
 7296TIP3    H243380   6.582   3.166   0.851  1.2183 -1.0176  1.5905
 7297TIP3   OH243381   6.258   0.278  13.055 -0.0938 -0.3071  0.4370
 7297TIP3    H143382   6.261   0.329  13.136 -0.1814 -0.8884  0.8111
 7297TIP3    H243383   6.180   0.309  13.009  0.1161  0.2267  0.4329
 7298TIP3   OH243384   3.485   0.520   0.372  0.0120  0.3774 -0.2480
 7298TIP3    H143385   3.452   0.517   0.283  1.2011 -1.8169 -0.7079
 7298TIP3    H243386   3.562   0.463   0.370 -1.0978 -1.4463  2.6113
 7299TIP3   OH243387   3.850   5.746   3.815  0.0775  0.3892 -0.0141
 7299TIP3    H143388   3.853   5.728   3.721  1.1098  0.4528 -0.0040
 7299TIP3    H243389   3.932   5.794   3.833  0.5486 -0.8031  1.1571
 7300TIP3   OH243390   5.085   0.314   0.557  0.2041  0.0533 -0.4066
 7300TIP3    H143391   5.048   0.392   0.600  0.6578 -0.5901  1.2238
 7300TIP3    H243392   5.140   0.274   0.623  0.7366 -1.1579 -1.5345
 7301TIP3   OH243393   1.329   4.153  16.013 -0.3300 -0.0831 -0.6913
 7301TIP3    H143394   1.272   4.222  15.978 -0.2348  0.6629  0.5568
 7301TIP3    H243395   1.357   4.186  16.098  1.4701 -0.7284 -0.9934
 7302TIP3   OH243396   6.005   1.998   1.175  0.1000 -0.4520  0.1131
 7302TIP3    H143397   5.949   2.062   1.131  0.3241 -1.0994 -1.1728
 7302TIP3    H243398   5.946   1.928   1.203  0.3232 -1.6309 -2.1528
 7303TIP3   OH243399   0.875   3.704  12.744  0.6228  0.5069 -0.2366
 7303TIP3    H143400   0.939   3.775  12.737 -0.5345  1.5831 -0.3265
 7303TIP3    H243401   0.834   3.700  12.658  1.2827 -0.8934 -0.5062
 7304TIP3   OH243402   5.810   5.838   3.943  0.2284 -0.1505 -0.5617
 7304TIP3    H143403   5.870   5.905   3.976 -0.7064  0.0104  0.8959
 7304TIP3    H243404   5.796   5.861   3.851 -0.0029  1.6049 -0.1156
 7305TIP3   OH243405   2.792   0.583  15.312  0.6893 -0.4471  0.5532
 7305TIP3    H143406   2.814   0.552  15.225 -0.0903  0.6951 -0.0732
 7305TIP3    H243407   2.795   0.678  15.305  1.0156 -0.3391  1.8843
 7306TIP3   OH243408   5.282   2.032  13.251 -0.3708  0.0018  0.0998
 7306TIP3    H143409   5.219   2.089  13.205 -0.7581 -2.1575 -2.2735
 7306TIP3    H243410   5.367   2.053  13.212 -0.3101 -0.0754  0.1899
 7307TIP3   OH243411   0.942   5.499   0.637 -0.0508 -0.1934 -0.0902
 7307TIP3    H143412   1.014   5.540   0.684 -0.3469  0.1166  0.0950
 7307TIP3    H243413   0.940   5.542   0.552  0.8901 -1.1942 -0.6360
 7308TIP3   OH243414   6.381   0.832  10.548  0.1532  0.0579 -0.0804
 7308TIP3    H143415   6.340   0.895  10.489  0.2204  0.3569  0.1888
 7308TIP3    H243416   6.418   0.885  10.618 -0.2287 -0.3208  0.4169
 7309TIP3   OH243417   0.474   1.475   0.621 -0.4027 -0.3285 -0.1605
 7309TIP3    H143418   0.463   1.382   0.640  0.6886 -0.3898  0.2251
 7309TIP3    H243419   0.516   1.511   0.699  0.1457  0.2763 -0.7183
 7310TIP3   OH243420   6.207   0.901   0.423 -0.0000 -0.2704 -0.7071
 7310TIP3    H143421   6.156   0.887   0.504  0.8795  1.7699  0.2789
 7310TIP3    H243422   6.148   0.873   0.353 -2.0756  0.9314  0.4557
 7311TIP3   OH243423   1.102   4.875   3.287  0.4344  0.4632  0.2494
 7311TIP3    H143424   1.165   4.923   3.233  0.8530 -0.7816 -0.4092
 7311TIP3    H243425   1.104   4.786   3.253  0.2645 -0.2305  1.9598
 7312TIP3   OH243426   5.823   0.470  13.319 -0.0140 -0.2055  0.1927
 7312TIP3    H143427   5.848   0.388  13.277  1.0144  0.0848  0.2073
 7312TIP3    H243428   5.836   0.455  13.413  0.9122  0.1895  0.1465
 7313TIP3   OH243429   0.808   3.941   5.011 -0.6594 -0.0272 -0.3726
 7313TIP3    H143430   0.863   3.938   5.089  0.8389  0.9060 -1.3671
 7313TIP3    H243431   0.798   3.849   4.986  1.3445 -0.1781 -0.7620
 7314TIP3   OH243432   6.282   1.690   1.764  0.0019 -0.1996 -0.7434
 7314TIP3    H143433   6.332   1.766   1.793 -0.5828 -0.0216 -0.1786
 7314TIP3    H243434   6.285   1.629   1.838 -1.3673  0.1924 -0.3332
 7315TIP3   OH243435   3.900   5.478  14.218 -0.4389 -0.4505  0.2700
 7315TIP3    H143436   3.860   5.429  14.290 -0.7437  0.4175  0.7029
 7315TIP3    H243437   3.968   5.531  14.260 -2.3219  2.0555  0.3971
 7316TIP3   OH243438   3.703   2.026   3.213 -0.2647  0.3287  0.1920
 7316TIP3    H143439   3.770   2.034   3.281  0.4538  4.0652 -0.6791
 7316TIP3    H243440   3.753   2.007   3.133 -1.0222 -3.2397  0.4329
 7317TIP3   OH243441   6.564   4.371   2.191 -0.1420  0.2500 -0.4195
 7317TIP3    H143442   6.597   4.396   2.277 -0.8461  0.0828 -0.0947
 7317TIP3    H243443   6.641   4.335   2.146  0.4022  1.0508 -0.1511
 7318TIP3   OH243444   0.327   0.159   0.814 -0.1672 -0.5320  0.0151
 7318TIP3    H143445   0.389   0.110   0.868 -0.4379  0.3638  1.1539
 7318TIP3    H243446   0.263   0.193   0.875 -0.4957  0.4824 -0.8739
 7319TIP3   OH243447   4.101   0.571  14.423 -0.1895  0.6060  0.2279
 7319TIP3    H143448   4.138   0.658  14.416  1.8030 -0.1958  0.0720
 7319TIP3    H243449   4.138   0.535  14.504 -1.0672 -0.0504  0.3497
 7320TIP3   OH243450   2.515   4.278  17.288 -0.0573  0.3100  0.0121
 7320TIP3    H143451   2.537   4.191  17.256  1.6160  0.2803  1.1345
 7320TIP3    H243452   2.592   4.332  17.269 -0.1546  0.9725  1.3583
 7321TIP3   OH243453   3.523   1.537  16.135  0.0436 -0.0295  1.1408
 7321TIP3    H143454   3.540   1.595  16.209  0.4462  0.4689  0.6642
 7321TIP3    H243455   3.437   1.499  16.154 -1.3578  2.5235  0.3573
 7322TIP3   OH243456   2.322   4.014   2.961  0.4647  0.0823 -0.8302
 7322TIP3    H143457   2.330   3.926   2.998  1.5778  0.3728 -0.3273
 7322TIP3    H243458   2.251   4.054   3.011  0.0837 -0.4590 -0.9253
 7323TIP3   OH243459   2.354   6.786  10.954 -0.3886 -0.1792 -0.0238
 7323TIP3    H143460   2.420   6.719  10.932 -1.5974 -0.6330 -2.7321
 7323TIP3    H243461   2.404   6.867  10.961  0.7057 -0.8369  0.0754
 7324TIP3   OH243462   3.752   3.932  16.784 -0.5835 -0.6985 -0.2736
 7324TIP3    H143463   3.832   3.880  16.775  0.5425  1.0313 -0.8850
 7324TIP3    H243464   3.769   4.010  16.731 -2.6092 -0.1795 -0.2243
 7325TIP3   OH243465   5.425   5.298   3.836  0.0318 -0.0593 -0.1192
 7325TIP3    H143466   5.335   5.267   3.835  0.2812 -0.8296  0.4384
 7325TIP3    H243467   5.449   5.301   3.929  0.1560  1.4191 -0.1720
 7326TIP3   OH243468   5.259   5.057   3.878 -0.1829  0.5591 -0.4726
 7326TIP3    H143469   5.262   5.031   3.971  1.6307  3.2841  0.3287
 7326TIP3    H243470   5.179   5.110   3.871 -0.7852 -0.3507 -0.7294
 7327TIP3   OH243471   2.161   1.514   0.954 -0.0407  0.4602 -0.4194
 7327TIP3    H143472   2.181   1.508   1.048  0.0773  3.6193 -0.1446
 7327TIP3    H243473   2.082   1.567   0.950 -1.5972 -1.7979 -2.0812
 7328TIP3   OH243474   2.519   0.644  12.905 -0.4326  0.8783  0.2093
 7328TIP3    H143475   2.592   0.656  12.967  1.5973  0.6172 -1.9775
 7328TIP3    H243476   2.460   0.584  12.950  0.8105  0.8939  1.9966
 7329TIP3   OH243477   2.332   1.826   2.085 -0.2486 -0.4360 -0.3338
 7329TIP3    H143478   2.268   1.791   2.023  0.1722  0.7941 -1.5203
 7329TIP3    H243479   2.388   1.883   2.032  0.6611  0.0058  1.0346
 7330TIP3   OH243480   6.767   3.926  16.318 -0.0549 -0.4482  0.1070
 7330TIP3    H143481   6.735   4.008  16.356  1.5891  0.3432 -0.1375
 7330TIP3    H243482   6.818   3.886  16.388  1.8624  0.3603 -0.7608
 7331TIP3   OH243483   2.113   6.743  11.070 -0.0041 -0.6165  0.6866
 7331TIP3    H143484   2.051   6.790  11.014 -0.6796  1.9487  3.3511
 7331TIP3    H243485   2.197   6.751  11.025 -1.0017 -1.3958 -1.4373
 7332TIP3   OH243486   1.307   3.039  11.231 -0.3199 -0.3963  0.6456
 7332TIP3    H143487   1.282   3.129  11.252  0.1439 -0.1465  0.1501
 7332TIP3    H243488   1.381   3.020  11.288 -0.3658 -0.4358  0.6926
 7333TIP3   OH243489   2.308   5.177  15.789  0.5374  0.8798 -0.5363
 7333TIP3    H143490   2.397   5.175  15.824  0.5678 -0.2650 -0.6140
 7333TIP3    H243491   2.275   5.088  15.804 -0.7238  1.3964 -0.1861
 7334TIP3   OH243492   3.667   0.815  14.621 -0.2624  0.6514  0.6893
 7334TIP3    H143493   3.711   0.767  14.551  1.2272 -0.1238  2.0869
 7334TIP3    H243494   3.615   0.749  14.666 -0.7591  1.0262  0.6645
 7335TIP3   OH243495   0.084   2.899   3.130  0.1153  0.6709  0.2796
 7335TIP3    H143496   0.146   2.832   3.101 -0.3613 -0.4132  1.6632
 7335TIP3    H243497   0.070   2.953   3.052 -0.2398 -1.4104 -1.2092
 7336TIP3   OH243498   1.729   6.780  13.327  0.1397  0.0805 -0.4809
 7336TIP3    H143499   1.647   6.806  13.286  0.9434  0.4979 -1.8763
 7336TIP3    H243500   1.791   6.848  13.302  1.4446 -1.3642 -1.3296
 7337TIP3   OH243501   5.425   4.126   1.787  0.4443  0.5380  0.2536
 7337TIP3    H143502   5.479   4.169   1.720  1.2121  0.8966  1.0815
 7337TIP3    H243503   5.452   4.035   1.784  0.0640  0.4393 -0.3117
 7338TIP3   OH243504   2.162   1.253  11.308  0.4556 -0.0839  0.9392
 7338TIP3    H143505   2.157   1.181  11.245  0.9736  0.8556 -0.1894
 7338TIP3    H243506   2.153   1.332  11.256 -0.7558  0.6881  2.2309
 7339TIP3   OH243507   0.350   0.020   1.107 -0.6740  0.4238  0.2245
 7339TIP3    H143508   0.426   0.043   1.160  0.5531 -2.6315  0.0349
 7339TIP3    H243509   0.275   0.056   1.155  0.6338  0.5597  2.2895
 7340TIP3   OH243510   2.581   3.700  13.971 -0.6733  0.4411  0.2044
 7340TIP3    H143511   2.537   3.625  14.012  0.9126 -1.3207 -1.1238
 7340TIP3    H243512   2.630   3.662  13.898  0.0952  2.8285 -0.6226
 7341TIP3   OH243513   6.012   6.648  16.596 -0.2836 -0.1411  0.0605
 7341TIP3    H143514   6.053   6.728  16.629 -2.2837  1.3740 -0.8913
 7341TIP3    H243515   5.976   6.673  16.510 -1.1571 -1.9929 -0.1717
 7342TIP3   OH243516   0.660   2.672  17.224  0.4691 -0.4741 -0.0237
 7342TIP3    H143517   0.739   2.723  17.202  0.2011  0.1623  0.4547
 7342TIP3    H243518   0.694   2.587  17.250  0.9654 -0.3820 -0.3365
 7343TIP3   OH243519   0.072   1.867  11.940 -0.3504 -0.2451 -0.1616
 7343TIP3    H143520   0.096   1.959  11.952  0.3003 -0.3702 -0.4564
 7343TIP3    H243521  -0.011   1.858  11.986  1.0537 -0.2402  2.5799
 7344TIP3   OH243522   2.566   0.517   6.142  0.1570 -0.1543  0.2752
 7344TIP3    H143523   2.619   0.452   6.096 -1.6309 -0.0614 -2.1300
 7344TIP3    H243524   2.629   0.572   6.188  2.2326  0.1805 -2.6941
 7345TIP3   OH243525   3.604   2.168   5.925  0.5508  0.6862  0.0777
 7345TIP3    H143526   3.677   2.115   5.957 -1.2270 -1.4731  0.8695
 7345TIP3    H243527   3.575   2.217   6.003 -1.2162 -1.4729  0.8930
 7346TIP3   OH243528   0.832   1.591  14.139  0.0380 -0.1516 -0.0433
 7346TIP3    H143529   0.805   1.677  14.173  0.7502  1.2063 -2.6525
 7346TIP3    H243530   0.751   1.542  14.132 -0.7331  1.1547 -0.6541
 7347TIP3   OH243531   0.602   4.971   0.769  0.1319  0.6491  0.3689
 7347TIP3    H143532   0.599   5.063   0.742  1.5753  0.1180 -1.9161
 7347TIP3    H243533   0.645   4.973   0.855  2.7803  1.9776 -0.8491
 7348TIP3   OH243534   0.387   5.274  15.764 -0.2862  0.2511  0.1584
 7348TIP3    H143535   0.309   5.261  15.819 -0.0528 -1.0616  0.2174
 7348TIP3    H243536   0.360   5.244  15.677  0.6091 -1.8925  0.5487
 7349TIP3   OH243537   5.365   4.249  13.566 -0.5322 -0.4631 -0.0925
 7349TIP3    H143538   5.276   4.236  13.533 -0.3069 -0.8073 -0.5809
 7349TIP3    H243539   5.378   4.344  13.564 -0.8072 -0.4292 -0.2393
 7350TIP3   OH243540   4.840   3.781  13.213  0.0742  0.0071 -0.2040
 7350TIP3    H143541   4.757   3.748  13.179 -0.3996 -1.2520  1.9824
 7350TIP3    H243542   4.907   3.725  13.172 -0.2281  0.2959 -1.1110
 7351TIP3   OH243543   0.568   0.013   0.924 -0.1932 -0.8666  0.0230
 7351TIP3    H143544   0.651   0.048   0.954 -0.9662  0.2933  0.8895
 7351TIP3    H243545   0.569   0.028   0.829 -0.4135  1.4137  0.3289
 7352TIP3   OH243546   2.642   4.619  12.771 -0.4674  0.3767 -0.2460
 7352TIP3    H143547   2.647   4.714  12.778 -1.1100  0.5186 -1.5017
 7352TIP3    H243548   2.733   4.589  12.767 -0.2776  1.0014 -0.6205
 7353TIP3   OH243549   5.989   1.807   5.829  0.5174  0.3665  0.4056
 7353TIP3    H143550   6.027   1.895   5.826 -0.4524  0.8049  0.4209
 7353TIP3    H243551   5.898   1.819   5.801 -0.2815 -0.2505  2.5136
 7354TIP3   OH243552   5.042   1.350  12.047  0.5834  0.3225 -0.3012
 7354TIP3    H143553   5.109   1.285  12.027  1.3221  0.3793  1.7599
 7354TIP3    H243554   5.046   1.412  11.974  0.8710 -1.1265 -1.5650
 7355TIP3   OH243555   4.811   3.372  15.136 -0.1050 -0.3783  0.0066
 7355TIP3    H143556   4.733   3.382  15.190  0.0444 -0.1487  0.1790
 7355TIP3    H243557   4.784   3.400  15.049 -0.7408 -2.0533 -0.3725
 7356TIP3   OH243558   4.635   4.221   0.178  1.0431 -0.3007  0.2674
 7356TIP3    H143559   4.569   4.152   0.171  1.2047 -0.9806  3.5693
 7356TIP3    H243560   4.702   4.197   0.114 -1.0799 -0.4611 -2.0436
 7357TIP3   OH243561   6.376   3.295   0.085  0.2198  0.7613  0.2718
 7357TIP3    H143562   6.452   3.248   0.051 -0.8737 -0.5847 -0.4170
 7357TIP3    H243563   6.408   3.336   0.166  1.9799  1.2668 -0.6292
 7358TIP3   OH243564   2.873   6.333  11.284 -0.2117  0.4536 -0.4326
 7358TIP3    H143565   2.954   6.364  11.325 -0.9728  0.6357  0.9945
 7358TIP3    H243566   2.835   6.411  11.244 -0.8850  0.8946  1.0175
 7359TIP3   OH243567   1.981   2.021   1.900  0.1051 -0.3764 -0.3198
 7359TIP3    H143568   2.007   1.952   1.839 -1.7117 -2.8401  1.4874
 7359TIP3    H243569   1.950   1.974   1.978 -2.8871  2.3852  0.3746
 7360TIP3   OH243570   3.526   5.893  17.220 -0.0311 -0.1590 -0.2277
 7360TIP3    H143571   3.567   5.843  17.149 -0.8313 -0.3416 -0.5782
 7360TIP3    H243572   3.599   5.921  17.275  0.3960 -2.3166  0.3845
 7361TIP3   OH243573   5.602   0.232  17.267  0.2541  0.2107  0.2863
 7361TIP3    H143574   5.669   0.190  17.321  0.5263 -1.4445 -1.2362
 7361TIP3    H243575   5.527   0.172  17.273 -0.5464  1.2211  0.6722
 7362TIP3   OH243576   2.933   3.105  11.958  0.4824  0.2217  0.3993
 7362TIP3    H143577   2.927   3.185  12.009  0.7937 -0.7187  1.9812
 7362TIP3    H243578   2.846   3.065  11.964  0.4786  0.1790  0.0777
 7363TIP3   OH243579   4.950   0.116   0.386  0.8043  0.4929 -0.0552
 7363TIP3    H143580   4.924   0.168   0.462  1.1740 -0.3654  0.6842
 7363TIP3    H243581   5.043   0.097   0.400  0.8178  0.1184 -0.6033
 7364TIP3   OH243582   1.469   6.182  12.254 -0.3715  0.1216  0.2632
 7364TIP3    H143583   1.525   6.137  12.317  1.2986  0.3306 -0.9884
 7364TIP3    H243584   1.416   6.241  12.307 -0.1724 -0.8510  1.6021
 7365TIP3   OH243585   1.676   6.609   3.655 -0.1228 -0.0971  0.2381
 7365TIP3    H143586   1.634   6.685   3.697  0.1261 -0.0630  0.4257
 7365TIP3    H243587   1.685   6.545   3.725  0.1521 -0.0989  0.2032
 7366TIP3   OH243588   1.618   5.626   5.533 -0.5253  0.4807  0.1885
 7366TIP3    H143589   1.589   5.623   5.624  0.2904  0.7239  0.4664
 7366TIP3    H243590   1.702   5.579   5.532 -0.5278  0.4727 -0.4357
 7367TIP3   OH243591   2.494   1.862  11.171  0.0139 -1.0502 -0.1596
 7367TIP3    H143592   2.502   1.952  11.201 -1.2203 -1.2354  0.7933
 7367TIP3    H243593   2.527   1.864  11.081  0.1813  0.2984 -0.0881
 7368TIP3   OH243594   1.376   6.282   2.633 -0.2050 -0.4619 -0.0045
 7368TIP3    H143595   1.446   6.308   2.573 -0.0816 -0.0214  0.3245
 7368TIP3    H243596   1.419   6.271   2.717 -0.3927 -1.0009  0.0235
 7369TIP3   OH243597   6.764   1.923  13.440  0.0948 -0.0604 -0.2643
 7369TIP3    H143598   6.700   1.982  13.480 -0.8138  0.0656 -1.8103
 7369TIP3    H243599   6.728   1.836  13.452 -0.0039 -0.0512 -0.4854
 7370TIP3   OH243600   3.079   6.533   2.485 -0.2172  0.3615  0.0156
 7370TIP3    H143601   2.983   6.534   2.483 -0.2238  1.3091  0.3266
 7370TIP3    H243602   3.102   6.441   2.498 -1.1228  0.3027  1.4153
 7371TIP3   OH243603   0.431   2.312  11.112 -0.6970 -0.2296  0.1569
 7371TIP3    H143604   0.423   2.370  11.036 -1.7988  0.9798  1.1634
 7371TIP3    H243605   0.475   2.234  11.077 -0.4298  0.6229 -1.5346
 7372TIP3   OH243606   4.748   0.927   5.923  0.2566 -0.2507 -0.0033
 7372TIP3    H143607   4.791   0.999   5.970 -0.6819 -0.2813  0.9500
 7372TIP3    H243608   4.785   0.930   5.835  2.4958 -0.5370  0.8631
 7373TIP3   OH243609   1.158   2.994  17.035 -0.2349  0.0390 -0.2493
 7373TIP3    H143610   1.166   2.987  16.940 -0.2587  0.2943 -0.2726
 7373TIP3    H243611   1.229   3.054  17.060 -0.5169  0.3346 -0.1584
 7374TIP3   OH243612   3.158   1.409   5.625  0.5238  0.5706  0.2406
 7374TIP3    H143613   3.177   1.315   5.617  0.5577  0.6096 -0.1887
 7374TIP3    H243614   3.151   1.439   5.534 -1.0838  0.6674  0.3692
 7375TIP3   OH243615   0.625   2.950  13.561 -0.7158  0.1492  0.6787
 7375TIP3    H143616   0.694   2.884  13.553 -2.0461 -1.2008 -0.4660
 7375TIP3    H243617   0.669   3.027  13.596  1.2201 -0.8607  0.6221
 7376TIP3   OH243618   4.202   6.610  16.231  0.4382 -0.0480  0.0497
 7376TIP3    H143619   4.267   6.555  16.186 -1.8542 -1.8914 -1.2185
 7376TIP3    H243620   4.211   6.587  16.324  2.2528  0.5349  0.0600
 7377TIP3   OH243621   3.442   3.753   2.930 -0.6539  0.1768 -0.1245
 7377TIP3    H143622   3.410   3.777   3.017  2.2559  1.7217  0.6407
 7377TIP3    H243623   3.452   3.658   2.934  0.5905  0.3292  1.7137
 7378TIP3   OH243624   3.256   6.324   0.382  0.0228  0.3525  0.2827
 7378TIP3    H143625   3.250   6.291   0.472 -1.2966 -1.6105 -0.4621
 7378TIP3    H243626   3.343   6.298   0.352  0.1434  0.2692  0.6942
 7379TIP3   OH243627   5.563   4.372   1.633 -0.0744 -0.1103  0.9201
 7379TIP3    H143628   5.491   4.424   1.671 -0.6098 -0.3375  0.2363
 7379TIP3    H243629   5.596   4.427   1.562 -0.8438 -0.8151 -0.0055
 7380TIP3   OH243630   0.742   2.706   3.623 -0.1876  0.3835 -0.1838
 7380TIP3    H143631   0.755   2.783   3.569 -1.3608  1.5229  1.0856
 7380TIP3    H243632   0.829   2.686   3.658  0.0422  1.4128 -0.1497
 7381TIP3   OH243633   2.494   5.539   1.665 -0.0698 -0.6647 -0.6766
 7381TIP3    H143634   2.463   5.503   1.582 -1.0186  0.7900 -0.9896
 7381TIP3    H243635   2.584   5.566   1.647 -0.8208  1.3165 -1.8494
 7382TIP3   OH243636   4.402   2.835  11.409  0.1930  0.9347  0.9006
 7382TIP3    H143637   4.458   2.856  11.334 -0.5814 -1.2275 -0.3989
 7382TIP3    H243638   4.449   2.764  11.454 -0.5117  0.4949  0.9645
 7383TIP3   OH243639   5.554   6.723  13.121  0.3587  0.1292  0.1816
 7383TIP3    H143640   5.470   6.766  13.141  0.1073 -0.2059 -0.1294
 7383TIP3    H243641   5.538   6.631  13.140  0.5907  0.0342 -0.0906
 7384TIP3   OH243642   6.041   3.920   1.825  0.2072  0.2215  0.3150
 7384TIP3    H143643   6.018   3.946   1.915  1.1026  1.5167  0.1934
 7384TIP3    H243644   5.959   3.930   1.776  0.0449  0.8749  0.7038
 7385TIP3   OH243645   2.346   6.228  14.046 -0.3934 -0.0032 -0.0550
 7385TIP3    H143646   2.436   6.247  14.074 -0.6035  0.4311  0.3316
 7385TIP3    H243647   2.291   6.264  14.115 -0.8368 -1.3243  0.3069
 7386TIP3   OH243648   0.093   1.233  14.448  0.5161  0.0938  0.0333
 7386TIP3    H143649   0.170   1.266  14.402  0.6299  0.9269  0.7898
 7386TIP3    H243650   0.076   1.298  14.517  0.2039 -0.9834  1.0022
 7387TIP3   OH243651   2.234   4.447  13.405  0.2493  0.1306 -0.1002
 7387TIP3    H143652   2.273   4.362  13.383 -0.3520 -0.0175 -0.6398
 7387TIP3    H243653   2.147   4.444  13.365  0.0343  0.8102  0.3057
 7388TIP3   OH243654   1.856   6.236   1.272 -0.0524  0.0227  0.7155
 7388TIP3    H143655   1.952   6.242   1.271 -0.0860  0.8688 -0.9687
 7388TIP3    H243656   1.833   6.198   1.188 -1.2064 -0.4444  1.2159
 7389TIP3   OH243657   2.204   3.222  12.185  0.1175  0.2451 -0.1281
 7389TIP3    H143658   2.115   3.195  12.162 -0.9762  1.6145  2.1336
 7389TIP3    H243659   2.259   3.181  12.118 -2.1035 -1.3076 -1.1584
 7390TIP3   OH243660   0.572   5.169   1.722 -0.0440 -0.3393  0.1110
 7390TIP3    H143661   0.619   5.196   1.801 -0.1622  0.2686 -0.0143
 7390TIP3    H243662   0.629   5.105   1.681  1.0758  0.9624 -0.4554
 7391TIP3   OH243663   4.192   5.319  14.562 -0.2456 -0.3555 -0.3478
 7391TIP3    H143664   4.103   5.284  14.557 -0.1563 -0.4921 -0.9448
 7391TIP3    H243665   4.240   5.253  14.612 -1.0954  0.9769  2.4717
 7392TIP3   OH243666   5.032   4.427   3.315  0.0019 -0.2854 -0.2016
 7392TIP3    H143667   5.036   4.482   3.393 -1.4666 -0.9397  0.3588
 7392TIP3    H243668   5.092   4.354   3.334  3.1203  1.6860 -1.5282
 7393TIP3   OH243669   4.512   0.417  11.711 -0.1969  0.2831 -0.3304
 7393TIP3    H143670   4.460   0.480  11.662 -0.2187  0.5937  0.0947
 7393TIP3    H243671   4.459   0.396  11.788 -0.2124 -0.2908 -0.4946
 7394TIP3   OH243672   1.445   5.433  16.068 -0.0304  0.1684  0.1103
 7394TIP3    H143673   1.525   5.405  16.113 -0.6869  0.3254  1.4428
 7394TIP3    H243674   1.419   5.357  16.016  0.5860 -0.1369  0.2360
 7395TIP3   OH243675   5.920   1.023   2.080  0.2675  0.0420 -0.0134
 7395TIP3    H143676   5.835   1.046   2.044  0.8773 -0.0020 -1.5653
 7395TIP3    H243677   5.909   0.934   2.113 -0.0342 -0.3395 -1.1156
 7396TIP3   OH243678   1.306   1.037  17.212 -0.1644  0.1209  0.2164
 7396TIP3    H143679   1.256   1.117  17.227 -2.2149 -1.0930  0.2410
 7396TIP3    H243680   1.350   1.020  17.296 -0.1546  0.9026  0.3787
 7397TIP3   OH243681   6.721   5.534  14.173  0.2521  0.1048  0.2397
 7397TIP3    H143682   6.776   5.563  14.101  0.4172  0.6689  0.5895
 7397TIP3    H243683   6.690   5.615  14.214 -2.6258 -0.0924 -1.2625
 7398TIP3   OH243684   6.276   5.214  11.317  0.2292 -0.0283  0.0440
 7398TIP3    H143685   6.359   5.181  11.282 -0.9379 -0.2640 -2.7546
 7398TIP3    H243686   6.218   5.138  11.317 -0.6230  0.6021 -0.2535
 7399TIP3   OH243687   0.578   1.421   5.980  0.4990  0.0760 -0.1221
 7399TIP3    H143688   0.501   1.474   6.005  0.9211  0.0566  1.3083
 7399TIP3    H243689   0.547   1.331   5.985 -0.5958  0.1134 -3.8234
 7400TIP3   OH243690   0.834   5.166  15.038  0.3139 -0.5016 -0.1072
 7400TIP3    H143691   0.823   5.154  15.132 -1.8669 -0.8816 -0.3680
 7400TIP3    H243692   0.788   5.092  14.999  0.5139  0.0746 -1.4925
 7401TIP3   OH243693   1.985   0.615   5.685 -0.7416  1.0223 -0.4205
 7401TIP3    H143694   2.003   0.622   5.779 -0.2271 -0.3851 -0.3900
 7401TIP3    H243695   1.896   0.581   5.680  0.3693 -2.2460 -0.3007
 7402TIP3   OH243696   6.764   4.035   6.740 -0.3771 -0.4265  0.2478
 7402TIP3    H143697   6.680   4.078   6.724 -0.2486 -0.4608 -0.5351
 7402TIP3    H243698   6.814   4.100   6.791  0.2445  0.8901 -1.8942
 7403TIP3   OH243699   4.202   0.547  15.993 -0.4297 -0.0019 -0.2929
 7403TIP3    H143700   4.278   0.606  15.989 -0.6003  0.1969 -0.6463
 7403TIP3    H243701   4.136   0.589  15.937 -0.9838  0.0869  0.4124
 7404TIP3   OH243702   6.399   5.497  13.531  0.5402  0.1588  0.2324
 7404TIP3    H143703   6.384   5.478  13.623  1.6219  0.5665  0.5042
 7404TIP3    H243704   6.416   5.412  13.491 -0.5163 -0.0892  0.2785
 7405TIP3   OH243705   4.918   4.450  13.401 -0.1660  0.3611 -0.3831
 7405TIP3    H143706   4.862   4.516  13.443  0.1647  1.5098 -1.6664
 7405TIP3    H243707   4.943   4.490  13.318  2.5616 -0.0914  0.1238
 7406TIP3   OH243708   0.645   0.366  12.267  0.2852 -0.2586  0.0682
 7406TIP3    H143709   0.680   0.346  12.354 -0.4343 -1.1396  0.1596
 7406TIP3    H243710   0.716   0.342  12.207  0.8250  0.4535  0.4013
 7407TIP3   OH243711   4.331   4.036  15.506  0.2893 -0.0233  0.3002
 7407TIP3    H143712   4.328   4.031  15.602  0.6519  1.8998  0.4521
 7407TIP3    H243713   4.348   4.128  15.488  0.1426 -0.3463 -1.6348
 7408TIP3   OH243714   3.801   6.033   2.564  0.5333 -0.0259  0.0130
 7408TIP3    H143715   3.706   6.024   2.565  0.4622  0.6278 -0.4199
 7408TIP3    H243716   3.831   5.965   2.504  0.2406  0.5980 -0.8490
 7409TIP3   OH243717   2.423   6.414  11.188  0.7604 -0.5813  0.2018
 7409TIP3    H143718   2.331   6.411  11.215  0.0332 -1.2532 -2.0831
 7409TIP3    H243719   2.456   6.326  11.206  0.0503 -1.2754 -1.6937
 7410TIP3   OH243720   3.475   6.303   1.033  0.0921 -0.4776 -0.2009
 7410TIP3    H143721   3.466   6.395   1.058 -0.8165 -0.0861 -1.8228
 7410TIP3    H243722   3.406   6.258   1.083  0.6486 -0.3271  0.7243
 7411TIP3   OH243723   6.214   2.258   4.040  0.0131 -0.2259  0.6455
 7411TIP3    H143724   6.214   2.300   3.954  0.3090 -0.8705  0.3206
 7411TIP3    H243725   6.174   2.322   4.099 -0.2084  0.2121  0.0237
 7412TIP3   OH243726   2.110   6.749  15.177 -0.1031  0.1975  0.2553
 7412TIP3    H143727   2.089   6.798  15.257  1.0593 -0.6742  1.1351
 7412TIP3    H243728   2.201   6.773  15.158  0.7993 -2.1932  1.2096
 7413TIP3   OH243729   6.727   2.754  12.708 -0.0060  0.0887 -0.0863
 7413TIP3    H143730   6.635   2.780  12.706  0.1003  0.4715 -0.3246
 7413TIP3    H243731   6.755   2.757  12.616 -0.2438 -1.8829 -0.2530
 7414TIP3   OH243732   3.468   1.353  17.178  0.7894  0.7409 -0.4421
 7414TIP3    H143733   3.378   1.382  17.166  0.7501  1.7390  1.7829
 7414TIP3    H243734   3.510   1.369  17.093 -0.2636  3.6054 -0.5206
 7415TIP3   OH243735   5.396   2.911  11.085 -0.3165 -0.2918  0.0763
 7415TIP3    H143736   5.319   2.964  11.104 -0.4701 -0.0918 -1.0591
 7415TIP3    H243737   5.381   2.828  11.132 -0.2887  0.4619  1.4755
 7416TIP3   OH243738   2.989   5.416   6.298 -0.4697 -0.4189 -0.1029
 7416TIP3    H143739   2.992   5.333   6.250  0.3551 -0.7474  0.4817
 7416TIP3    H243740   3.080   5.446   6.300 -0.8921  1.0525 -1.2172
 7417TIP3   OH243741   3.924   5.085  13.312  0.0929  0.3836  0.0525
 7417TIP3    H143742   3.912   5.054  13.222 -0.4526  0.0569  0.2359
 7417TIP3    H243743   4.017   5.109  13.316  0.8423 -2.2113  0.2109
 7418TIP3   OH243744   2.090   6.289   6.018  0.1504  0.6608  0.1655
 7418TIP3    H143745   2.023   6.281   5.950 -1.1347 -0.4761  1.4996
 7418TIP3    H243746   2.113   6.382   6.019  0.8349  0.5977 -2.3456
 7419TIP3   OH243747   2.680   4.539  15.586 -0.3601 -0.5341  0.0739
 7419TIP3    H143748   2.745   4.552  15.516  0.2752 -0.1058  0.7310
 7419TIP3    H243749   2.600   4.514  15.539  0.5951 -2.4142 -0.6922
 7420TIP3   OH243750   2.439   0.468  11.808  0.0172 -0.3535 -0.2567
 7420TIP3    H143751   2.468   0.379  11.788  1.5918  0.0118  0.2965
 7420TIP3    H243752   2.445   0.514  11.724 -2.7106 -1.1906 -1.0299
 7421TIP3   OH243753   3.780   1.765  12.676 -0.1140  0.2189  0.0755
 7421TIP3    H143754   3.841   1.692  12.660 -2.8961 -2.2810  0.1195
 7421TIP3    H243755   3.793   1.787  12.769  0.7335 -0.2396  0.0780
 7422TIP3   OH243756   6.465   0.351  13.264 -0.5299 -0.6138 -0.5322
 7422TIP3    H143757   6.479   0.286  13.195 -0.9939 -0.4888 -0.7473
 7422TIP3    H243758   6.540   0.410  13.257 -0.3348 -0.8721 -0.6244
 7423TIP3   OH243759   1.368   2.396  15.787 -0.7209  0.7216  0.3833
 7423TIP3    H143760   1.338   2.354  15.706 -2.1522  1.0036  0.7467
 7423TIP3    H243761   1.434   2.460  15.758 -0.0467 -0.2873 -0.3780
 7424TIP3   OH243762   6.125   4.068  13.293 -0.7077  0.1513 -0.0224
 7424TIP3    H143763   6.221   4.066  13.287 -0.5943 -0.7997  1.5562
 7424TIP3    H243764   6.107   4.124  13.369 -1.3339 -0.6696  0.4570
 7425TIP3   OH243765   0.969   6.714   1.538  0.2401 -0.2886  0.0355
 7425TIP3    H143766   1.064   6.708   1.527  0.9809  1.1939  4.1367
 7425TIP3    H243767   0.947   6.802   1.510  0.6429  0.4034  1.7845
 7426TIP3   OH243768   6.255   4.032  12.312  0.0449  0.0558 -0.5298
 7426TIP3    H143769   6.271   4.106  12.370  1.4106 -0.5305 -0.1066
 7426TIP3    H243770   6.306   4.052  12.234  1.6756 -1.0951  0.1824
 7427TIP3   OH243771   6.035   3.876  16.375  0.3914 -0.1923  0.7341
 7427TIP3    H143772   6.065   3.867  16.466 -0.9854  1.0146  1.3503
 7427TIP3    H243773   6.090   3.946  16.339  1.2098 -0.9415  0.4842
 7428TIP3   OH243774   4.796   5.462   1.026  0.0208 -0.5057 -0.0847
 7428TIP3    H143775   4.801   5.432   0.935  1.9098 -2.2406  0.5146
 7428TIP3    H243776   4.795   5.381   1.078  2.0536  0.3969  1.5140
 7429TIP3   OH243777   4.598   6.551  11.947  0.2275  0.2929  0.6839
 7429TIP3    H143778   4.533   6.527  11.881  1.2998  0.1593 -0.3619
 7429TIP3    H243779   4.665   6.483  11.941  1.7750  1.8031 -0.1602
 7430TIP3   OH243780   1.412   0.457  15.516  0.3883  0.2352 -0.4156
 7430TIP3    H143781   1.352   0.532  15.515 -0.0694 -0.1371 -1.1440
 7430TIP3    H243782   1.356   0.380  15.520  0.8701 -0.0878  2.1471
 7431TIP3   OH243783   6.569   3.884   3.870  0.0595  0.3092  0.2065
 7431TIP3    H143784   6.591   3.959   3.815  4.3153 -0.3176  0.7315
 7431TIP3    H243785   6.558   3.812   3.807  0.0142  0.5460 -0.0631
 7432TIP3   OH243786   6.210   3.196  12.382 -0.2564 -0.6286  0.5689
 7432TIP3    H143787   6.147   3.180  12.453 -0.3370  0.8941  0.8791
 7432TIP3    H243788   6.291   3.155  12.413 -0.8669 -1.9516  0.5034
 7433TIP3   OH243789   3.990   3.719  13.865 -0.2142  0.7079  0.3450
 7433TIP3    H143790   4.060   3.655  13.875 -0.1305  0.6178 -0.7226
 7433TIP3    H243791   3.974   3.752  13.954 -0.7599 -1.3137  1.0477
 7434TIP3   OH243792   2.784   5.214  12.605 -0.3212 -0.2511  0.1236
 7434TIP3    H143793   2.704   5.258  12.578 -0.7899 -1.3375 -0.3085
 7434TIP3    H243794   2.766   5.184  12.694 -0.0213  0.3857  0.3996
 7435TIP3   OH243795   2.644   1.847   6.327  0.8437  0.0716 -0.1196
 7435TIP3    H143796   2.667   1.754   6.327  0.0436 -0.1438 -1.1335
 7435TIP3    H243797   2.622   1.866   6.418 -0.1646 -1.0473 -0.0989
 7436TIP3   OH243798   0.383   2.042  15.726 -0.2010  0.4185 -0.5348
 7436TIP3    H143799   0.426   1.957  15.723 -3.6932 -1.5826  0.0364
 7436TIP3    H243800   0.397   2.074  15.815 -0.7586 -0.7199 -0.0231
 7437TIP3   OH243801   5.443   6.570  11.791  0.0005 -0.4792  0.5396
 7437TIP3    H143802   5.471   6.614  11.871 -1.1515 -1.1021  1.3180
 7437TIP3    H243803   5.515   6.509  11.771  0.1693 -0.5371  1.2805
 7438TIP3   OH243804   6.013   4.467   5.161  0.3962 -0.0775 -0.0564
 7438TIP3    H143805   6.052   4.522   5.092 -0.7768 -0.0926 -0.7534
 7438TIP3    H243806   5.920   4.467   5.142  0.1123 -0.5354  1.2368
 7439TIP3   OH243807   4.836   5.215  14.427 -0.1809 -0.2952 -0.7674
 7439TIP3    H143808   4.839   5.300  14.383 -1.5756 -0.5851 -1.4763
 7439TIP3    H243809   4.895   5.160  14.375 -2.1630 -0.7632 -2.6795
 7440TIP3   OH243810   2.725   5.649  16.815  1.0314  0.0895  0.8520
 7440TIP3    H143811   2.648   5.620  16.767  1.3338 -0.0826  0.4626
 7440TIP3    H243812   2.712   5.743  16.827  0.3951 -0.0737  1.4736
 7441TIP3   OH243813   3.222   5.805   3.966 -0.1555 -0.1463  0.8702
 7441TIP3    H143814   3.302   5.793   4.018  0.0002  0.7778  0.8631
 7441TIP3    H243815   3.248   5.781   3.877  0.3832  1.0057  0.6955
 7442TIP3   OH243816   0.855   2.039   3.414 -0.4790 -0.2978  0.2971
 7442TIP3    H143817   0.921   2.107   3.425  0.1788 -1.0005  0.7494
 7442TIP3    H243818   0.902   1.957   3.424 -1.3653 -0.8195  0.3464
 7443TIP3   OH243819   1.051   6.667  14.686 -0.5439  0.6377 -0.3313
 7443TIP3    H143820   0.991   6.672  14.760  0.0395 -0.5169  0.2462
 7443TIP3    H243821   1.080   6.576  14.685 -1.3156  0.3591 -2.6144
 7444TIP3   OH243822   4.174   4.674   0.698 -0.1155  0.0895 -0.1455
 7444TIP3    H143823   4.124   4.662   0.617 -0.3146  0.2324 -0.0446
 7444TIP3    H243824   4.115   4.723   0.756  0.9005  2.1815 -0.7751
 7445TIP3   OH243825   5.915   5.633   3.187  0.3669  0.3446 -0.4912
 7445TIP3    H143826   5.851   5.571   3.151 -1.8207  1.8054  0.6391
 7445TIP3    H243827   5.894   5.716   3.144  1.2075  0.9665  0.2594
 7446TIP3   OH243828   6.308   0.724   2.116 -0.3705 -0.2233 -0.1265
 7446TIP3    H143829   6.329   0.638   2.153  0.2891 -0.4060 -0.8928
 7446TIP3    H243830   6.390   0.773   2.120 -0.2201 -0.3232 -1.5137
 7447TIP3   OH243831   3.771   6.393   5.547  0.3847 -0.3045 -0.6492
 7447TIP3    H143832   3.829   6.322   5.576  1.5585  0.2693 -1.4869
 7447TIP3    H243833   3.702   6.349   5.498  0.4787 -0.9504 -0.2190
 7448TIP3   OH243834   2.770   5.113  12.870 -0.0876 -0.7137 -0.0930
 7448TIP3    H143835   2.758   5.117  12.965  1.1525  0.2760  0.0352
 7448TIP3    H243836   2.759   5.020  12.849  0.0300 -1.0023  1.0677
 7449TIP3   OH243837   1.410   4.501  16.718  0.1921 -0.0472  0.0805
 7449TIP3    H143838   1.409   4.484  16.624 -2.3708 -0.0830  0.0587
 7449TIP3    H243839   1.496   4.540  16.734  1.6000 -2.1129 -1.8616
 7450TIP3   OH243840   6.273   4.005   2.047 -0.6223 -0.0330  0.4617
 7450TIP3    H143841   6.305   4.074   1.989 -1.3152  0.0958  0.2212
 7450TIP3    H243842   6.304   4.031   2.134 -1.3312  0.8868  0.4610
 7451TIP3   OH243843   2.912   6.759  14.725  0.4750 -0.4780 -0.4503
 7451TIP3    H143844   2.979   6.737  14.661 -0.1061 -2.4325 -0.4528
 7451TIP3    H243845   2.829   6.745  14.678  0.0375  1.0526 -0.1837
 7452TIP3   OH243846   1.227   5.883   0.066  0.2463 -0.1851  0.2523
 7452TIP3    H143847   1.178   5.922  -0.006 -0.9834  1.9956  2.1184
 7452TIP3    H243848   1.228   5.789   0.047 -1.5445  0.1221 -1.6908
 7453TIP3   OH243849   6.727   6.354  10.701 -0.1302  0.5510  0.0466
 7453TIP3    H143850   6.694   6.296  10.769 -1.3221 -0.5041 -1.3501
 7453TIP3    H243851   6.754   6.433  10.747 -1.9252  0.3097  1.6222
 7454TIP3   OH243852   0.859   0.991  15.083 -0.0391 -0.0978  0.1004
 7454TIP3    H143853   0.848   1.059  15.017  0.4086 -0.0647  0.0588
 7454TIP3    H243854   0.927   0.934  15.048 -0.6476 -0.7679 -0.0235
 7455TIP3   OH243855   4.393   2.646   4.202  0.1863 -0.1795 -0.2470
 7455TIP3    H143856   4.366   2.584   4.270  2.0378 -0.5201  0.2251
 7455TIP3    H243857   4.410   2.591   4.126 -0.1871  0.0061 -0.4680
 7456TIP3   OH243858   5.007   0.819   2.015  0.7494  0.0505  0.1651
 7456TIP3    H143859   4.938   0.884   1.999  0.2005 -0.1150  1.7148
 7456TIP3    H243860   5.088   0.866   1.999  0.4475  1.6602  2.7404
 7457TIP3   OH243861   2.043   6.580  12.947  0.2782 -0.5961  0.4233
 7457TIP3    H143862   2.031   6.545  12.859  3.3190  1.0013 -0.7457
 7457TIP3    H243863   1.984   6.656  12.951  0.1633 -0.6491 -0.2242
 7458TIP3   OH243864   2.955   3.359  10.510  0.2530 -0.1078 -0.1318
 7458TIP3    H143865   2.866   3.360  10.474  0.4057 -0.1139 -0.5172
 7458TIP3    H243866   3.006   3.308  10.446  0.6926  0.5214 -0.2959
 7459TIP3   OH243867   6.639   4.219   3.576 -0.5618  0.3315 -0.6907
 7459TIP3    H143868   6.580   4.190   3.646  1.7062  1.4554  1.8551
 7459TIP3    H243869   6.587   4.282   3.526 -1.9269  0.3253  0.6450
 7460TIP3   OH243870   6.597   1.426   0.389 -0.4914 -0.3078  0.7849
 7460TIP3    H143871   6.656   1.500   0.379  0.6055 -0.8527  2.6935
 7460TIP3    H243872   6.527   1.459   0.446 -0.2359 -0.6048  1.2743
 7461TIP3   OH243873   6.005   5.565  16.416 -0.0731  0.4061  0.3588
 7461TIP3    H143874   6.073   5.502  16.440 -1.1154 -0.8464  0.1462
 7461TIP3    H243875   5.926   5.533  16.458 -0.6866  1.4571  0.0511
 7462TIP3   OH243876   5.866   0.346  13.849 -0.7040  0.2402 -0.0994
 7462TIP3    H143877   5.843   0.359  13.757 -2.0230 -0.3706  0.1278
 7462TIP3    H243878   5.787   0.309  13.889 -0.8626  2.3536  1.7392
 7463TIP3   OH243879   5.693   0.292  12.038 -0.2956 -0.2393 -0.0665
 7463TIP3    H143880   5.615   0.295  12.094  0.2134 -2.7014  0.8581
 7463TIP3    H243881   5.757   0.347  12.083 -0.7350 -0.1107  0.4124
 7464TIP3   OH243882   5.796   6.122  11.052  0.1341 -0.2833  0.0354
 7464TIP3    H143883   5.702   6.135  11.042  0.2099  0.0943 -0.1782
 7464TIP3    H243884   5.833   6.144  10.967  0.2669 -1.8806 -0.3457
 7465TIP3   OH243885   3.197   4.217  17.142  0.5571  0.0705 -1.0968
 7465TIP3    H143886   3.212   4.129  17.109 -0.1223 -0.7539  0.6432
 7465TIP3    H243887   3.161   4.265  17.068  1.2443 -1.0104 -2.1645
 7466TIP3   OH243888   5.950   3.026   3.437 -0.3733 -0.1601 -0.3334
 7466TIP3    H143889   6.018   3.073   3.485  0.0575 -0.7118 -0.3949
 7466TIP3    H243890   5.954   3.061   3.348 -1.3328  1.0345  0.0775
 7467TIP3   OH243891   4.828   5.515   2.317 -0.5264  0.3611 -0.0195
 7467TIP3    H143892   4.893   5.445   2.318  0.5238  1.3144 -0.5245
 7467TIP3    H243893   4.790   5.513   2.405  1.2975  0.8182  0.8153
 7468TIP3   OH243894   6.570   2.992  15.764  0.4833  0.1468  0.3465
 7468TIP3    H143895   6.553   3.071  15.713  0.4564 -1.0127 -1.5366
 7468TIP3    H243896   6.483   2.957  15.784  0.4898 -0.6981 -0.9918
 7469TIP3   OH243897   5.900   1.903  13.615 -0.0285  0.6424 -0.1852
 7469TIP3    H143898   5.896   1.865  13.528  0.2907  0.6909 -0.2226
 7469TIP3    H243899   5.993   1.924  13.628  0.2342 -1.0192  0.8845
 7470TIP3   OH243900   1.193   2.900   4.355 -0.2117 -0.2527 -0.0641
 7470TIP3    H143901   1.231   2.985   4.376 -0.6700  0.1239 -0.7012
 7470TIP3    H243902   1.103   2.920   4.330 -0.0394 -0.8095 -1.1881
 7471TIP3   OH243903   4.176   3.490  12.467 -0.7649 -0.1623 -0.3170
 7471TIP3    H143904   4.113   3.499  12.538 -1.6552 -0.5563 -1.0400
 7471TIP3    H243905   4.123   3.486  12.387  0.2627  1.6499 -1.1580
 7472TIP3   OH243906   6.507   6.405  12.775  0.4317 -0.6034  0.1804
 7472TIP3    H143907   6.515   6.500  12.773  0.7518 -0.6087  0.9007
 7472TIP3    H243908   6.414   6.388  12.787  0.3712 -0.3850  0.0240
 7473TIP3   OH243909   4.626   2.194   0.868  0.2305 -0.0034 -0.9588
 7473TIP3    H143910   4.629   2.247   0.948  1.0307 -2.8687  1.1124
 7473TIP3    H243911   4.540   2.210   0.831  0.2899  2.3353 -0.2509
 7474TIP3   OH243912   5.778   3.785   4.333 -0.2504 -0.2665  0.3226
 7474TIP3    H143913   5.767   3.781   4.428 -2.1147  0.6537  0.1908
 7474TIP3    H243914   5.801   3.877   4.315  2.2177 -0.8612  0.0116
 7475TIP3   OH243915   6.327   2.925  14.965 -0.1376 -0.3174  0.0924
 7475TIP3    H143916   6.269   2.943  15.039  0.5818 -0.0389  0.5978
 7475TIP3    H243917   6.299   2.839  14.934 -1.2029  0.0640 -0.0475
 7476TIP3   OH243918   6.494   4.285   4.895  0.9555  0.0684 -0.4242
 7476TIP3    H143919   6.440   4.298   4.817 -1.5681  1.2061  1.4175
 7476TIP3    H243920   6.544   4.366   4.904  0.6398  0.2599 -0.4022
 7477TIP3   OH243921   0.201   3.501   0.839  0.3002 -0.4266 -0.3425
 7477TIP3    H143922   0.278   3.488   0.784  0.9404  1.8868 -0.0663
 7477TIP3    H243923   0.129   3.464   0.788  1.3446 -1.3297 -1.2337
 7478TIP3   OH243924   3.655   4.288   6.016 -0.2203 -0.2032 -0.2322
 7478TIP3    H143925   3.649   4.363   6.075 -0.7258  0.0756 -0.6352
 7478TIP3    H243926   3.654   4.212   6.074  1.0467  0.1031  0.2319
 7479TIP3   OH243927   3.166   3.148  16.713 -0.3557 -0.6100  0.1790
 7479TIP3    H143928   3.226   3.086  16.754  1.0736  0.8008  0.3503
 7479TIP3    H243929   3.156   3.218  16.778  0.0919  0.5354 -0.9295
 7480TIP3   OH243930   2.657   2.893   4.468  0.3279 -0.1694 -0.5522
 7480TIP3    H143931   2.729   2.955   4.457 -0.3656  0.4168 -2.1982
 7480TIP3    H243932   2.692   2.810   4.435  1.0727 -0.5459  1.1170
 7481TIP3   OH243933   3.542   2.336   0.335 -0.1266 -0.5085  0.2818
 7481TIP3    H143934   3.562   2.287   0.255  0.4949 -1.3108  0.9097
 7481TIP3    H243935   3.535   2.269   0.403 -3.5645 -0.1732  0.4332
 7482TIP3   OH243936   4.163   0.970   3.855 -0.2463  0.2190  0.0089
 7482TIP3    H143937   4.206   1.055   3.847  0.7282 -0.2895 -0.3336
 7482TIP3    H243938   4.160   0.936   3.766  1.4681 -1.0755  0.3765
 7483TIP3   OH243939   4.777   3.276  17.291  0.4736  0.2141  0.0536
 7483TIP3    H143940   4.738   3.364  17.287 -1.7716 -0.7595 -1.7629
 7483TIP3    H243941   4.846   3.278  17.225 -1.2924 -0.0524 -1.9128
 7484TIP3   OH243942   5.027   4.141  15.022 -0.1846 -0.1594  0.6553
 7484TIP3    H143943   4.977   4.200  14.966 -0.3123  1.4645  2.4096
 7484TIP3    H243944   4.969   4.122  15.096  1.8198  2.1802  3.0293
 7485TIP3   OH243945   1.072   0.862   0.983 -0.0881 -0.3790 -0.0256
 7485TIP3    H143946   0.986   0.824   1.000 -0.2973  0.6170  1.3663
 7485TIP3    H243947   1.102   0.820   0.902 -0.7953 -2.5820  0.7736
 7486TIP3   OH243948   0.746   0.878   4.651  0.2507 -0.7996  0.4430
 7486TIP3    H143949   0.666   0.829   4.673  1.0140 -2.3325 -0.0495
 7486TIP3    H243950   0.791   0.823   4.587  1.7845 -0.0559  0.8355
 7487TIP3   OH243951   4.299   1.416   4.373  0.0721 -0.1721  0.3946
 7487TIP3    H143952   4.278   1.323   4.382 -0.6410 -0.0503  0.1033
 7487TIP3    H243953   4.266   1.457   4.453  0.5409 -0.1928  0.6006
 7488TIP3   OH243954   0.484   3.125  12.334 -0.0771  0.5155 -0.1630
 7488TIP3    H143955   0.455   3.128  12.243  3.2271  1.2592 -1.3348
 7488TIP3    H243956   0.512   3.035  12.348 -2.4649 -0.1404  0.8833
 7489TIP3   OH243957   2.792   6.215  15.712  0.5856 -0.0463 -0.1437
 7489TIP3    H143958   2.767   6.286  15.653 -1.0890  1.2235  1.9338
 7489TIP3    H243959   2.709   6.180  15.744  1.4337 -1.0761  1.0288
 7490TIP3   OH243960   0.733   0.025   6.205 -0.3805  0.1736  0.6785
 7490TIP3    H143961   0.805   0.011   6.144 -0.8935 -0.9963  0.3118
 7490TIP3    H243962   0.738   0.118   6.227 -1.5628  1.2484 -2.9621
 7491TIP3   OH243963   5.136   6.798   0.834 -0.0735  0.1634 -0.3476
 7491TIP3    H143964   5.176   6.870   0.784 -0.5399  1.2893  0.8239
 7491TIP3    H243965   5.155   6.720   0.783  1.7268  0.9335 -0.9492
 7492TIP3   OH243966   0.559   4.136  13.426  0.5290  0.1395  0.4408
 7492TIP3    H143967   0.608   4.085  13.361  0.3992  1.1107 -0.4427
 7492TIP3    H243968   0.468   4.130  13.398  0.6358  1.7696 -0.3433
 7493TIP3   OH243969   4.208   5.464   0.716  0.0349  0.7908 -0.3899
 7493TIP3    H143970   4.151   5.387   0.714  0.0104  0.7542  0.8881
 7493TIP3    H243971   4.200   5.502   0.629 -0.0191 -0.6055 -1.0170
 7494TIP3   OH243972   5.393   1.427   3.308 -0.2867  0.0279  0.2438
 7494TIP3    H143973   5.313   1.416   3.359 -0.2605 -0.8835  0.1168
 7494TIP3    H243974   5.398   1.347   3.255  0.8658 -0.0831  0.4844
 7495TIP3   OH243975   5.996   1.523   4.882 -0.3698  0.3471  0.0288
 7495TIP3    H143976   5.938   1.487   4.950 -0.1492  0.0269  0.0488
 7495TIP3    H243977   6.028   1.446   4.835  0.1130  0.5158  0.0757
 7496TIP3   OH243978   3.422   3.379  16.210  0.8032  0.2349  0.7400
 7496TIP3    H143979   3.441   3.390  16.117  0.2394  2.0707  0.8095
 7496TIP3    H243980   3.508   3.362  16.249  1.0027 -0.9171 -0.1321
 7497TIP3   OH243981   2.752   0.536  10.728 -0.1994  0.2265  0.8881
 7497TIP3    H143982   2.807   0.505  10.656 -0.4929 -0.0441  0.7807
 7497TIP3    H243983   2.665   0.546  10.689 -0.6123 -0.9636  1.4520
 7498TIP3   OH243984   3.512   5.920  15.117  0.1805 -0.1263  0.2821
 7498TIP3    H143985   3.588   5.969  15.085  0.3457 -0.5768 -0.0244
 7498TIP3    H243986   3.541   5.829  15.119 -0.4107 -0.3289 -0.0320
 7499TIP3   OH243987   3.893   2.360  10.783  0.5372 -0.2574 -0.1144
 7499TIP3    H143988   3.939   2.278  10.800  1.1161  0.1465  0.3261
 7499TIP3    H243989   3.861   2.352  10.693  0.2017 -1.1396  0.0807
 7500TIP3   OH243990   0.975   1.010   5.592 -0.6324 -0.7391 -0.1519
 7500TIP3    H143991   1.019   1.089   5.622 -1.5807 -0.2848  0.0958
 7500TIP3    H243992   0.924   1.038   5.516  0.1673 -1.4430 -0.9784
 7501TIP3   OH243993   2.373   0.649  12.362  1.2013  0.2707 -0.1171
 7501TIP3    H143994   2.292   0.650  12.311  0.6370  2.3863  0.7420
 7501TIP3    H243995   2.437   0.690  12.304  1.2708  0.0988 -0.1653
 7502TIP3   OH243996   4.838   4.609  15.537  0.0580 -0.4435  0.1981
 7502TIP3    H143997   4.823   4.515  15.523  0.3950 -0.6633  1.2720
 7502TIP3    H243998   4.916   4.614  15.592  0.8067  0.5277 -0.9016
 7503TIP3   OH243999   1.460   3.730   0.471 -0.1182  0.0042  0.3346
 7503TIP3    H144000   1.441   3.692   0.557 -0.1583 -1.0071 -0.1020
 7503TIP3    H244001   1.555   3.738   0.469  0.0053 -1.3429 -0.0655
 7504TIP3   OH244002   2.805   0.765  16.841  0.9649 -0.0429 -0.4513
 7504TIP3    H144003   2.724   0.744  16.795  0.0907 -1.2938  1.5207
 7504TIP3    H244004   2.860   0.688  16.828  0.4827 -0.6732  0.9696
 7505TIP3   OH244005   4.467   6.031   1.612  0.6302 -0.4668  0.1589
 7505TIP3    H144006   4.427   5.956   1.567 -0.3717  0.3915 -0.4537
 7505TIP3    H244007   4.538   6.058   1.554  0.9550 -0.8999  0.3505
 7506TIP3   OH244008   6.568   1.364  13.410 -0.9315  0.0077  0.2687
 7506TIP3    H144009   6.624   1.387  13.336 -2.2428  2.4822 -0.0418
 7506TIP3    H244010   6.547   1.272  13.396  0.4217 -0.1070 -1.3450
 7507TIP3   OH244011   0.276   0.545   3.181  0.3357 -0.5137  0.8197
 7507TIP3    H144012   0.234   0.503   3.106 -3.2140 -1.3182  2.9968
 7507TIP3    H244013   0.254   0.488   3.255  1.6008  1.4560  2.8373
 7508TIP3   OH244014   5.054   5.995   4.704  0.2435  0.7925 -0.0640
 7508TIP3    H144015   5.070   5.901   4.712  1.4669  0.8588 -1.3320
 7508TIP3    H244016   5.115   6.035   4.766 -0.5656  0.7519  0.7754
 7509TIP3   OH244017   4.573   2.509   6.149 -0.0151 -0.0989 -0.2164
 7509TIP3    H144018   4.580   2.594   6.193 -0.0514 -0.0273 -0.3495
 7509TIP3    H244019   4.660   2.470   6.160  0.7965  0.9831 -2.2462
 7510TIP3   OH244020   1.684   4.416   2.645  0.2610 -0.2284 -0.6081
 7510TIP3    H144021   1.751   4.453   2.588  0.1430  0.1170 -0.5275
 7510TIP3    H244022   1.648   4.492   2.692  0.6770 -0.5596  0.2632
 7511TIP3   OH244023   0.498   1.029  10.711 -1.2587 -0.5481  0.0686
 7511TIP3    H144024   0.468   0.996  10.627 -2.0037 -1.5589  0.7069
 7511TIP3    H244025   0.581   0.983  10.726 -0.0465  1.1644 -1.0242
 7512TIP3   OH244026   4.123   4.784  15.796  0.2666  0.2013 -0.0122
 7512TIP3    H144027   4.034   4.779  15.761 -0.3530  2.0309  1.1662
 7512TIP3    H244028   4.126   4.718  15.864 -0.4071  0.5419  0.3532
 7513TIP3   OH244029   5.535   1.644   3.572  0.3539 -0.2470  0.3019
 7513TIP3    H144030   5.492   1.687   3.498  3.4816 -0.5124 -1.8382
 7513TIP3    H244031   5.564   1.716   3.629  3.1036  0.5021 -1.8450
 7514TIP3   OH244032   1.368   0.426  16.611  0.3733  0.0870  0.6153
 7514TIP3    H144033   1.322   0.397  16.690 -0.5373 -0.1809  0.0063
 7514TIP3    H244034   1.318   0.387  16.539  1.0724  0.4878 -0.0992
 7515TIP3   OH244035   0.523   0.348   0.724 -0.3476 -0.0664 -0.3131
 7515TIP3    H144036   0.438   0.364   0.764  1.3213  0.6265  3.4353
 7515TIP3    H244037   0.528   0.253   0.716 -1.2623 -0.1489 -0.0166
 7516TIP3   OH244038   4.559   0.086  11.343 -0.3660 -1.0200  0.1550
 7516TIP3    H144039   4.509   0.094  11.424 -2.1007 -0.5128 -0.9132
 7516TIP3    H244040   4.512   0.019  11.293 -0.9217  0.5560 -1.5078
 7517TIP3   OH244041   1.966   2.007   1.098  0.0402 -0.1850 -0.4165
 7517TIP3    H144042   2.003   2.085   1.056 -0.3598 -0.0452 -0.5094
 7517TIP3    H244043   1.991   2.015   1.190 -2.0273  1.2836  0.0683
 7518TIP3   OH244044   2.641   1.366  12.926  0.6524 -0.2808  0.2655
 7518TIP3    H144045   2.554   1.354  12.965 -0.1912  2.2058 -0.6209
 7518TIP3    H244046   2.681   1.435  12.978  1.2272  0.0650 -0.6129
 7519TIP3   OH244047   1.415   2.867  12.886  0.0620  0.2225 -0.2182
 7519TIP3    H144048   1.337   2.817  12.860 -0.1032 -0.3329  1.2653
 7519TIP3    H244049   1.428   2.930  12.815 -1.8019  0.3897 -0.4579
 7520TIP3   OH244050   6.201   6.451   5.934 -0.2761  0.1558  0.6910
 7520TIP3    H144051   6.161   6.376   5.979 -0.2897  0.4600  1.1942
 7520TIP3    H244052   6.232   6.507   6.005  0.2130  0.3699  0.3077
 7521TIP3   OH244053   4.355   6.238  16.538  0.4578  0.0456 -0.1811
 7521TIP3    H144054   4.295   6.163  16.532 -0.0123  0.2042  1.8843
 7521TIP3    H244055   4.299   6.313  16.553  1.0881  0.4306  0.2898
 7522TIP3   OH244056   4.469   4.036   3.212 -0.1471  0.0423 -0.5751
 7522TIP3    H144057   4.389   4.006   3.169 -0.2516 -2.1133  0.9537
 7522TIP3    H244058   4.447   4.037   3.305  1.6662 -1.0180 -0.0843
 7523TIP3   OH244059   2.475   6.731   4.466 -0.5378  0.0076  0.1692
 7523TIP3    H144060   2.455   6.720   4.559  0.0454 -0.3959  0.2550
 7523TIP3    H244061   2.393   6.759   4.426 -0.3249  2.2692  1.1553
 7524TIP3   OH244062   5.329   5.295   0.363  0.5302  0.5367  0.3615
 7524TIP3    H144063   5.270   5.225   0.336 -0.6829  1.0318  1.6011
 7524TIP3    H244064   5.379   5.257   0.435 -0.4071  1.0095  1.3033
 7525TIP3   OH244065   5.454   6.765  15.545 -0.4556 -0.5657  0.3234
 7525TIP3    H144066   5.536   6.775  15.594  1.0968 -1.0267 -2.0130
 7525TIP3    H244067   5.435   6.671  15.548  1.6294 -1.2324 -2.7339
 7526TIP3   OH244068   0.589   4.986  15.523  0.3190 -0.1142  0.0743
 7526TIP3    H144069   0.676   4.955  15.499 -0.1550 -2.1821  0.8235
 7526TIP3    H244070   0.550   4.913  15.572 -1.5740  1.0276  0.3740
 7527TIP3   OH244071   5.904   3.373  10.581 -0.1044 -0.2316  0.1342
 7527TIP3    H144072   5.995   3.374  10.611 -0.1027  2.9391  0.2981
 7527TIP3    H244073   5.911   3.363  10.486  0.5564  1.4503 -0.0303
 7528TIP3   OH244074   5.466   0.178  14.756 -0.9051  0.0915  0.1079
 7528TIP3    H144075   5.430   0.232  14.686 -2.1011  1.4078  1.6679
 7528TIP3    H244076   5.552   0.151  14.724 -1.2001  1.0949 -1.6294
 7529TIP3   OH244077   3.775   3.757   4.283  0.6971 -0.2885  0.3664
 7529TIP3    H144078   3.759   3.693   4.214  0.5675 -0.7664  0.8411
 7529TIP3    H244079   3.692   3.803   4.293  0.6289 -0.4252  0.4198
 7530TIP3   OH244080   3.415   6.482   1.582  0.2656  0.4530 -0.1491
 7530TIP3    H144081   3.419   6.416   1.651 -0.6274 -0.5082 -0.9573
 7530TIP3    H244082   3.493   6.535   1.594 -0.8271  1.6068  2.8061
 7531TIP3   OH244083   1.849   5.189  12.359  0.0372 -0.1628  0.3006
 7531TIP3    H144084   1.817   5.103  12.333 -0.7483 -1.0460  3.6702
 7531TIP3    H244085   1.843   5.242  12.279 -0.7949 -2.8133 -1.5422
 7532TIP3   OH244086   4.456   0.835  16.865 -0.3939  0.4328  0.4371
 7532TIP3    H144087   4.407   0.882  16.932 -0.3519 -0.9617  1.4837
 7532TIP3    H244088   4.391   0.779  16.822 -0.1627  0.3175  0.2317
 7533TIP3   OH244089   0.309   0.088   1.557  0.6671 -0.1062  0.3497
 7533TIP3    H144090   0.252   0.164   1.572  0.6420  0.3718 -1.8351
 7533TIP3    H244091   0.326   0.089   1.463  2.6131 -1.4622  0.6300
 7534TIP3   OH244092   1.579   1.803  13.940  0.0315 -0.0993 -0.1935
 7534TIP3    H144093   1.525   1.748  13.883 -0.4821 -2.3712  2.2752
 7534TIP3    H244094   1.520   1.874  13.967 -1.0413 -1.2192  0.5698
 7535TIP3   OH244095   5.640   2.746   5.538  0.3137 -0.3839  0.4793
 7535TIP3    H144096   5.733   2.768   5.526  0.5928  0.9327  3.9095
 7535TIP3    H244097   5.640   2.656   5.571  0.1585 -1.0619 -1.2662
 7536TIP3   OH244098   4.867   6.755  17.023 -0.0810  0.2227 -0.1897
 7536TIP3    H144099   4.808   6.815  16.977 -0.6153 -0.2322 -0.1080
 7536TIP3    H244100   4.931   6.812  17.065  0.5929  0.6459 -1.7117
 7537TIP3   OH244101   1.117   1.123  12.300 -0.0750  0.5994 -0.4008
 7537TIP3    H144102   1.077   1.082  12.223 -1.9235  0.0395  0.7771
 7537TIP3    H244103   1.201   1.079  12.310  0.2157  0.6948 -2.0745
 7538TIP3   OH244104   5.288   3.996  16.473  0.4117  0.0241 -0.0367
 7538TIP3    H144105   5.206   4.016  16.428  0.6136 -0.1337 -0.4858
 7538TIP3    H244106   5.333   4.081  16.478  1.1756 -0.2211 -1.7577
 7539TIP3   OH244107   3.325   1.056  15.183  0.4897 -0.8478 -0.6641
 7539TIP3    H144108   3.246   1.109  15.173 -0.7847 -2.2386  1.3537
 7539TIP3    H244109   3.321   0.993  15.111  1.4154  0.9369 -2.3809
 7540TIP3   OH244110   2.799   4.154   0.738  0.1064  0.2390  0.2236
 7540TIP3    H144111   2.892   4.153   0.760 -0.0862 -0.0408  1.0492
 7540TIP3    H244112   2.783   4.069   0.697  0.4965  0.8169 -1.1825
 7541TIP3   OH244113   6.453   1.199  12.183 -0.4282  0.4915  0.2564
 7541TIP3    H144114   6.419   1.217  12.095  1.8562  0.8073 -0.6371
 7541TIP3    H244115   6.456   1.104  12.188 -1.0927  0.4635  0.2254
 7542TIP3   OH244116   3.425   1.867   0.630 -0.3832  0.0068  0.0842
 7542TIP3    H144117   3.330   1.873   0.636 -0.3680 -0.1290  0.4622
 7542TIP3    H244118   3.455   1.858   0.720 -0.0818 -0.9332 -0.0942
 7543TIP3   OH244119   6.418   0.585  10.414 -0.5222 -0.1902  0.1682
 7543TIP3    H144120   6.377   0.541  10.488 -2.2120 -0.9094 -1.1281
 7543TIP3    H244121   6.429   0.676  10.442  1.3661 -0.9563  2.2419
 7544TIP3   OH244122   0.719   3.278  14.996 -0.1623 -0.0653 -0.5847
 7544TIP3    H144123   0.784   3.248  14.933  0.5677  0.7021 -0.2119
 7544TIP3    H244124   0.765   3.341  15.051 -0.7250 -0.8494  0.8476
 7545TIP3   OH244125   1.548   1.469  16.844  0.0189  0.4139  0.0928
 7545TIP3    H144126   1.490   1.398  16.873  0.5889  0.8750  2.5711
 7545TIP3    H244127   1.493   1.547  16.843  0.1924  0.5459  0.7553
 7546TIP3   OH244128   3.061   0.967   0.932  0.4690 -0.0209 -0.3700
 7546TIP3    H144129   2.971   0.959   0.966  0.7252 -0.0643  0.3147
 7546TIP3    H244130   3.072   0.890   0.876 -0.3274  0.6066 -1.4299
 7547TIP3   OH244131   5.043   0.137  11.771  0.4739  0.4497  0.1704
 7547TIP3    H144132   5.089   0.215  11.742 -0.4372  1.5436  1.5432
 7547TIP3    H244133   5.091   0.108  11.849  0.4158  0.0197  0.0496
 7548TIP3   OH244134   4.347   3.997   4.676  0.1350  0.3003 -0.5399
 7548TIP3    H144135   4.390   4.082   4.671 -1.0155  0.9387 -0.0860
 7548TIP3    H244136   4.381   3.947   4.602  1.7137  0.7280 -0.1247
 7549TIP3   OH244137   1.275   0.314  13.943  0.1655 -0.1221 -0.1883
 7549TIP3    H144138   1.190   0.274  13.926  0.0592 -0.9441  1.9374
 7549TIP3    H244139   1.337   0.241  13.939  0.5342  0.1874 -0.1729
 7550TIP3   OH244140   2.763   3.877   0.644  0.4684  0.6620  0.4498
 7550TIP3    H144141   2.686   3.881   0.586  0.2029  0.6532  0.7961
 7550TIP3    H244142   2.799   3.790   0.630  1.3402  1.1943 -0.8734
 7551TIP3   OH244143   2.689   1.920  13.069 -0.6699  0.2375 -0.5194
 7551TIP3    H144144   2.721   1.927  13.159 -2.1311 -0.3994  0.0766
 7551TIP3    H244145   2.649   1.834  13.065  0.8799 -0.4716 -2.3138
 7552TIP3   OH244146   0.015   1.286   0.177 -0.0304  0.1889  0.5771
 7552TIP3    H144147   0.053   1.351   0.235 -0.0387 -0.3232  1.1591
 7552TIP3    H244148  -0.045   1.236   0.232 -0.6100  0.1814 -0.0424
 7553TIP3   OH244149   2.648   3.732  14.235 -0.1787  0.6508  0.0346
 7553TIP3    H144150   2.651   3.728  14.139  0.4037 -1.1112  0.0859
 7553TIP3    H244151   2.576   3.673  14.259  0.6241 -0.0947  0.6977
 7554TIP3   OH244152   5.447   6.038   1.126  0.4449  0.1298  0.3295
 7554TIP3    H144153   5.541   6.045   1.109  0.0008 -0.7376 -3.4195
 7554TIP3    H244154   5.411   6.121   1.097 -0.0989 -0.2243 -0.0336
 7555TIP3   OH244155   5.079   6.172   6.170  0.0769 -0.4399 -0.7273
 7555TIP3    H144156   5.057   6.094   6.119 -2.7080  0.5344 -1.1887
 7555TIP3    H244157   5.069   6.145   6.261  0.7297 -1.0304 -0.8228
 7556TIP3   OH244158   5.661   2.961  16.841  0.5565 -0.4718  0.1344
 7556TIP3    H144159   5.755   2.950  16.854  0.7125  1.7171  1.3563
 7556TIP3    H244160   5.648   2.951  16.747  1.9059 -1.3512  0.0092
 7557TIP3   OH244161   3.493   3.570   3.855  0.4434 -0.6377 -0.3045
 7557TIP3    H144162   3.568   3.626   3.878  0.1394 -0.2754 -0.1912
 7557TIP3    H244163   3.470   3.597   3.766  0.7887 -1.1270 -0.5438
 7558TIP3   OH244164   6.418   4.841  17.156  0.3827  0.3033  0.0207
 7558TIP3    H144165   6.493   4.825  17.213 -0.0087  0.9654  0.7384
 7558TIP3    H244166   6.456   4.860  17.071  0.9706 -0.8154  0.0226
 7559TIP3   OH244167   6.475   1.857   1.316  0.6634  0.0138 -0.0757
 7559TIP3    H144168   6.490   1.949   1.338  0.4615 -0.2431  1.2517
 7559TIP3    H244169   6.469   1.814   1.401  1.2115 -1.3070 -0.6871
 7560TIP3   OH244170   4.546   4.265  14.517  0.7936 -0.2714  0.2791
 7560TIP3    H144171   4.601   4.195  14.482  0.3990  0.5972 -2.2748
 7560TIP3    H244172   4.596   4.345  14.502 -0.5548  0.4002 -0.8571
 7561TIP3   OH244173   0.833   5.517  13.331 -0.3104  0.3544  0.0727
 7561TIP3    H144174   0.801   5.604  13.354 -0.6572  0.4968 -0.8829
 7561TIP3    H244175   0.926   5.530  13.311 -0.5766  0.7158 -1.0272
 7562TIP3   OH244176   3.853   0.776  11.351  0.3211  0.2612 -0.1476
 7562TIP3    H144177   3.791   0.760  11.423  1.3144  1.7121  1.0919
 7562TIP3    H244178   3.902   0.854  11.378  0.0033  1.5531 -2.9022
 7563TIP3   OH244179   1.799   2.221   6.343  0.0199  0.6705  0.3396
 7563TIP3    H144180   1.818   2.203   6.436  1.9886 -1.1657 -0.3457
 7563TIP3    H244181   1.884   2.215   6.300 -1.0304  0.3111 -1.7776
 7564TIP3   OH244182   6.102   6.327  14.408  0.3511 -0.0210 -0.0370
 7564TIP3    H144183   6.101   6.354  14.499 -2.9581  1.0977 -0.2768
 7564TIP3    H244184   6.074   6.236  14.409 -0.8960  0.3440  0.0464
 7565TIP3   OH244185   2.681   1.453   0.895  0.3930 -0.4673  0.0667
 7565TIP3    H144186   2.600   1.452   0.946  0.5899 -1.1144  0.3762
 7565TIP3    H244187   2.713   1.363   0.898 -0.1298 -0.7820 -2.1020
 7566TIP3   OH244188   4.482   0.753  14.434 -0.1954  0.0231  0.1537
 7566TIP3    H144189   4.446   0.677  14.480 -0.0517  0.6323  1.3159
 7566TIP3    H244190   4.575   0.734  14.425 -0.2648 -0.2033 -0.1257
 7567TIP3   OH244191   1.460   0.632   0.034  0.0214  0.7728  0.9075
 7567TIP3    H144192   1.433   0.678   0.114 -0.1758  3.9694 -0.8554
 7567TIP3    H244193   1.382   0.633  -0.021  0.0210 -1.8023  0.7335
 7568TIP3   OH244194   2.253   0.924  13.405 -0.3540  0.1006 -0.2686
 7568TIP3    H144195   2.244   1.017  13.383 -1.3887 -0.0658 -0.5923
 7568TIP3    H244196   2.167   0.899  13.438  0.5924 -0.1405  2.2428
 7569TIP3   OH244197   1.571   3.171  12.984  0.7519  0.2216 -0.4045
 7569TIP3    H144198   1.575   3.165  12.888  2.1352  0.9495 -0.4196
 7569TIP3    H244199   1.481   3.196  13.002  0.5062  0.2365 -1.5334
 7570TIP3   OH244200   5.467   6.504   5.517 -0.4455  0.1080  0.0378
 7570TIP3    H144201   5.378   6.470   5.517 -0.2733 -0.3616 -0.7778
 7570TIP3    H244202   5.504   6.476   5.434  0.1529  1.1405 -0.0618
 7571TIP3   OH244203   4.203   0.111  12.400 -0.1931  0.1182  0.3792
 7571TIP3    H144204   4.123   0.139  12.357  1.2148  1.8053 -1.3253
 7571TIP3    H244205   4.230   0.186  12.452  0.7106 -0.0837  0.2283
 7572TIP3   OH244206   2.346   1.893  16.147 -0.6322 -0.5297 -0.6413
 7572TIP3    H144207   2.350   1.798  16.146  1.0284 -0.4781 -0.9018
 7572TIP3    H244208   2.429   1.921  16.184 -1.8534  0.8205  1.3068
 7573TIP3   OH244209   0.073   5.882  17.135 -0.1249 -0.5574 -0.1182
 7573TIP3    H144210   0.094   5.876  17.228 -1.7088 -1.7082  0.1881
 7573TIP3    H244211   0.097   5.796  17.099  0.6389 -0.0664 -0.8375
 7574TIP3   OH244212   4.263   3.752  13.196  0.1324 -0.1527  0.0791
 7574TIP3    H144213   4.312   3.672  13.181 -1.0687 -0.7455 -0.8632
 7574TIP3    H244214   4.320   3.822  13.164  0.2961 -0.8446 -1.2095
 7575TIP3   OH244215   2.333   4.870  16.241  0.7907 -0.7003  0.3148
 7575TIP3    H144216   2.407   4.846  16.297  0.6807  0.7266  1.1278
 7575TIP3    H244217   2.261   4.813  16.269  1.7788 -2.7891 -1.1418
 7576TIP3   OH244218   0.378   4.439  12.365  0.2548 -0.9425 -0.2037
 7576TIP3    H144219   0.357   4.434  12.458 -0.2724 -0.0022 -0.2649
 7576TIP3    H244220   0.297   4.416  12.320  1.0129 -3.3596 -0.4624
 7577TIP3   OH244221   4.282   2.475   4.379 -0.1002  0.4668 -0.4127
 7577TIP3    H144222   4.246   2.520   4.456  0.4191  0.7683 -0.3444
 7577TIP3    H244223   4.258   2.383   4.393  0.7000  0.3793  0.5404
 7578TIP3   OH244224   5.990   0.053  14.073 -0.3159  0.3326 -0.1441
 7578TIP3    H144225   5.908   0.065  14.121 -0.9259  1.1975 -1.3403
 7578TIP3    H244226   6.046   0.124  14.104 -0.4861  0.5179 -0.2571
 7579TIP3   OH244227   3.564   4.163   3.471  0.4036  0.3149  0.0797
 7579TIP3    H144228   3.629   4.190   3.406  2.4407 -1.6091  1.2019
 7579TIP3    H244229   3.583   4.216   3.548  0.9318 -0.4993  0.5289
 7580TIP3   OH244230   1.555   1.963  15.293 -0.6622 -0.0589 -0.1415
 7580TIP3    H144231   1.612   1.893  15.324 -1.1846 -0.4603 -0.0785
 7580TIP3    H244232   1.615   2.029  15.258 -0.1347 -0.2215  0.4416
 7581TIP3   OH244233   2.124   1.643   4.673  0.0215  0.6053 -0.3372
 7581TIP3    H144234   2.057   1.697   4.714  0.6231  1.1286 -0.0324
 7581TIP3    H244235   2.125   1.563   4.726  1.6264  1.7415  1.4892
 7582TIP3   OH244236   5.300   3.782  15.321 -0.3901  0.1537 -0.2005
 7582TIP3    H144237   5.228   3.740  15.370 -1.6581  0.0958 -2.0140
 7582TIP3    H244238   5.284   3.757  15.230  2.1034 -0.0467 -0.6485
 7583TIP3   OH244239   1.624   0.679  14.488 -0.0048 -0.2083  0.2945
 7583TIP3    H144240   1.585   0.731  14.558  0.4893 -0.1249  0.5123
 7583TIP3    H244241   1.630   0.740  14.414 -2.0866 -0.7403 -0.3997
 7584TIP3   OH244242   2.158   0.064   4.929  0.3438 -0.0604  0.6286
 7584TIP3    H144243   2.183  -0.020   4.891  0.6353  0.3624 -0.1280
 7584TIP3    H244244   2.087   0.043   4.990 -3.0728 -0.3444 -3.0403
 7585TIP3   OH244245   5.414   4.209   0.520 -0.0501  0.4585 -0.1880
 7585TIP3    H144246   5.468   4.269   0.469  2.5157 -1.2483  0.3595
 7585TIP3    H244247   5.398   4.135   0.461 -0.1963  0.0979  0.3021
 7586TIP3   OH244248   2.100   4.141  15.520  0.8795  0.1850 -0.0723
 7586TIP3    H144249   2.115   4.095  15.603  0.9106  1.3331  0.5841
 7586TIP3    H244250   2.121   4.077  15.453 -1.2527 -1.5071  0.7581
 7587TIP3   OH244251   1.975   3.400  13.791 -0.3267  0.2099  0.4956
 7587TIP3    H144252   1.977   3.495  13.792 -0.7026  0.3189 -2.2793
 7587TIP3    H244253   1.883   3.378  13.804 -0.4494  0.3058 -0.1586
 7588TIP3   OH244254   1.638   2.449   5.822 -0.2306 -0.1779  0.3125
 7588TIP3    H144255   1.640   2.363   5.864 -0.8763  1.1243  3.2974
 7588TIP3    H244256   1.729   2.466   5.798  0.1139 -1.1729  0.8728
 7589TIP3   OH244257   0.770   5.998   2.778  0.0090 -0.4008  0.0255
 7589TIP3    H144258   0.718   5.962   2.850 -1.6220 -0.7975 -1.2919
 7589TIP3    H244259   0.838   5.932   2.762  0.8463  0.0157  1.6185
 7590TIP3   OH244260   0.291   0.825   3.175 -0.0788 -0.0036 -0.4878
 7590TIP3    H144261   0.282   0.867   3.261 -0.0222  0.0681 -0.5175
 7590TIP3    H244262   0.302   0.732   3.196 -0.6847 -0.0701 -0.4420
 7591TIP3   OH244263   2.850   2.741  13.928  0.3973 -0.1578 -0.1624
 7591TIP3    H144264   2.913   2.765  13.996  1.9109  0.0998 -1.5757
 7591TIP3    H244265   2.776   2.705  13.975  1.1213  0.5972  1.6472
 7592TIP3   OH244266   4.707   1.123   5.190  0.2053  0.4706  0.1356
 7592TIP3    H144267   4.654   1.102   5.113  2.2190  0.4971 -1.3411
 7592TIP3    H244268   4.692   1.050   5.250 -1.4649  0.4834 -0.2041
 7593TIP3   OH244269   5.519   5.801  11.586  0.6451  0.4708  0.3164
 7593TIP3    H144270   5.573   5.865  11.633  2.1258 -0.6331  0.1939
 7593TIP3    H244271   5.568   5.719  11.593 -0.3906 -0.2933 -0.9501
 7594TIP3   OH244272   3.716   4.883  13.557 -0.0499 -0.3594  0.0081
 7594TIP3    H144273   3.674   4.883  13.644  2.1316 -1.2965  1.1418
 7594TIP3    H244274   3.768   4.963  13.555 -1.5404  0.6266 -1.2498
 7595TIP3   OH244275   5.090   5.254   2.854 -0.2472  0.1555  0.1200
 7595TIP3    H144276   5.046   5.195   2.916  0.7916  0.0673  0.8026
 7595TIP3    H244277   5.054   5.340   2.873 -0.0978  0.0933  0.7102
 7596TIP3   OH244278   2.552   3.615  13.690 -0.0336 -0.1509  0.3684
 7596TIP3    H144279   2.558   3.521  13.674 -0.8124 -0.0324 -0.6681
 7596TIP3    H244280   2.609   3.654  13.623  0.8654  0.0948  1.2500
 7597TIP3   OH244281   1.073   6.271  15.054 -0.6648  0.5307 -0.1649
 7597TIP3    H144282   0.997   6.213  15.053 -1.8463  2.0139 -0.7673
 7597TIP3    H244283   1.111   6.259  15.141 -0.4185 -1.6565 -0.5171
 7598TIP3   OH244284   2.124   0.281  16.286 -0.4117  0.7694  0.5748
 7598TIP3    H144285   2.138   0.277  16.381  2.0200 -1.6740  0.2365
 7598TIP3    H244286   2.078   0.199  16.266  1.1953  0.1210 -0.5903
 7599TIP3   OH244287   0.267   4.066  10.985  0.1907  0.0310  0.3450
 7599TIP3    H144288   0.219   4.051  10.904  1.3354 -0.1821 -0.3137
 7599TIP3    H244289   0.333   3.997  10.987 -1.7294 -1.9725  3.0368
 7600TIP3   OH244290   4.304   3.937  11.127  0.3610 -0.2517 -0.1918
 7600TIP3    H144291   4.324   3.939  11.033 -0.2823  1.1064 -0.3217
 7600TIP3    H244292   4.228   3.995  11.136  0.1767 -0.6859  1.1151
 7601TIP3   OH244293   1.192   5.376  12.474 -0.3299 -0.7705  0.5821
 7601TIP3    H144294   1.148   5.394  12.557 -1.0908 -3.1147  0.7778
 7601TIP3    H244295   1.209   5.282  12.477  3.1487 -0.2775 -0.2883
 7602TIP3   OH244296   2.782   1.905  11.226 -0.2411 -0.7299 -0.2335
 7602TIP3    H144297   2.708   1.962  11.244 -0.1461 -0.1753 -1.4640
 7602TIP3    H244298   2.775   1.886  11.132  0.2490 -2.0043 -0.0326
 7603TIP3   OH244299   5.574   5.751  16.904 -0.1260  0.0909  0.6067
 7603TIP3    H144300   5.648   5.691  16.892 -1.4278 -1.7812  1.5020
 7603TIP3    H244301   5.610   5.823  16.955  1.6761  0.5062 -1.1509
 7604TIP3   OH244302   6.275   1.613  13.945 -0.3094  0.1908 -0.0077
 7604TIP3    H144303   6.237   1.548  14.004  1.4143 -0.6500  0.2672
 7604TIP3    H244304   6.306   1.562  13.870  1.2098  0.6271  0.2835
 7605TIP3   OH244305   4.295   6.084   5.091  0.0042 -0.1996 -0.3335
 7605TIP3    H144306   4.289   6.090   4.995  0.3553 -0.7579 -0.3940
 7605TIP3    H244307   4.284   5.991   5.109 -0.5306 -0.0326  0.2072
 7606TIP3   OH244308   6.085   5.827   2.658 -0.3340 -0.0317  0.3951
 7606TIP3    H144309   6.017   5.806   2.721 -0.5404  0.7233  0.4265
 7606TIP3    H244310   6.164   5.840   2.711 -0.9017  2.5057  0.7434
 7607TIP3   OH244311   4.675   0.302   1.550 -0.0143 -0.6366  0.2075
 7607TIP3    H144312   4.635   0.379   1.589 -0.8033 -1.8383  1.9084
 7607TIP3    H244313   4.742   0.275   1.613  0.9370 -0.7859 -0.8365
 7608TIP3   OH244314   5.931   3.213  13.859  0.4693  0.4356  0.1076
 7608TIP3    H144315   5.927   3.183  13.768 -0.3230  2.3770 -0.5558
 7608TIP3    H244316   6.022   3.201  13.884  0.4525 -1.2759 -0.5022
 7609TIP3   OH244317   5.866   4.646   3.489  0.2147  0.0139 -0.0355
 7609TIP3    H144318   5.791   4.608   3.443 -1.1789  1.3149  1.0582
 7609TIP3    H244319   5.887   4.581   3.557 -0.5475  0.0511  0.2493
 7610TIP3   OH244320   2.827   4.467  11.636  0.0026  0.4471 -0.6636
 7610TIP3    H144321   2.900   4.528  11.624  0.4144 -0.0336 -0.6217
 7610TIP3    H244322   2.856   4.386  11.596 -0.3813  0.1538 -0.3568
 7611TIP3   OH244323   6.443   4.985  13.345 -0.2035 -0.3569  0.1171
 7611TIP3    H144324   6.522   4.940  13.375  1.7754  1.5794 -1.8333
 7611TIP3    H244325   6.394   4.917  13.298 -1.0303 -2.1996  3.3101
 7612TIP3   OH244326   2.363   2.572  11.936  0.2356  0.0626  0.0210
 7612TIP3    H144327   2.385   2.545  11.847  2.4000 -1.1708  0.8373
 7612TIP3    H244328   2.412   2.511  11.992 -1.7587  0.2073  2.0917
 7613TIP3   OH244329   5.037   0.343   1.492 -0.6747 -0.1328  0.4020
 7613TIP3    H144330   5.022   0.381   1.405 -1.2456 -2.1431 -0.4436
 7613TIP3    H244331   5.007   0.410   1.553  0.6052  1.7089 -0.8810
 7614TIP3   OH244332   2.344   4.617  12.673 -0.2758  0.2769 -0.3410
 7614TIP3    H144333   2.332   4.571  12.757 -1.0626  0.0830 -0.5521
 7614TIP3    H244334   2.437   4.609  12.655 -0.5265 -2.2351 -0.9072
 7615TIP3   OH244335   1.364   1.108   2.704 -0.5613 -0.3916  0.1570
 7615TIP3    H144336   1.348   1.148   2.789 -0.6984 -2.4251  1.1551
 7615TIP3    H244337   1.372   1.014   2.722  0.6446 -0.7619 -1.9196
 7616TIP3   OH244338   2.199   4.393  14.483 -0.0011  0.0950 -0.2472
 7616TIP3    H144339   2.219   4.299  14.485 -3.2572 -0.7361  0.6877
 7616TIP3    H244340   2.224   4.424  14.570 -0.5554 -0.3713  0.0916
 7617TIP3   OH244341   1.246   3.896   5.567 -0.2309  0.0252  0.0002
 7617TIP3    H144342   1.310   3.967   5.555  0.3496 -0.8547 -2.5236
 7617TIP3    H244343   1.278   3.825   5.513 -2.2906 -1.2072  0.3025
 7618TIP3   OH244344   5.713   0.432  14.998 -0.1374  0.3079 -0.6649
 7618TIP3    H144345   5.785   0.375  14.971 -0.3838  0.1132 -0.9234
 7618TIP3    H244346   5.638   0.373  15.006  0.0101  0.2789  0.8756
 7619TIP3   OH244347   2.010   0.315   1.404 -0.4965 -0.4489 -0.3935
 7619TIP3    H144348   1.968   0.250   1.460  0.1886  1.8388  3.0798
 7619TIP3    H244349   1.950   0.390   1.405  0.7311  0.5640 -0.6441
 7620TIP3   OH244350   4.748   5.693  14.221  0.2219 -0.2625 -0.2389
 7620TIP3    H144351   4.668   5.647  14.245  0.8992 -1.1670  0.3897
 7620TIP3    H244352   4.720   5.783  14.203 -1.0127 -0.7154 -0.6721
 7621TIP3   OH244353   5.404   4.983   5.159 -0.2900  0.1957  0.0615
 7621TIP3    H144354   5.395   5.057   5.099  2.5412  2.5386  2.1865
 7621TIP3    H244355   5.414   4.906   5.102 -0.7011  1.8156 -2.3193
 7622TIP3   OH244356   0.882   2.318   2.263 -0.6100  0.2520 -0.0543
 7622TIP3    H144357   0.940   2.244   2.276  2.0124  1.4582 -3.4075
 7622TIP3    H244358   0.932   2.394   2.294 -2.6599  0.9101  1.9839
 7623TIP3   OH244359   0.588   0.752  15.862  0.2311  0.3011  0.5581
 7623TIP3    H144360   0.576   0.674  15.809  0.6894 -2.2558  3.9114
 7623TIP3    H244361   0.499   0.775  15.892  0.1244  1.0069 -0.2482
 7624TIP3   OH244362   3.751   5.150  10.510  0.3218 -0.5867  0.5991
 7624TIP3    H144363   3.739   5.171  10.417  0.8592  2.3068  1.0918
 7624TIP3    H244364   3.845   5.156  10.524  0.4066 -2.4447  1.0877
 7625TIP3   OH244365   0.789   3.636  11.637 -0.2164  0.6772 -0.3519
 7625TIP3    H144366   0.809   3.692  11.562  0.4192  0.1915 -0.5565
 7625TIP3    H244367   0.875   3.618  11.676 -0.6384  2.1044  1.3682
 7626TIP3   OH244368   2.846   2.967   5.587 -0.4522 -0.3640 -0.5132
 7626TIP3    H144369   2.885   2.887   5.621 -1.3057 -0.7908 -0.5135
 7626TIP3    H244370   2.810   2.943   5.502  0.0317  0.2388 -0.9014
 7627TIP3   OH244371   1.194   0.872   4.387  0.4918 -0.7853 -0.0150
 7627TIP3    H144372   1.281   0.838   4.366  1.6278  1.7984  0.1175
 7627TIP3    H244373   1.180   0.943   4.325 -2.0269 -1.7404 -0.6943
 7628TIP3   OH244374   6.143   3.571   2.560  0.3096 -0.2397  0.7979
 7628TIP3    H144375   6.065   3.606   2.516  1.7620 -0.3010 -2.0646
 7628TIP3    H244376   6.116   3.560   2.651 -2.8537  0.1927  0.0394
 7629TIP3   OH244377   3.844   3.440   5.230 -0.0248  0.3110 -0.8448
 7629TIP3    H144378   3.924   3.487   5.208 -0.9394  3.0536  1.1303
 7629TIP3    H244379   3.792   3.503   5.281 -4.0963 -0.7504 -3.1825
 7630TIP3   OH244380   3.368   2.840   3.896  0.2412  0.2088 -0.0123
 7630TIP3    H144381   3.343   2.784   3.970  0.3606 -1.5520 -1.2412
 7630TIP3    H244382   3.348   2.787   3.819  0.5005  1.8429 -1.2350
 7631TIP3   OH244383   4.829   6.653  15.713 -0.5197 -0.2845  0.3181
 7631TIP3    H144384   4.789   6.740  15.720 -1.1591 -0.4460 -0.9203
 7631TIP3    H244385   4.868   6.652  15.625  2.5863 -0.0153  1.5660
 7632TIP3   OH244386   3.047   5.936   3.249 -0.0213  0.0689  0.4832
 7632TIP3    H144387   3.014   5.926   3.160 -0.2025 -2.3588  0.7626
 7632TIP3    H244388   3.122   5.995   3.240  0.6734 -1.0117 -1.4881
 7633TIP3   OH244389   6.391   2.338   4.800  0.2393 -0.2473  0.0808
 7633TIP3    H144390   6.472   2.375   4.834  0.0477  0.8498 -0.6026
 7633TIP3    H244391   6.403   2.338   4.705 -0.8753  0.7379 -0.0811
 7634TIP3   OH244392   0.763   4.321   2.972  0.0854 -0.0909 -0.3250
 7634TIP3    H144393   0.677   4.297   3.008 -0.4677  0.6368 -1.1233
 7634TIP3    H244394   0.811   4.358   3.047 -0.1208 -0.9106  0.2304
 7635TIP3   OH244395   3.855   5.675  11.919  0.4463 -0.3569  0.6824
 7635TIP3    H144396   3.928   5.698  11.975  1.6996  0.7265 -1.2960
 7635TIP3    H244397   3.879   5.590  11.882  0.9836  0.2411 -0.3724
 7636TIP3   OH244398   4.284   2.812  15.625  0.0593 -0.0452 -0.2989
 7636TIP3    H144399   4.307   2.853  15.708  0.5648 -0.0420 -0.4344
 7636TIP3    H244400   4.368   2.799  15.581 -0.2958  2.1213 -1.8264
 7637TIP3   OH244401   3.511   3.893   0.754  0.3923  0.1703 -0.0680
 7637TIP3    H144402   3.462   3.855   0.827 -0.1814 -0.5536 -0.8045
 7637TIP3    H244403   3.580   3.944   0.796  0.0909 -0.2431  0.9820
 7638TIP3   OH244404   0.033   6.517  16.857 -0.2324  0.2251  0.0750
 7638TIP3    H144405   0.084   6.591  16.824 -1.3504  0.2780 -1.6549
 7638TIP3    H244406  -0.055   6.551  16.869 -0.4934 -0.5398  0.4134
 7639TIP3   OH244407   4.785   6.248   4.111  0.2115  0.1768  0.1637
 7639TIP3    H144408   4.831   6.235   4.194 -0.6350 -0.0244  0.6034
 7639TIP3    H244409   4.797   6.341   4.092 -0.3303  0.4168  0.9568
 7640TIP3   OH244410   0.012   3.845  15.291 -0.7292  0.1512  0.4362
 7640TIP3    H144411   0.082   3.836  15.225 -1.3629 -1.7593 -0.0148
 7640TIP3    H244412  -0.002   3.940  15.297  0.1312  0.4406 -1.3515
 7641TIP3   OH244413   0.369   4.207   5.969 -0.5824 -0.0516  0.2986
 7641TIP3    H144414   0.304   4.176   5.906  0.9240 -1.1643 -0.7778
 7641TIP3    H244415   0.347   4.160   6.050 -0.0879 -1.8242 -0.5393
 7642TIP3   OH244416   2.362   2.949  16.994 -0.2238 -0.4044  0.1532
 7642TIP3    H144417   2.343   2.920  16.905  1.1793 -2.2240  0.4092
 7642TIP3    H244418   2.455   2.972  16.994 -0.8523  2.5458  0.4348
 7643TIP3   OH244419   6.442   0.812   3.032 -0.0682  0.2670 -0.7672
 7643TIP3    H144420   6.458   0.721   3.005  0.5487  0.2747 -0.4493
 7643TIP3    H244421   6.361   0.836   2.988 -1.9688 -1.4336  1.4608
 7644TIP3   OH244422   3.783   2.757  10.972  0.0440  0.2872  0.3856
 7644TIP3    H144423   3.759   2.749  11.064 -1.3210  0.6053  0.0872
 7644TIP3    H244424   3.856   2.697  10.960 -0.0659 -0.1000  1.5639
 7645TIP3   OH244425   3.147   6.560   3.185  0.5480  0.2762  1.0949
 7645TIP3    H144426   3.157   6.516   3.269  0.6216  0.1828  1.0364
 7645TIP3    H244427   3.164   6.492   3.120  0.0635  0.2403  1.0017
 7646TIP3   OH244428   1.825   5.861   2.327 -0.3196  0.1084 -0.0534
 7646TIP3    H144429   1.854   5.833   2.240 -1.0997 -0.6953 -0.0732
 7646TIP3    H244430   1.824   5.957   2.323  2.1118  0.1879 -0.0924
 7647TIP3   OH244431   0.235   2.989  11.565 -0.0076 -0.2032  0.5333
 7647TIP3    H144432   0.279   2.911  11.598  0.9703 -0.7073 -1.7312
 7647TIP3    H244433   0.146   2.960  11.545  0.3890 -0.8286 -0.4302
 7648TIP3   OH244434   5.289   1.320  12.770 -0.5779  0.3712  0.0906
 7648TIP3    H144435   5.364   1.278  12.813  0.5153  1.1462 -1.0004
 7648TIP3    H244436   5.259   1.256  12.706  0.2390  0.7055 -0.6426
 7649TIP3   OH244437   4.142   6.084  15.405 -0.0265  0.5485 -0.8348
 7649TIP3    H144438   4.214   6.039  15.360 -0.4817  0.1499 -1.1729
 7649TIP3    H244439   4.186   6.144  15.465  0.5958  0.6501 -1.3714
 7650TIP3   OH244440   2.673   4.760  17.120 -0.7183 -0.2956  0.4107
 7650TIP3    H144441   2.584   4.739  17.150 -0.5177 -1.7493  0.0907
 7650TIP3    H244442   2.663   4.779  17.027 -0.5665 -1.6400  0.0941
 7651TIP3   OH244443   1.997   4.445  14.292 -0.7037 -0.5714 -0.2955
 7651TIP3    H144444   2.063   4.439  14.361  0.6874 -0.1758 -1.5515
 7651TIP3    H244445   1.987   4.539  14.276 -1.4268 -0.6357 -0.2792
 7652TIP3   OH244446   2.463   1.753   3.170 -0.3080  0.8042  0.5961
 7652TIP3    H144447   2.379   1.765   3.215 -1.4019  0.9209 -1.3575
 7652TIP3    H244448   2.478   1.659   3.172 -1.1649  0.6356 -0.1489
 7653TIP3   OH244449   0.910   1.812   4.092  0.3545 -0.1811 -0.1817
 7653TIP3    H144450   0.896   1.718   4.095 -2.5959  0.1984  0.8906
 7653TIP3    H244451   0.998   1.825   4.126  0.4611 -2.4852  0.5327
 7654TIP3   OH244452   3.560   0.350  14.330  0.5349 -0.0566 -0.2986
 7654TIP3    H144453   3.599   0.432  14.360 -0.4810 -0.5786  2.8685
 7654TIP3    H244454   3.468   0.372  14.315  0.0836 -0.7137  1.3217
 7655TIP3   OH244455   6.658   1.909  14.993 -0.0756  0.4732  0.1791
 7655TIP3    H144456   6.587   1.957  15.036 -1.2426  0.8889 -2.0617
 7655TIP3    H244457   6.726   1.974  14.980 -0.0357  0.5336  0.6577
 7656TIP3   OH244458   3.210   2.299  13.205 -0.4133 -0.2697  0.3793
 7656TIP3    H144459   3.264   2.233  13.249 -0.5811  0.1363  1.2113
 7656TIP3    H244460   3.178   2.255  13.126  0.9848 -0.5840 -0.0514
 7657TIP3   OH244461   1.345   5.133  13.262 -0.1753  0.1468 -0.9483
 7657TIP3    H144462   1.425   5.186  13.257  0.4889 -0.7738 -0.4668
 7657TIP3    H244463   1.299   5.166  13.339 -0.4097  0.8594 -1.3804
 7658TIP3   OH244464   6.714   3.857   6.231  0.1341 -0.3999 -0.1560
 7658TIP3    H144465   6.714   3.876   6.325  1.2262 -0.2068 -0.1831
 7658TIP3    H244466   6.631   3.811   6.216 -1.1202  1.4827  0.5019
 7659TIP3   OH244467   5.260   5.889   2.113 -0.2974 -0.0918 -0.7141
 7659TIP3    H144468   5.216   5.874   2.030  0.5750 -0.1359 -1.1768
 7659TIP3    H244469   5.303   5.974   2.102 -1.0400  0.4083  0.0759
 7660TIP3   OH244470   6.517   5.131  11.194 -0.3064 -0.1217  0.8406
 7660TIP3    H144471   6.491   5.215  11.156 -0.3907 -0.0974  0.9488
 7660TIP3    H244472   6.577   5.093  11.131 -1.0126 -0.4188  0.3441
 7661TIP3   OH244473   6.226   4.967   0.016  0.0484  0.6605 -0.1417
 7661TIP3    H144474   6.145   5.011  -0.008 -0.0618  0.7839  0.4301
 7661TIP3    H244475   6.268   4.945  -0.067 -0.7045  0.3535 -0.4495
 7662TIP3   OH244476   3.372   2.570  11.400  0.8044  0.0952 -0.1708
 7662TIP3    H144477   3.406   2.575  11.490 -2.9029  0.8346  1.3487
 7662TIP3    H244478   3.340   2.481  11.391  2.4088 -0.4021 -1.3468
 7663TIP3   OH244479   5.339   2.347  15.496  0.1943  0.6522  0.1874
 7663TIP3    H144480   5.379   2.356  15.409 -1.6822  1.3343 -0.6644
 7663TIP3    H244481   5.387   2.409  15.551  0.5080  1.2447 -0.7304
 7664TIP3   OH244482   2.237   5.772   5.791 -0.0647 -0.4321  0.4819
 7664TIP3    H144483   2.247   5.732   5.878  0.9134  4.2800  2.8609
 7664TIP3    H244484   2.206   5.861   5.809  0.1622  0.7820 -4.0595
 7665TIP3   OH244485   0.143   6.052   0.403  0.3411  0.7624  0.7542
 7665TIP3    H144486   0.183   6.069   0.488 -2.6528  2.2636  2.0271
 7665TIP3    H244487   0.099   6.134   0.381  0.9538  0.3878 -2.2742
 7666TIP3   OH244488   6.409   1.060  13.143 -0.6416 -0.3880 -0.1991
 7666TIP3    H144489   6.486   1.038  13.090 -1.3418 -2.5976 -0.3855
 7666TIP3    H244490   6.438   1.046  13.233 -0.3592  0.4101 -0.1553
 7667TIP3   OH244491   4.115   4.767   1.912 -0.2435 -0.2016 -0.0462
 7667TIP3    H144492   4.036   4.817   1.891  0.1483  0.9176  1.0653
 7667TIP3    H244493   4.171   4.778   1.835 -0.1239  1.1731  0.2080
 7668TIP3   OH244494   3.189   6.603   0.290  0.1743  0.5821  0.3264
 7668TIP3    H144495   3.221   6.671   0.350  1.2565  1.2934 -0.9871
 7668TIP3    H244496   3.244   6.527   0.308  1.8641  1.4052 -1.0393
 7669TIP3   OH244497   3.996   0.832   4.100  0.2552 -0.2616  0.2917
 7669TIP3    H144498   3.956   0.874   4.024  0.4044 -0.7390 -0.0576
 7669TIP3    H244499   4.017   0.743   4.070  0.3323 -0.4485  0.8861
 7670TIP3   OH244500   4.063   6.770  15.787  0.8665 -0.5145  0.0082
 7670TIP3    H144501   3.986   6.754  15.733  0.1914  0.7414  0.5638
 7670TIP3    H244502   4.051   6.714  15.863 -0.5741  1.1735  1.0815
 7671TIP3   OH244503   1.162   0.419  17.110  0.1529 -0.6677  0.4669
 7671TIP3    H144504   1.074   0.448  17.083  1.1273  1.2817 -0.8402
 7671TIP3    H244505   1.187   0.480  17.179  1.0819 -0.1647 -0.2855
 7672TIP3   OH244506   1.771   2.421   5.232  0.1727  0.6674  0.3565
 7672TIP3    H144507   1.824   2.428   5.311 -0.0209 -0.5838  0.6272
 7672TIP3    H244508   1.724   2.338   5.242 -0.4105  0.8442 -0.7339
 7673TIP3   OH244509   4.432   5.718   5.489 -0.1520 -0.5540 -0.0817
 7673TIP3    H144510   4.390   5.645   5.535  0.3533 -0.1255  1.1026
 7673TIP3    H244511   4.523   5.716   5.519  0.4149 -0.7261 -1.6776
 7674TIP3   OH244512   1.052   1.315   5.670  0.5173  0.1101 -0.0008
 7674TIP3    H144513   1.081   1.359   5.590 -1.1249 -0.5772 -1.0113
 7674TIP3    H244514   1.075   1.377   5.740  0.1591  1.6544 -1.1754
 7675TIP3   OH244515   4.472   4.052   0.992  0.2122 -0.1272 -0.0881
 7675TIP3    H144516   4.526   3.988   0.944 -3.0348 -2.2805 -1.1892
 7675TIP3    H244517   4.509   4.051   1.080  1.1810 -2.5055 -0.4224
 7676TIP3   OH244518   6.123   1.369   3.122  0.1280  0.0425 -0.2098
 7676TIP3    H144519   6.125   1.387   3.028  0.2436  0.6076 -0.1000
 7676TIP3    H244520   6.045   1.314   3.134 -1.1585  1.7382 -0.3365
 7677TIP3   OH244521   2.982   5.126  16.139  0.3521 -0.0604  0.1842
 7677TIP3    H144522   3.034   5.101  16.063  0.8708  1.2365  0.0789
 7677TIP3    H244523   3.037   5.189  16.186 -0.8520  0.8872  0.3946
 7678TIP3   OH244524   2.941   1.488  13.260  0.1874 -0.0417  0.2538
 7678TIP3    H144525   3.016   1.445  13.300 -0.7556 -1.0426  1.0189
 7678TIP3    H244526   2.877   1.496  13.332 -0.6995  0.1623 -0.5292
 7679TIP3   OH244527   0.052   5.850  14.228  0.0605 -0.3729 -0.1086
 7679TIP3    H144528   0.108   5.775  14.206  0.4130  0.1526 -1.0606
 7679TIP3    H244529  -0.034   5.826  14.194  0.5183  0.2746 -1.8482
 7680TIP3   OH244530   2.371   2.416   2.442 -0.2173 -0.7187 -0.1150
 7680TIP3    H144531   2.299   2.403   2.381 -0.7142 -1.3188  0.5754
 7680TIP3    H244532   2.342   2.487   2.499  0.0839 -0.4193 -0.3252
 7681TIP3   OH244533   2.111   0.740   4.880 -0.3663 -0.1863 -0.3081
 7681TIP3    H144534   2.157   0.816   4.915 -0.4428  1.6739 -3.8062
 7681TIP3    H244535   2.173   0.668   4.890  0.5404  0.7417  1.2407
 7682TIP3   OH244536   2.682   0.978   5.388  0.3284 -0.0648 -0.1742
 7682TIP3    H144537   2.770   0.948   5.410 -0.5022 -0.5165  2.9856
 7682TIP3    H244538   2.624   0.911   5.423 -1.3323  0.9409 -0.8966
 7683TIP3   OH244539   5.774   1.338  12.979 -0.1574 -0.3995 -0.1131
 7683TIP3    H144540   5.701   1.327  12.919  0.6198 -0.7241 -1.0167
 7683TIP3    H244541   5.821   1.415  12.946 -1.0657  0.9147  1.5049
 7684TIP3   OH244542   4.900   1.384  16.093 -0.5360  0.4777 -0.3930
 7684TIP3    H144543   4.930   1.410  16.006 -0.5839 -0.1840 -0.6135
 7684TIP3    H244544   4.848   1.305  16.078  0.0689 -0.0633  0.3160
 7685TIP3   OH244545   5.151   5.089   0.335 -0.0602 -0.5545 -0.7889
 7685TIP3    H144546   5.160   5.084   0.430  0.3704 -0.8304 -0.8426
 7685TIP3    H244547   5.058   5.073   0.319 -0.4031  0.7736 -0.3246
 7686TIP3   OH244548   2.101   6.060   4.941  0.7873  0.3689  0.1803
 7686TIP3    H144549   2.096   5.964   4.940 -1.7030  0.1810  4.5077
 7686TIP3    H244550   2.183   6.079   4.986  0.7012  0.1997  0.4114
 7687TIP3   OH244551   6.767   2.891   0.535 -0.4571  0.5099  0.4485
 7687TIP3    H144552   6.842   2.864   0.588 -1.2440  1.7766  2.3302
 7687TIP3    H244553   6.797   2.972   0.493  0.1545 -0.4758 -1.0927
 7688TIP3   OH244554   1.875   4.211   2.412 -0.0705  0.0964  0.2428
 7688TIP3    H144555   1.819   4.220   2.335  1.1922  0.9994 -0.5778
 7688TIP3    H244556   1.872   4.296   2.455  1.5444  0.5134 -0.4218
 7689TIP3   OH244557   3.421   5.640   5.650  0.2943  0.9847  0.7649
 7689TIP3    H144558   3.423   5.550   5.619  0.7360  1.1455  0.2985
 7689TIP3    H244559   3.433   5.634   5.745  2.1904  0.6376  0.5444
 7690TIP3   OH244560   1.338   0.068   0.104 -0.0663  0.1815  0.2865
 7690TIP3    H144561   1.408   0.109   0.154  0.5791 -0.0106 -0.4371
 7690TIP3    H244562   1.322   0.129   0.031  0.8388 -0.7652 -0.7513
 7691TIP3   OH244563   3.657   5.454   5.137  0.3751 -0.4339  0.1831
 7691TIP3    H144564   3.571   5.491   5.158  0.1494 -0.9950  0.2637
 7691TIP3    H244565   3.639   5.385   5.074  0.8692  0.0486 -0.4977
 7692TIP3   OH244566   2.215   1.662  14.999 -0.0759 -0.4013 -0.7109
 7692TIP3    H144567   2.139   1.721  14.999 -0.2328 -0.5871 -0.0702
 7692TIP3    H244568   2.290   1.720  15.005 -0.2039 -0.2438 -0.6126
 7693TIP3   OH244569   4.071   4.649  16.791  0.1534 -0.4286  0.4628
 7693TIP3    H144570   4.042   4.739  16.804  0.3808 -0.3930  0.7275
 7693TIP3    H244571   4.111   4.649  16.704 -1.6866 -0.7518 -0.4462
 7694TIP3   OH244572   5.491   1.398  16.494 -0.3362  0.2154 -0.6247
 7694TIP3    H144573   5.539   1.338  16.551 -1.0576  1.8162  1.7709
 7694TIP3    H244574   5.448   1.340  16.430 -1.5979 -1.9774  1.9895
 7695TIP3   OH244575   3.316   3.292   4.907  0.8829 -0.2725 -0.4900
 7695TIP3    H144576   3.221   3.292   4.912  0.9408 -0.9238  1.1671
 7695TIP3    H244577   3.344   3.232   4.976  2.5436  1.0641  0.0633
 7696TIP3   OH244578   3.680   5.037  14.189 -0.1969  0.4150  0.3040
 7696TIP3    H144579   3.620   5.079  14.128  0.3513  0.9568  0.1219
 7696TIP3    H244580   3.759   5.091  14.185  0.5799 -0.7162 -0.0312
 7697TIP3   OH244581   4.032   5.780  15.715  0.4280  0.0480 -0.1143
 7697TIP3    H144582   4.042   5.874  15.704  1.1504  0.0169  0.2007
 7697TIP3    H244583   3.950   5.759  15.671  0.7165  0.6824 -0.9807
 7698TIP3   OH244584   2.064   1.796   6.502  0.4682  0.2524  0.5384
 7698TIP3    H144585   1.999   1.767   6.566 -0.7670  0.3878 -0.6138
 7698TIP3    H244586   2.095   1.880   6.536  2.1772 -1.1029  2.5614
 7699TIP3   OH244587   3.137   5.012  17.290 -0.2445  0.0503  0.2508
 7699TIP3    H144588   3.145   4.977  17.201  1.8404  0.4209  0.2363
 7699TIP3    H244589   3.219   5.059  17.304 -0.7613  0.4357  2.1909
 7700TIP3   OH244590   6.604   0.584  16.825  0.3356  0.3634 -0.1272
 7700TIP3    H144591   6.531   0.574  16.764 -0.8021 -0.1834  1.2774
 7700TIP3    H244592   6.605   0.678  16.846 -1.1851  0.1199  1.2417
 7701TIP3   OH244593   5.117   3.726   2.432  0.4171 -0.2782 -0.1740
 7701TIP3    H144594   5.099   3.796   2.369  0.3877 -0.5972 -0.5294
 7701TIP3    H244595   5.076   3.754   2.513  1.5717  0.7568  0.0734
 7702TIP3   OH244596   5.547   2.272   5.441  0.2406  0.1348  0.2126
 7702TIP3    H144597   5.552   2.179   5.461 -0.7181  0.3084  1.3371
 7702TIP3    H244598   5.572   2.277   5.349  1.3942 -1.0916  0.4263
 7703TIP3   OH244599   2.541   2.200  12.584 -0.7389 -0.0838  0.1440
 7703TIP3    H144600   2.529   2.110  12.614 -0.2685 -0.6652 -1.3478
 7703TIP3    H244601   2.474   2.213  12.517  0.9516 -0.3099 -1.6879
 7704TIP3   OH244602   2.738   0.169  13.887 -0.1707  0.3564 -0.1222
 7704TIP3    H144603   2.818   0.119  13.873  1.2168  2.5039 -0.1719
 7704TIP3    H244604   2.719   0.159  13.981 -0.5323 -1.0797 -0.3253
 7705TIP3   OH244605   3.986   2.189  12.306  0.0235 -0.1445 -0.0435
 7705TIP3    H144606   4.029   2.266  12.270 -0.4349 -0.2133 -0.7613
 7705TIP3    H244607   3.939   2.151  12.232 -1.5135  0.0816  0.7838
 7706TIP3   OH244608   4.378   1.552   3.084 -0.2162  0.3480  0.4341
 7706TIP3    H144609   4.427   1.492   3.028 -2.4915  1.9277 -3.6709
 7706TIP3    H244610   4.332   1.495   3.147  2.9497 -1.4646  1.3313
 7707TIP3   OH244611   1.628   0.184   2.832  0.3101 -0.4198 -0.0919
 7707TIP3    H144612   1.686   0.148   2.899  0.1574 -1.0116 -0.2794
 7707TIP3    H244613   1.542   0.149   2.853 -0.3379  1.6928  1.1421
 7708TIP3   OH244614   2.678   2.944   5.973  0.6699  0.3186  0.0700
 7708TIP3    H144615   2.700   2.954   6.066 -0.9740  1.0509  0.4160
 7708TIP3    H244616   2.714   3.023   5.932  0.6561  0.4122  0.2351
 7709TIP3   OH244617   6.219   5.107  13.899  0.1257  0.4510 -0.1281
 7709TIP3    H144618   6.190   5.174  13.961 -1.1765 -0.1546 -0.0462
 7709TIP3    H244619   6.138   5.067  13.867  0.8433 -0.4409 -0.8976
 7710TIP3   OH244620   1.035   1.870  13.688  0.4695 -0.0273  0.0213
 7710TIP3    H144621   1.052   1.788  13.642 -1.4621 -0.3241 -0.2332
 7710TIP3    H244622   0.957   1.906  13.646  0.4601  1.2371  1.0603
 7711TIP3   OH244623   6.625   4.971   3.007 -0.2443 -0.4652 -0.0044
 7711TIP3    H144624   6.605   4.999   3.096 -1.0300 -0.3687 -0.2094
 7711TIP3    H244625   6.705   5.018   2.985 -0.1222 -0.3800  0.5941
 7712TIP3   OH244626   2.576   6.627   0.457 -0.0687  0.3642  0.4771
 7712TIP3    H144627   2.531   6.609   0.540 -1.2663 -0.7824 -0.3607
 7712TIP3    H244628   2.505   6.639   0.394  0.7089 -2.3599 -1.0813
 7713TIP3   OH244629   5.135   2.768  12.989 -0.0339 -0.3491 -0.4836
 7713TIP3    H144630   5.051   2.759  12.944 -1.4775  2.1399  1.4255
 7713TIP3    H244631   5.115   2.746  13.080  0.9092  1.9256  0.3264
 7714TIP3   OH244632   4.005   3.290  17.223 -0.2671  0.1120  0.7510
 7714TIP3    H144633   4.006   3.196  17.238 -2.2614 -0.1813 -0.5331
 7714TIP3    H244634   4.060   3.303  17.145 -3.2122 -0.6485 -1.6483
 7715TIP3   OH244635   2.945   4.182   0.332 -0.0423  0.0097  0.0652
 7715TIP3    H144636   2.974   4.271   0.350 -0.5672  0.2688 -0.3449
 7715TIP3    H244637   2.983   4.160   0.247  0.9445 -0.5507  0.6327
 7716TIP3   OH244638   0.855   2.339   1.761  0.1190  0.1213  0.4684
 7716TIP3    H144639   0.793   2.359   1.691  0.2095 -1.3921 -0.0847
 7716TIP3    H244640   0.828   2.252   1.793 -0.9589  1.4012  3.4753
 7717TIP3   OH244641   2.519   2.219  12.225 -0.0430 -0.3107  0.4670
 7717TIP3    H144642   2.491   2.212  12.134 -0.5098 -1.0423  0.6595
 7717TIP3    H244643   2.592   2.157  12.232 -0.0464 -0.2971  0.6135
 7718TIP3   OH244644   3.595   4.249   4.233 -0.1824 -0.0931  0.4465
 7718TIP3    H144645   3.518   4.210   4.273 -0.3149 -1.4260 -1.0118
 7718TIP3    H244646   3.667   4.230   4.293 -0.3747 -2.0350  0.1133
 7719TIP3   OH244647   1.480   0.866   0.881 -0.0012 -0.4415 -0.2458
 7719TIP3    H144648   1.413   0.933   0.886 -0.0849 -0.5465  0.0786
 7719TIP3    H244649   1.457   0.815   0.803  0.5357  0.3988 -0.9670
 7720TIP3   OH244650   0.594   4.766  15.687  0.1978  0.0310 -0.2943
 7720TIP3    H144651   0.662   4.712  15.647  2.2722  3.5626 -2.0222
 7720TIP3    H244652   0.597   4.744  15.780  1.7310 -1.9107 -0.7478
 7721TIP3   OH244653   2.047   0.690   6.192  0.2061 -0.2930 -0.3571
 7721TIP3    H144654   2.084   0.631   6.258 -0.1380 -0.3834 -0.2392
 7721TIP3    H244655   2.120   0.745   6.164  0.2395  0.1170  0.5041
 7722TIP3   OH244656   1.609   4.987   5.562  0.0140  0.2514  0.1364
 7722TIP3    H144657   1.553   5.059   5.590 -1.5993 -0.0530 -2.0089
 7722TIP3    H244658   1.558   4.942   5.495  1.8188 -1.6479 -0.0656
 7723TIP3   OH244659   0.912   1.957   5.773  0.3868 -0.0291  0.2435
 7723TIP3    H144660   0.916   1.987   5.864  1.2585  1.4312 -0.2337
 7723TIP3    H244661   0.988   1.899   5.763 -0.4846 -1.3100  0.7838
 7724TIP3   OH244662   4.306   0.471  12.216 -0.5223  0.5166 -0.3279
 7724TIP3    H144663   4.242   0.409  12.251 -0.0322 -1.5947 -2.9086
 7724TIP3    H244664   4.255   0.527  12.157 -0.4329  0.5784 -0.3468
 7725TIP3   OH244665   2.398   0.030   4.019  0.3424  0.3769  0.3975
 7725TIP3    H144666   2.415  -0.042   3.958  0.6344  0.4336  0.4127
 7725TIP3    H244667   2.371   0.103   3.963 -0.9330 -0.0245  0.4476
 7726TIP3   OH244668   5.657   4.531   3.354  0.0732 -0.2955 -0.3711
 7726TIP3    H144669   5.648   4.446   3.312  1.9132  0.0769 -1.6479
 7726TIP3    H244670   5.575   4.543   3.402 -0.1381 -2.8555  0.0409
 7727TIP3   OH244671   1.677   4.023   0.485 -0.0045  0.0045 -0.2609
 7727TIP3    H144672   1.733   4.082   0.434 -1.4251  2.1571  0.5499
 7727TIP3    H244673   1.618   4.081   0.532  0.1000 -1.9673  2.5061
 7728TIP3   OH244674   2.071   5.661   3.132 -0.3349  0.4103  0.1659
 7728TIP3    H144675   2.016   5.583   3.142  0.2306  0.1047  1.0345
 7728TIP3    H244676   2.161   5.629   3.143  0.0172  0.9445 -0.9583
 7729TIP3   OH244677   0.043   0.089   4.395  0.2012 -0.1434  0.2666
 7729TIP3    H144678  -0.015   0.145   4.447  0.2608 -0.0836  0.2687
 7729TIP3    H244679   0.036   0.124   4.306 -0.0162 -0.3392  0.2066
 7730TIP3   OH244680   6.314   3.424   2.193 -0.6815 -0.2627  0.2729
 7730TIP3    H144681   6.246   3.431   2.126 -0.2362  1.7136 -0.0501
 7730TIP3    H244682   6.353   3.512   2.196  1.5911 -1.2205  0.7354
 7731TIP3   OH244683   1.006   2.347  13.213  0.6114  0.0225  0.1485
 7731TIP3    H144684   0.986   2.309  13.127  1.9220  0.6359 -0.4455
 7731TIP3    H244685   0.941   2.307  13.271  1.1685 -2.2397 -0.6503
 7732TIP3   OH244686   5.725   3.341  16.927 -0.4648 -0.2241 -0.3726
 7732TIP3    H144687   5.662   3.284  16.969 -0.6178 -0.3645 -0.7901
 7732TIP3    H244688   5.707   3.428  16.964  0.3932 -0.5907  0.9755
 7733TIP3   OH244689   5.866   2.382  15.283  0.1062 -0.7490  0.4004
 7733TIP3    H144690   5.944   2.401  15.231 -0.9718 -0.5008 -1.2106
 7733TIP3    H244691   5.890   2.305  15.335  0.6779 -2.2255 -1.8726
 7734TIP3   OH244692   6.344   1.487  11.152  0.3372 -0.3301  0.3628
 7734TIP3    H144693   6.345   1.431  11.229 -1.6831 -1.6737 -0.4932
 7734TIP3    H244694   6.414   1.453  11.097  0.4816 -0.6546  0.7449
 7735TIP3   OH244695   5.446   6.769  16.106  0.1177  0.0141  0.5623
 7735TIP3    H144696   5.404   6.691  16.141  0.5205  0.2352  1.5849
 7735TIP3    H244697   5.404   6.784  16.022 -1.3239 -0.1855  1.2195
 7736TIP3   OH244698   3.329   0.648  14.541 -0.1517 -0.6882 -0.5958
 7736TIP3    H144699   3.268   0.652  14.614  1.4102 -1.4144  0.8193
 7736TIP3    H244700   3.325   0.736  14.501  0.1976  0.3010  1.4267
 7737TIP3   OH244701   6.124   4.334  11.225 -1.0756 -0.3815 -0.0143
 7737TIP3    H144702   6.078   4.281  11.160 -2.2662  0.2281  0.3022
 7737TIP3    H244703   6.186   4.274  11.266 -0.8336 -0.9572 -1.1849
 7738TIP3   OH244704   4.043   0.874   0.810  0.2755 -0.0641 -0.4952
 7738TIP3    H144705   3.957   0.911   0.789  1.9914  3.0756 -2.9011
 7738TIP3    H244706   4.088   0.942   0.859  1.5327 -1.5457  0.5147
 7739TIP3   OH244707   5.220   2.128   1.543  0.0606  0.2696 -0.7501
 7739TIP3    H144708   5.226   2.097   1.452  1.1560  0.3112 -0.7088
 7739TIP3    H244709   5.311   2.133   1.572 -0.2988 -1.9650  1.1025
 7740TIP3   OH244710   6.586   2.998   5.406 -0.5211 -0.0044  0.0038
 7740TIP3    H144711   6.567   3.004   5.500 -0.0795 -0.0698  0.0966
 7740TIP3    H244712   6.681   3.006   5.400 -0.6397  1.2574 -0.5335
 7741TIP3   OH244713   5.546   0.064  11.941  0.4469 -0.6279 -0.1544
 7741TIP3    H144714   5.585  -0.015  11.978 -0.6555 -0.8537  0.5864
 7741TIP3    H244715   5.620   0.123  11.925  1.0780 -0.9691  1.3328
 7742TIP3   OH244716   3.874   2.117  15.526  0.4886  0.0504 -0.0807
 7742TIP3    H144717   3.843   2.207  15.536 -1.2129 -0.2326 -2.0489
 7742TIP3    H244718   3.813   2.064  15.577  0.9269 -0.0756  0.3175
 7743TIP3   OH244719   4.184   6.124   3.111 -0.1071  0.2565 -0.0615
 7743TIP3    H144720   4.265   6.175   3.110 -0.6608  1.1966 -2.0748
 7743TIP3    H244721   4.123   6.176   3.059 -1.7095 -0.9156  0.5801
 7744TIP3   OH244722   3.876   3.395   2.352 -0.1107  0.3896  0.2503
 7744TIP3    H144723   3.898   3.454   2.280  1.4809  0.0937  0.4488
 7744TIP3    H244724   3.869   3.309   2.311 -0.8274  0.4523  0.2182
 7745TIP3   OH244725   0.051   3.004  14.897  0.1286 -0.6279 -0.0565
 7745TIP3    H144726   0.119   2.990  14.831 -0.7272 -0.4933 -0.9922
 7745TIP3    H244727  -0.014   2.935  14.879 -0.3056 -0.3440  0.3940
 7746TIP3   OH244728   0.969   4.735  15.768 -0.1673  0.3910  0.3594
 7746TIP3    H144729   0.944   4.649  15.802  2.4916 -0.4905  0.3345
 7746TIP3    H244730   0.959   4.794  15.843 -1.6463  0.0030  0.4866
 7747TIP3   OH244731   0.822   6.156   4.273 -0.5000 -0.0424  0.6977
 7747TIP3    H144732   0.739   6.111   4.288  0.1619 -1.6715 -0.2792
 7747TIP3    H244733   0.871   6.143   4.354 -0.1297 -1.5796  0.2691
 7748TIP3   OH244734   2.760   0.308  14.531  0.0251  0.4307 -0.0922
 7748TIP3    H144735   2.854   0.326  14.528  0.1716 -0.3443 -0.4630
 7748TIP3    H244736   2.746   0.242  14.463 -0.3208 -1.5112  1.7534
 7749TIP3   OH244737   0.947   5.673   4.835 -0.1570 -0.3554  0.4370
 7749TIP3    H144738   0.916   5.761   4.856  0.6759 -0.1431  0.8431
 7749TIP3    H244739   1.035   5.686   4.799 -0.5952 -0.9130 -0.9124
 7750TIP3   OH244740   2.036   0.129   3.286  0.0235 -0.0076  0.1533
 7750TIP3    H144741   2.127   0.109   3.308 -0.3671 -0.8051  1.1682
 7750TIP3    H244742   2.035   0.138   3.191  1.7860  3.3921  0.3268
 7751TIP3   OH244743   1.503   4.853  13.665  0.2514  0.1333  0.2300
 7751TIP3    H144744   1.560   4.917  13.709  0.0329 -0.4460  1.3984
 7751TIP3    H244745   1.563   4.796  13.618  0.5665  0.1994  0.5475
 7752TIP3   OH244746   2.286   6.795  15.574  1.0014 -0.0908 -0.3597
 7752TIP3    H144747   2.192   6.809  15.580  1.2086  0.7593  1.5318
 7752TIP3    H244748   2.296   6.700  15.581  0.2922 -0.2186 -0.9123
 7753TIP3   OH244749   5.282   2.290   4.079  0.1964 -0.0264 -0.7670
 7753TIP3    H144750   5.376   2.276   4.072 -0.0015 -0.6710 -3.0726
 7753TIP3    H244751   5.253   2.303   3.989 -1.8421  0.8057 -0.0500
 7754TIP3   OH244752   3.188   0.735  13.143  0.2190  0.2581 -0.3329
 7754TIP3    H144753   3.208   0.768  13.230  0.5830  0.2845 -0.4207
 7754TIP3    H244754   3.162   0.644  13.156  1.4189 -0.1071 -0.2997
 7755TIP3   OH244755   6.391   6.545  12.035  0.1484 -0.6712  0.1099
 7755TIP3    H144756   6.374   6.591  12.117  1.1894 -2.1588  1.2141
 7755TIP3    H244757   6.304   6.532  11.996 -0.3212  0.4217  0.7458
 7756TIP3   OH244758   3.508   6.744   5.116  0.0907 -0.0815  0.4670
 7756TIP3    H144759   3.591   6.753   5.068 -0.4587  1.0777 -0.3234
 7756TIP3    H244760   3.522   6.670   5.175  1.2250 -0.7566 -0.6079
 7757TIP3   OH244761   5.977   0.465   0.924 -0.2112  0.8108 -0.5660
 7757TIP3    H144762   5.902   0.507   0.965  1.0643  2.7870 -0.1657
 7757TIP3    H244763   6.011   0.406   0.991 -0.6760  0.7936 -0.3382
 7758TIP3   OH244764   6.783   2.156  16.168 -0.8135 -0.9637 -0.6249
 7758TIP3    H144765   6.778   2.088  16.101  0.7181  0.8551 -2.6892
 7758TIP3    H244766   6.876   2.164  16.188 -0.9734  0.4505 -0.3318
 7759TIP3   OH244767   1.234   4.715  10.768 -0.3982 -0.3773  0.5350
 7759TIP3    H144768   1.281   4.793  10.738 -1.3789  0.0073 -0.0499
 7759TIP3    H244769   1.147   4.723  10.728 -0.0833 -2.4629 -0.6688
 7760TIP3   OH244770   5.292   1.001   5.756  0.4686 -0.0930  0.0379
 7760TIP3    H144771   5.369   1.038   5.799 -0.5733  0.2915  1.6796
 7760TIP3    H244772   5.225   1.069   5.765 -0.3102 -0.7683 -0.5461
 7761TIP3   OH244773   3.382   6.137   1.581 -0.1450 -0.3921  0.1900
 7761TIP3    H144774   3.411   6.096   1.499  0.2772 -2.1843  1.1739
 7761TIP3    H244775   3.375   6.064   1.643 -1.8460  0.7033  1.3815
 7762TIP3   OH244776   5.410   2.477   2.116  0.2724 -0.1194 -0.4172
 7762TIP3    H144777   5.407   2.498   2.209 -3.2423 -0.0653 -0.4215
 7762TIP3    H244778   5.402   2.562   2.072 -0.0995 -0.3244 -0.7414
 7763TIP3   OH244779   0.607   5.600   1.350 -0.0826 -1.2057 -0.1458
 7763TIP3    H144780   0.682   5.612   1.291  0.1845 -0.8547  0.2534
 7763TIP3    H244781   0.542   5.664   1.319  0.3619 -0.4727  0.4204
 7764TIP3   OH244782   3.805   1.268   3.726 -0.4104 -0.2207  0.6879
 7764TIP3    H144783   3.825   1.226   3.642 -0.6193 -1.0805  1.0552
 7764TIP3    H244784   3.836   1.205   3.791  0.6140  0.8492  1.2704
 7765TIP3   OH244785   2.194   4.248   3.948 -0.2869  0.3896  0.0897
 7765TIP3    H144786   2.284   4.258   3.979  0.1471  0.2720 -1.0980
 7765TIP3    H244787   2.200   4.186   3.875 -1.4061 -0.0247  0.3275
 7766TIP3   OH244788   6.057   6.277  13.244  0.3421 -0.4726  0.1415
 7766TIP3    H144789   6.069   6.319  13.159  2.0799  1.0529  1.0792
 7766TIP3    H244790   5.963   6.277  13.258  0.0578 -0.3398 -1.5538
 7767TIP3   OH244791   0.657   3.836   3.868 -0.0238  0.7622 -0.5037
 7767TIP3    H144792   0.648   3.900   3.939  1.5736  1.0411 -0.5144
 7767TIP3    H244793   0.567   3.818   3.840 -0.5877  1.8327  0.5388
 7768TIP3   OH244794   2.945   3.127  10.932 -0.2847  0.1719 -0.2134
 7768TIP3    H144795   2.917   3.079  10.854 -0.1706  1.3853 -1.0126
 7768TIP3    H244796   3.031   3.163  10.909  0.7518 -1.1960  1.2320
 7769TIP3   OH244797   4.719   0.139  16.908  0.6647 -0.1591 -0.1268
 7769TIP3    H144798   4.728   0.203  16.837  2.7940 -0.8003 -0.4900
 7769TIP3    H244799   4.657   0.180  16.968 -1.1282  0.4722 -2.2446
 7770TIP3   OH244800   3.597   1.775  15.768  0.2808  0.1357 -0.0594
 7770TIP3    H144801   3.688   1.758  15.793  0.6275  0.9397 -0.7393
 7770TIP3    H244802   3.548   1.769  15.851  0.7227 -1.6664  0.1132
 7771TIP3   OH244803   3.700   0.080  14.660 -0.6148  0.2563 -0.2375
 7771TIP3    H144804   3.726   0.171  14.673  2.2667 -0.6388  0.8656
 7771TIP3    H244805   3.651   0.081  14.577  1.6810  2.4268 -1.6962
 7772TIP3   OH244806   0.043   0.319   0.462 -0.5937  0.2564  0.6392
 7772TIP3    H144807  -0.011   0.262   0.517  0.1378 -1.3198 -0.1916
 7772TIP3    H244808  -0.017   0.348   0.393 -0.8626  0.0618  0.7874
 7773TIP3   OH244809   6.682   3.226  14.800 -0.0967 -0.1184  0.7065
 7773TIP3    H144810   6.747   3.173  14.846 -0.8327 -0.6195  1.1914
 7773TIP3    H244811   6.657   3.293  14.864 -0.5528 -0.3417  0.7626
 7774TIP3   OH244812   6.802   4.728   1.176  0.0136  0.6068 -0.1994
 7774TIP3    H144813   6.804   4.823   1.179  1.7423  0.6702 -1.5400
 7774TIP3    H244814   6.853   4.705   1.098  1.3156 -1.4735  1.1644
 7775TIP3   OH244815   6.143   2.321  15.405  0.7891  0.3749 -0.1901
 7775TIP3    H144816   6.107   2.271  15.478 -0.8454  1.4264 -0.2257
 7775TIP3    H244817   6.238   2.313  15.415  0.5921 -1.3511  0.7246
 7776TIP3   OH244818   1.443   4.909  11.308 -0.4738  0.4960  0.0253
 7776TIP3    H144819   1.370   4.937  11.252 -0.9671  0.5223  0.6732
 7776TIP3    H244820   1.441   4.813  11.305 -1.1511  0.4760  0.8133
 7777TIP3   OH244821   2.986   3.874   3.180  0.0657  0.3519 -0.2353
 7777TIP3    H144822   2.918   3.909   3.122  0.4565  2.5184  0.4972
 7777TIP3    H244823   2.956   3.897   3.268 -0.4114 -2.6796  0.4781
 7778TIP3   OH244824   1.552   4.056   2.380 -0.2260 -0.5851 -0.2882
 7778TIP3    H144825   1.621   3.993   2.398  1.4978  0.8058 -1.6566
 7778TIP3    H244826   1.533   4.095   2.466  0.5600 -1.1210  0.1468
 7779TIP3   OH244827   1.576   3.569  17.134  0.1315  0.0945 -0.0740
 7779TIP3    H144828   1.489   3.588  17.169  0.6937  0.5964  1.0937
 7779TIP3    H244829   1.616   3.655  17.119  0.4270 -0.1295 -0.6211
 7780TIP3   OH244830   3.169   0.369  11.718  0.2297  0.6556  0.0288
 7780TIP3    H144831   3.126   0.311  11.656  0.4616 -1.2322  1.5272
 7780TIP3    H244832   3.189   0.448  11.668 -0.4490 -0.3961 -1.9999
 7781TIP3   OH244833   0.056   5.199   2.280  0.4480  0.3638 -0.0067
 7781TIP3    H144834   0.089   5.278   2.323 -1.0111  0.6757  0.5914
 7781TIP3    H244835  -0.039   5.202   2.293 -0.1481  0.5649 -3.4042
 7782TIP3   OH244836   4.981   2.224   1.652  0.1983 -0.1403  0.3601
 7782TIP3    H144837   5.062   2.210   1.604  0.6610  0.4812  0.9357
 7782TIP3    H244838   4.933   2.142   1.645  0.7659 -0.4243 -0.1990
 7783TIP3   OH244839   1.192   1.550   4.723 -0.6609  0.5775  0.1972
 7783TIP3    H144840   1.156   1.462   4.707 -0.3136  0.4657  0.0253
 7783TIP3    H244841   1.166   1.601   4.646  1.0978  0.0125 -0.8114
 7784TIP3   OH244842   4.190   4.959  11.249 -0.1702 -0.2149 -0.0648
 7784TIP3    H144843   4.215   4.868  11.233  2.2404  0.0497  1.7441
 7784TIP3    H244844   4.104   4.967  11.207  0.6426 -2.5836 -2.5110
 7785TIP3   OH244845   3.517   3.340  12.354  0.4261  0.3820 -0.0945
 7785TIP3    H144846   3.477   3.322  12.439 -0.7248  0.3120 -0.6295
 7785TIP3    H244847   3.528   3.254  12.314  0.2562  0.4605 -0.3146
 7786TIP3   OH244848   2.240   0.139   0.461  0.1493  0.3596  0.1372
 7786TIP3    H144849   2.200   0.066   0.509  0.6406 -0.5546 -0.8009
 7786TIP3    H244850   2.184   0.214   0.480 -0.0974 -0.1455  1.5136
 7787TIP3   OH244851   0.820   1.409   6.220  0.5164 -0.4463  0.5428
 7787TIP3    H144852   0.854   1.418   6.131  0.7089  1.3944  0.7600
 7787TIP3    H244853   0.726   1.427   6.211 -0.0162 -2.9243  0.3513
 7788TIP3   OH244854   0.671   3.671   1.672  0.1606  0.6922 -0.2699
 7788TIP3    H144855   0.709   3.693   1.587  1.0035  1.1154  0.2016
 7788TIP3    H244856   0.632   3.753   1.702 -2.1394  0.0448 -1.2038
 7789TIP3   OH244857   1.803   3.517   3.777  0.3028 -0.0267  0.0966
 7789TIP3    H144858   1.832   3.607   3.789  0.0289  0.2092 -0.8897
 7789TIP3    H244859   1.850   3.486   3.699 -0.0617 -0.5241  0.0636
 7790TIP3   OH244860   0.336   4.575  15.882  0.3941  0.0362  0.2319
 7790TIP3    H144861   0.297   4.547  15.799 -0.4654 -2.1584  1.3027
 7790TIP3    H244862   0.419   4.529  15.886  0.5934  0.4109  0.4437
 7791TIP3   OH244863   2.004   6.772  12.524 -0.0503  0.3094  0.0903
 7791TIP3    H144864   2.068   6.788  12.455  0.5856 -2.0788  0.0465
 7791TIP3    H244865   2.000   6.855  12.572  1.3031  1.2542 -1.3168
 7792TIP3   OH244866   0.913   3.700  14.384 -0.3233  0.4744 -0.4777
 7792TIP3    H144867   0.952   3.754  14.452 -1.9001  1.9662 -0.6852
 7792TIP3    H244868   0.819   3.699  14.404 -0.4201 -1.8299 -0.7682
 7793TIP3   OH244869   6.073   2.733   0.894  0.0391 -0.0642  0.3624
 7793TIP3    H144870   6.059   2.780   0.812 -0.5457 -0.3947  0.2693
 7793TIP3    H244871   6.114   2.651   0.868 -0.4981 -0.3362  0.3578
 7794TIP3   OH244872   3.632   6.499  11.651  0.2470  0.1274 -0.1846
 7794TIP3    H144873   3.672   6.414  11.631  1.2119  0.4655  0.2448
 7794TIP3    H244874   3.687   6.563  11.605 -0.7883  0.4986 -0.9639
 7795TIP3   OH244875   3.188   6.780  13.770  0.0444 -0.4235  0.0837
 7795TIP3    H144876   3.179   6.872  13.744  2.3511 -0.3128 -0.5642
 7795TIP3    H244877   3.150   6.731  13.696 -1.9367 -0.0450  0.7870
 7796TIP3   OH244878   0.351   4.708  12.194  0.2561 -0.7000  0.4434
 7796TIP3    H144879   0.257   4.688  12.198 -0.4175  1.9632 -0.4385
 7796TIP3    H244880   0.369   4.754  12.275  0.3303  0.4825 -0.2255
 7797TIP3   OH244881   3.572   1.653  14.541 -0.4853 -0.4263 -0.0720
 7797TIP3    H144882   3.521   1.601  14.479 -1.4809 -0.7567  0.9907
 7797TIP3    H244883   3.576   1.741  14.501 -2.6245 -0.1576  0.1946
 7798TIP3   OH244884   4.800   2.039   3.562  0.0910 -0.8688 -0.1244
 7798TIP3    H144885   4.841   1.970   3.511  0.5200  0.0509 -1.0408
 7798TIP3    H244886   4.777   1.997   3.645  1.5954 -1.7659 -0.1294
 7799TIP3   OH244887   6.184   5.449  15.076  0.5233 -0.2683  0.4586
 7799TIP3    H144888   6.109   5.496  15.112 -0.3375 -1.4045  0.1579
 7799TIP3    H244889   6.151   5.364  15.051  2.4239 -1.7899  2.6631
 7800TIP3   OH244890   6.105   4.700   0.732 -0.2698 -0.1999  0.5587
 7800TIP3    H144891   6.014   4.709   0.759 -0.7903  1.3972 -1.4580
 7800TIP3    H244892   6.135   4.790   0.719  1.2028 -0.7461 -0.0021
 7801TIP3   OH244893   5.173   0.933   2.717  0.3441  0.1711 -0.4790
 7801TIP3    H144894   5.093   0.957   2.669  0.3864  0.1064 -0.5824
 7801TIP3    H244895   5.217   0.869   2.661 -0.0247 -0.5485  0.0372
 7802TIP3   OH244896   2.907   5.516   5.381  0.5331 -0.4142  0.5247
 7802TIP3    H144897   2.921   5.550   5.470 -2.1029  1.4738  0.3271
 7802TIP3    H244898   2.961   5.571   5.325 -0.8185  1.0527  0.6059
 7803TIP3   OH244899   2.278   3.787   4.334 -0.2466 -0.2566 -0.0181
 7803TIP3    H144900   2.296   3.818   4.246 -2.8801  0.9433 -0.2448
 7803TIP3    H244901   2.363   3.781   4.376  0.8599  1.7809 -1.7890
 7804TIP3   OH244902   0.507   6.680   1.918  0.7125 -0.2696 -0.1221
 7804TIP3    H144903   0.583   6.665   1.862  0.5969  0.2462 -0.4221
 7804TIP3    H244904   0.432   6.657   1.864  0.6910 -1.9219  0.5573
 7805TIP3   OH244905   0.259   3.485  11.962 -0.1529  0.5374 -0.0360
 7805TIP3    H144906   0.308   3.494  12.044  0.7850 -0.7533 -0.4143
 7805TIP3    H244907   0.171   3.513  11.983  0.0227  0.0254  1.4923
 7806TIP3   OH244908   1.070   2.968  16.641  0.6189  0.2928 -0.2300
 7806TIP3    H144909   1.063   3.041  16.580  0.4277  0.9626  0.5702
 7806TIP3    H244910   1.148   2.920  16.612 -0.8642 -0.8866 -2.5152
 7807TIP3   OH244911   1.427   2.863  13.732  0.6676 -0.0252 -0.6921
 7807TIP3    H144912   1.394   2.773  13.733 -0.5616  0.4021  0.5377
 7807TIP3    H244913   1.447   2.883  13.823 -0.2745  1.3439 -0.7489
 7808TIP3   OH244914   1.576   5.919  13.785 -0.1349  0.2797 -0.2608
 7808TIP3    H144915   1.497   5.965  13.759  1.0610  2.0630 -0.8983
 7808TIP3    H244916   1.593   5.949  13.874  0.4594  0.8310 -0.5530
 7809TIP3   OH244917   3.363   2.460  13.967  0.6022  0.2653  0.0042
 7809TIP3    H144918   3.437   2.502  14.011  1.0576  1.0079 -1.4272
 7809TIP3    H244919   3.387   2.459  13.875 -0.6089 -0.6883 -0.3241
 7810TIP3   OH244920   6.653   6.023   3.505  0.1588 -0.2515  0.3143
 7810TIP3    H144921   6.595   6.096   3.525 -0.9191 -0.5144 -1.5707
 7810TIP3    H244922   6.609   5.946   3.542  0.4342 -0.1630  0.8247
 7811TIP3   OH244923   0.151   0.515   5.901 -0.5978 -0.3431 -0.0254
 7811TIP3    H144924   0.235   0.555   5.925 -1.1475  1.5187 -1.0342
 7811TIP3    H244925   0.104   0.583   5.853 -2.6703 -1.3728  0.4194
 7812TIP3   OH244926   2.603   3.449  10.640 -0.0243  0.1372 -0.9223
 7812TIP3    H144927   2.561   3.460  10.554 -0.1382 -1.0742 -1.0486
 7812TIP3    H244928   2.633   3.358  10.640  0.1518  0.1794  0.2521
 7813TIP3   OH244929   0.883   2.777  16.528 -0.1705  0.1924  0.2307
 7813TIP3    H144930   0.803   2.829  16.531 -0.0571  0.3646  0.2950
 7813TIP3    H244931   0.944   2.822  16.587  0.2645  0.5644 -0.4743
 7814TIP3   OH244932   4.980   6.758  11.584 -0.5475 -0.0774  0.0757
 7814TIP3    H144933   5.009   6.824  11.646 -0.4385 -0.4065  0.3824
 7814TIP3    H244934   4.912   6.801  11.533  0.1770  0.5738 -0.3643
 7815TIP3   OH244935   6.020   2.455   2.774  0.0989 -0.1604  0.6904
 7815TIP3    H144936   6.048   2.380   2.722 -0.8898 -0.4276  0.5234
 7815TIP3    H244937   6.042   2.532   2.721  4.1544 -0.0302  2.2013
 7816TIP3   OH244938   6.606   2.019   1.078 -0.3626 -0.0402 -0.5071
 7816TIP3    H144939   6.680   1.957   1.072  0.2575  0.2137  2.5644
 7816TIP3    H244940   6.529   1.966   1.060  0.3320 -1.2010 -0.1986
 7817TIP3   OH244941   6.719   1.004   5.978  0.3050  0.4458 -0.7406
 7817TIP3    H144942   6.717   1.068   6.049  1.5925 -0.4437  0.1392
 7817TIP3    H244943   6.812   0.982   5.967  0.0670  0.0476 -2.2348
 7818TIP3   OH244944   5.878   3.492   0.171  0.3389 -0.5351 -0.0896
 7818TIP3    H144945   5.825   3.499   0.092  0.7248 -1.3330 -0.4343
 7818TIP3    H244946   5.967   3.474   0.140  0.1431 -2.9563  0.5135
 7819TIP3   OH244947   6.652   3.238  17.170  0.2290 -0.5970 -0.7023
 7819TIP3    H144948   6.637   3.151  17.135  0.2448 -0.5465 -0.8367
 7819TIP3    H244949   6.724   3.227  17.232 -1.3166 -1.1211  1.0856
 7820TIP3   OH244950   4.323   3.750   3.752  0.4277 -0.1031  0.2387
 7820TIP3    H144951   4.267   3.791   3.687 -1.1843 -1.4229  0.7188
 7820TIP3    H244952   4.347   3.821   3.812  0.6765  0.8061 -0.8990
 7821TIP3   OH244953   5.548   5.131   1.128  0.4922  0.1354 -0.0323
 7821TIP3    H144954   5.623   5.147   1.185 -0.8312  0.9798  1.5585
 7821TIP3    H244955   5.536   5.037   1.130  1.4447 -0.0083 -0.2644
 7822TIP3   OH244956   3.110   1.950  16.130 -0.3746  0.4752 -0.1610
 7822TIP3    H144957   3.175   2.013  16.160 -0.7242  0.1323  1.4390
 7822TIP3    H244958   3.127   1.872  16.183 -0.5280 -0.4700 -1.4656
 7823TIP3   OH244959   1.914   2.846   2.669  0.3248 -0.1063 -0.4466
 7823TIP3    H144960   1.975   2.918   2.685 -1.3282  0.7429  3.0704
 7823TIP3    H244961   1.838   2.889   2.630  0.5429 -0.5293 -1.3513
 7824TIP3   OH244962   6.603   1.028  15.419 -0.2851  0.7346  0.3324
 7824TIP3    H144963   6.675   1.024  15.356 -0.0130  3.8558  0.3055
 7824TIP3    H244964   6.564   0.940  15.416  3.4223 -1.0939  0.3348
 7825TIP3   OH244965   3.278   1.565  15.914 -0.2965 -0.1508 -0.5317
 7825TIP3    H144966   3.228   1.646  15.902 -1.0659 -0.5995 -0.4657
 7825TIP3    H244967   3.336   1.583  15.988 -0.6017  0.2836 -0.3919
 7826TIP3   OH244968   1.037   4.964   5.568  0.2660  0.4832 -0.4772
 7826TIP3    H144969   0.944   4.959   5.547  0.5731 -0.9662 -1.6180
 7826TIP3    H244970   1.076   4.888   5.526  1.7432  0.1726  1.3149
 7827TIP3   OH244971   2.088   2.367   0.480 -0.6148 -0.4254 -0.5306
 7827TIP3    H144972   2.089   2.275   0.453  0.4437 -0.1927 -1.3703
 7827TIP3    H244973   2.014   2.406   0.433 -0.6080 -0.6823 -0.7510
 7828TIP3   OH244974   3.402   3.473   5.723 -0.4431  0.9105 -0.0893
 7828TIP3    H144975   3.309   3.461   5.743 -0.4796  1.7580  0.2996
 7828TIP3    H244976   3.411   3.439   5.634 -1.2082  1.1655 -0.2784
 7829TIP3   OH244977   4.294   3.010   5.905  0.2554  0.0776 -0.0143
 7829TIP3    H144978   4.233   3.011   5.979 -2.8942 -1.9536 -2.3204
 7829TIP3    H244979   4.332   3.098   5.904 -2.9596  1.6439  1.3919
 7830TIP3   OH244980   0.140   0.291  13.801  0.0726 -1.0251 -0.1461
 7830TIP3    H144981   0.209   0.358  13.806 -2.2263  1.5753 -1.0412
 7830TIP3    H244982   0.173   0.228  13.736  1.9749 -0.4147  0.1568
 7831TIP3   OH244983   6.034   1.631  14.456  0.0170 -0.0440  0.2888
 7831TIP3    H144984   6.066   1.705  14.508  1.0035 -0.8880  0.9133
 7831TIP3    H244985   5.940   1.630  14.471  0.2639 -0.1558  1.9269
 7832TIP3   OH244986   6.322   4.177  11.304  0.4069 -0.2660  0.1224
 7832TIP3    H144987   6.354   4.104  11.250  0.4161  1.0234 -1.7141
 7832TIP3    H244988   6.387   4.185  11.374  0.5293 -1.8490  0.2346
 7833TIP3   OH244989   0.473   5.817   0.507 -0.0667  0.1974 -0.0135
 7833TIP3    H144990   0.495   5.822   0.600 -1.7019  0.6134  0.3967
 7833TIP3    H244991   0.477   5.724   0.486  0.3970  0.1088  0.4546
 7834TIP3   OH244992   1.454   2.701  11.069 -0.2307  0.3222 -0.8078
 7834TIP3    H144993   1.530   2.660  11.028 -0.4749  0.4989 -1.4431
 7834TIP3    H244994   1.400   2.628  11.099  0.3621  0.1956 -0.0224
 7835TIP3   OH244995   6.686   3.983  10.786  0.4021 -0.0298  0.3476
 7835TIP3    H144996   6.595   3.967  10.759  0.3573 -0.4331  0.7233
 7835TIP3    H244997   6.692   3.945  10.874  1.4059 -1.6024 -0.3463
 7836TIP3   OH244998   3.897   5.877  14.970 -0.5818 -0.4048 -0.3514
 7836TIP3    H144999   3.886   5.789  15.007 -0.6769 -0.6595 -0.9620
 7836TIP3    H245000   3.980   5.908  15.005  0.5917 -1.6518 -1.8582
 7837TIP3   OH245001   1.322   3.989   0.674 -0.0555 -0.1128 -0.2941
 7837TIP3    H145002   1.371   4.037   0.607  0.1704  2.2678  1.4301
 7837TIP3    H245003   1.389   3.944   0.725 -0.0396 -0.1651 -0.3604
 7838TIP3   OH245004   3.480   4.638  10.805 -0.7445 -0.3483 -0.3453
 7838TIP3    H145005   3.520   4.701  10.745 -1.3172 -1.5114 -2.0141
 7838TIP3    H245006   3.525   4.556  10.787 -1.0683 -0.7748  0.6960
 7839TIP3   OH245007   4.111   5.401   5.282 -0.9631  0.3147  0.3109
 7839TIP3    H145008   4.140   5.431   5.196  2.0845 -0.2001  1.0524
 7839TIP3    H245009   4.017   5.383   5.271 -0.5969 -0.1208 -2.9923
 7840TIP3   OH245010   5.493   4.678   6.391  0.2507 -0.0713  0.1638
 7840TIP3    H145011   5.434   4.741   6.432 -0.6997 -1.0370  0.3253
 7840TIP3    H245012   5.453   4.659   6.306 -0.8164 -2.2335  1.0746
 7841TIP3   OH245013   5.531   4.316   1.214  0.6081  0.7213 -0.4478
 7841TIP3    H145014   5.554   4.280   1.128  0.4283  1.8648 -0.9932
 7841TIP3    H245015   5.472   4.389   1.194 -1.4269 -0.5057  0.7621
 7842TIP3   OH245016   1.011   4.621   1.929 -0.1736  0.0027  0.2625
 7842TIP3    H145017   0.985   4.532   1.953 -0.5337  0.1520  0.4391
 7842TIP3    H245018   1.000   4.671   2.010 -2.8772  0.8450 -0.4999
 7843TIP3   OH245019   5.335   0.807   2.524  0.3617 -0.5096 -0.2329
 7843TIP3    H145020   5.350   0.750   2.449 -0.9142 -2.3381  0.8162
 7843TIP3    H245021   5.422   0.829   2.556  0.9975  1.2090 -2.7967
 7844TIP3   OH245022   1.493   2.282  16.781  0.3416  0.0877  0.2497
 7844TIP3    H145023   1.455   2.232  16.854 -0.7713 -0.2086 -0.5085
 7844TIP3    H245024   1.442   2.364  16.779  2.2590  1.3929  1.5901
 7845TIP3   OH245025   4.607   2.773  11.702 -0.6511  0.5864 -0.3425
 7845TIP3    H145026   4.664   2.698  11.682  0.1158  1.0911 -0.1212
 7845TIP3    H245027   4.610   2.826  11.622  0.0232  1.1189  0.0217
 7846TIP3   OH245028   2.386   5.916  11.442 -0.2217 -0.0193  0.0783
 7846TIP3    H145029   2.303   5.882  11.474  0.2996 -2.2878 -0.8208
 7846TIP3    H245030   2.368   5.941  11.351 -0.1165  0.3324  0.1508
 7847TIP3   OH245031   3.370   3.808  13.527  0.1897  0.8281  0.5197
 7847TIP3    H145032   3.394   3.716  13.514 -0.2156  0.8646 -0.6716
 7847TIP3    H245033   3.452   3.851  13.553  0.1461 -0.0536  2.2635
 7848TIP3   OH245034   2.628   2.340   1.191  0.4117  0.4674 -0.2810
 7848TIP3    H145035   2.647   2.313   1.102 -0.8482  0.5757 -0.6063
 7848TIP3    H245036   2.690   2.411   1.209  0.6611  0.4568 -1.0762
 7849TIP3   OH245037   5.695   0.621   3.854  0.0312  0.0777 -0.0212
 7849TIP3    H145038   5.752   0.598   3.927  0.2601  0.4688 -0.0743
 7849TIP3    H245039   5.754   0.631   3.780 -0.0732  0.7115 -0.0239
 7850TIP3   OH245040   0.533   2.419  11.581 -0.4273 -0.3924 -0.4223
 7850TIP3    H145041   0.556   2.326  11.581 -0.7838 -0.5019 -1.7695
 7850TIP3    H245042   0.498   2.435  11.494 -1.0992  0.8409  0.0467
 7851TIP3   OH245043   5.789   1.754  15.283  0.3064  0.7498  0.5171
 7851TIP3    H145044   5.741   1.798  15.213  0.8345  0.2548 -0.1762
 7851TIP3    H245045   5.875   1.735  15.244  0.2477 -0.4703  0.9445
 7852TIP3   OH245046   3.265   2.508   4.457 -0.3169 -0.1295 -0.0034
 7852TIP3    H145047   3.330   2.540   4.520 -0.6031  0.6038 -0.0733
 7852TIP3    H245048   3.286   2.416   4.446 -0.3328 -0.3048  1.2619
 7853TIP3   OH245049   5.977   0.924   6.090 -0.1925 -0.0688 -0.2850
 7853TIP3    H145050   5.899   0.941   6.037 -0.3154  0.0560 -0.0651
 7853TIP3    H245051   6.002   1.011   6.124 -0.7382 -0.2922  0.7318
 7854TIP3   OH245052   3.622   2.908  16.883  0.6758  0.6184  0.1653
 7854TIP3    H145053   3.616   2.997  16.918  0.6556  0.8406 -0.3917
 7854TIP3    H245054   3.538   2.893  16.840  1.4085  1.1149 -1.5262
 7855TIP3   OH245055   1.045   6.430   4.562  0.8412  0.1874  0.4768
 7855TIP3    H145056   1.111   6.395   4.622  1.0757  0.8579  0.6261
 7855TIP3    H245057   1.034   6.521   4.590  2.4481  1.1564 -1.7362
 7856TIP3   OH245058   4.085   5.331  16.666  0.2208  0.0264 -0.1722
 7856TIP3    H145059   4.048   5.377  16.590  0.1366  1.9372  0.9656
 7856TIP3    H245060   4.176   5.361  16.670 -0.1015  0.9017  1.1490
 7857TIP3   OH245061   2.445   5.143   0.029  0.0535 -0.0408  0.6441
 7857TIP3    H145062   2.463   5.237   0.024  0.2494 -0.1084 -3.2615
 7857TIP3    H245063   2.531   5.102   0.034  0.2266 -0.0054 -1.2787
 7858TIP3   OH245064   5.965   2.617   2.375  0.6164 -0.2821  0.6272
 7858TIP3    H145065   5.958   2.526   2.405  1.0007 -0.6943 -0.4569
 7858TIP3    H245066   5.875   2.645   2.361  0.4628 -0.2444  1.6667
 7859TIP3   OH245067   6.679   1.667  13.478 -0.1050  0.0942  0.4806
 7859TIP3    H145068   6.607   1.629  13.428  0.0164 -0.7071  0.9029
 7859TIP3    H245069   6.753   1.609  13.461 -0.2812 -0.6902  2.2687
 7860TIP3   OH245070   3.541   3.969   1.314  0.1335 -0.1257 -0.2545
 7860TIP3    H145071   3.506   3.881   1.327  0.1322  0.0309  0.9242
 7860TIP3    H245072   3.493   4.023   1.377  0.5670  0.6067 -0.5419
 7861TIP3   OH245073   0.887   4.929   6.273 -0.2219 -0.6735  0.3450
 7861TIP3    H145074   0.889   5.019   6.305  0.0459 -0.5012 -0.1507
 7861TIP3    H245075   0.973   4.915   6.234  1.4412 -2.5052  4.0659
 7862TIP3   OH245076   4.503   0.549  16.677  0.0159  0.3057 -0.3932
 7862TIP3    H145077   4.511   0.494  16.599  2.1754 -1.7445  1.1117
 7862TIP3    H245078   4.435   0.506  16.729 -0.0594  0.5257 -0.3116
 7863TIP3   OH245079   6.394   6.196  13.041 -0.1191 -0.8087 -0.0991
 7863TIP3    H145080   6.486   6.173  13.047  0.1856  0.1346 -0.8761
 7863TIP3    H245081   6.391   6.289  13.063 -0.8132 -0.7167 -0.5424
 7864TIP3   OH245082   2.730   5.985   1.440  0.2989 -0.0405 -0.3853
 7864TIP3    H145083   2.713   6.078   1.423 -1.6481 -0.4519 -1.0110
 7864TIP3    H245084   2.816   5.983   1.481  0.1843  2.0845  0.0692
 7865TIP3   OH245085   5.025   6.154  15.678 -0.4924 -0.1933  0.1962
 7865TIP3    H145086   5.048   6.218  15.611  0.1746 -0.6519 -0.0266
 7865TIP3    H245087   5.094   6.163  15.744 -2.1655  1.5939  1.8040
 7866TIP3   OH245088   4.935   4.446   5.627  0.2155 -0.1502  0.0712
 7866TIP3    H145089   5.011   4.445   5.569  1.0497 -0.4400  1.1344
 7866TIP3    H245090   4.960   4.390   5.701 -2.1293 -2.7215 -0.8831
 7867TIP3   OH245091   0.089   4.669  15.298  0.2118 -0.1105 -0.3870
 7867TIP3    H145092   0.130   4.616  15.229  0.3588 -1.0135  0.3746
 7867TIP3    H245093   0.162   4.708  15.345  0.1255 -0.0576 -0.2964
 7868TIP3   OH245094   3.965   3.370   3.931 -0.2510 -0.1825 -0.5959
 7868TIP3    H145095   4.028   3.332   3.870  0.5713  0.9110 -0.4572
 7868TIP3    H245096   3.904   3.418   3.876  1.2018  1.8405 -0.5495
 7869TIP3   OH245097   3.136   0.043  15.594 -0.1706  0.0293  0.2168
 7869TIP3    H145098   3.195   0.109  15.556 -1.4706  1.2137  0.1663
 7869TIP3    H245099   3.070   0.029  15.526  0.0848 -1.3876  0.2174
 7870TIP3   OH245100   0.452   4.548  14.780  0.5146  0.2966 -0.3298
 7870TIP3    H145101   0.370   4.597  14.775  0.9599  1.1998  0.8179
 7870TIP3    H245102   0.520   4.610  14.754  0.9626 -0.0909 -0.1138
 7871TIP3   OH245103   6.663   4.173   3.150 -0.1672 -0.3364 -0.6534
 7871TIP3    H145104   6.752   4.141   3.162  0.0920  0.3129 -0.8057
 7871TIP3    H245105   6.659   4.253   3.202 -1.5108 -1.7800  1.6405
 7872TIP3   OH245106   3.783   2.041  15.229  0.1693  0.4395  0.1433
 7872TIP3    H145107   3.823   2.100  15.165 -0.5591  1.0696  0.2527
 7872TIP3    H245108   3.816   2.072  15.314 -1.0278  1.3874  0.2927
 7873TIP3   OH245109   1.814   1.198  16.281 -0.5511 -0.0711 -0.2352
 7873TIP3    H145110   1.765   1.277  16.259 -0.7099  0.5674  2.0667
 7873TIP3    H245111   1.856   1.171  16.200 -1.3085  1.8046 -1.3042
 7874TIP3   OH245112   2.527   1.141  12.508  0.5838  0.0078 -0.0774
 7874TIP3    H145113   2.588   1.214  12.507 -0.7486  1.1596 -0.2574
 7874TIP3    H245114   2.440   1.182  12.504 -0.1732 -1.6095 -1.0896
 7875TIP3   OH245115   1.972   1.019  17.104 -0.0357  0.0552 -0.3632
 7875TIP3    H145116   1.890   1.057  17.136 -0.6321 -1.2152 -0.3249
 7875TIP3    H245117   2.012   1.088  17.052  0.1672  1.6244  1.7461
 7876TIP3   OH245118   4.426   5.934  16.222 -0.6497 -0.0221  0.6041
 7876TIP3    H145119   4.398   5.984  16.299  0.4049  0.1980  0.8730
 7876TIP3    H245120   4.406   5.991  16.148  1.8282  1.5358  0.9823
 7877TIP3   OH245121   1.067   3.222   1.726  0.0799  0.3470 -0.2134
 7877TIP3    H145122   1.074   3.316   1.742 -2.6106  0.9836 -2.0681
 7877TIP3    H245123   1.090   3.182   1.810 -2.0120  2.8558  1.7186
 7878TIP3   OH245124   5.871   4.668  11.577  0.1733  0.0132  0.7011
 7878TIP3    H145125   5.944   4.715  11.536 -0.9361  1.8482  0.7516
 7878TIP3    H245126   5.877   4.691  11.670 -0.4139  0.0900  0.7210
 7879TIP3   OH245127   1.545   3.953  14.444  0.1046  1.1077  0.2580
 7879TIP3    H145128   1.579   3.939  14.356 -0.9258 -1.2698  0.1423
 7879TIP3    H245129   1.511   4.042  14.443  2.4235  2.0543 -0.8996
 7880TIP3   OH245130   1.433   2.751   1.042  0.0712  0.2352 -0.0156
 7880TIP3    H145131   1.381   2.788   1.114  1.0897 -0.9008  1.3858
 7880TIP3    H245132   1.519   2.793   1.052 -0.2879  1.5297 -1.8346
 7881TIP3   OH245133   5.490   2.962  14.669  0.7167 -0.4300  0.2432
 7881TIP3    H145134   5.495   3.016  14.747 -1.1649 -1.7418  1.3668
 7881TIP3    H245135   5.530   3.015  14.600 -2.3604  3.1582  0.8839
 7882TIP3   OH245136   2.016   4.294  15.288 -0.6234  0.6726 -0.2795
 7882TIP3    H145137   2.007   4.221  15.349  0.9044 -0.7704 -1.6568
 7882TIP3    H245138   1.951   4.277  15.220  0.3444  0.0201 -1.0820
 7883TIP3   OH245139   3.129   6.110  15.337 -0.6464 -0.3493  0.1658
 7883TIP3    H145140   3.197   6.060  15.383 -0.5583 -2.4127 -2.0359
 7883TIP3    H245141   3.177   6.169  15.279 -0.7694 -0.0643  0.3478
 7884TIP3   OH245142   2.918   4.869  16.466  0.3626  0.4765 -0.1141
 7884TIP3    H145143   2.863   4.917  16.404  1.3881  0.4186 -1.0979
 7884TIP3    H245144   3.006   4.873  16.428  0.8696 -0.2469  0.9409
 7885TIP3   OH245145   6.438   6.643  15.193  0.2001  0.5468  0.4763
 7885TIP3    H145146   6.355   6.672  15.230  0.7141  0.3457  1.8615
 7885TIP3    H245147   6.426   6.649  15.099 -1.9729 -1.1281  0.5852
 7886TIP3   OH245148   4.753   1.997  15.466  0.2725  0.0275  0.3153
 7886TIP3    H145149   4.832   1.979  15.414 -1.1572 -1.2053 -1.5752
 7886TIP3    H245150   4.751   2.092  15.475  1.6518  0.1251 -0.1119
 7887TIP3   OH245151   3.476   4.524  11.986  0.7765 -0.0697  0.1033
 7887TIP3    H145152   3.449   4.496  11.899  0.5578  1.7984 -0.4747
 7887TIP3    H245153   3.564   4.488  11.998  1.0435  0.1465 -1.1415
 7888TIP3   OH245154   0.157   3.529   5.346  0.6142  0.3140 -0.8427
 7888TIP3    H145155   0.204   3.583   5.283 -0.5168  0.7713 -1.3236
 7888TIP3    H245156   0.156   3.580   5.426  2.0058 -0.2432 -0.4464
 7889TIP3   OH245157   0.823   3.457  13.674 -0.6011 -0.1448 -0.6168
 7889TIP3    H145158   0.873   3.391  13.721 -1.1551 -0.9474 -1.1461
 7889TIP3    H245159   0.831   3.536  13.728 -1.1126 -1.0104  0.7707
 7890TIP3   OH245160   1.746   4.380   4.167 -0.1337 -0.0289 -0.1106
 7890TIP3    H145161   1.820   4.321   4.180  0.6407  1.0401  0.4859
 7890TIP3    H245162   1.696   4.340   4.096 -0.0737 -1.8076  0.7945
 7891TIP3   OH245163   2.164   0.794  15.475  0.1747 -0.6465  0.6036
 7891TIP3    H145164   2.079   0.823  15.442  0.9822  1.5358  0.2167
 7891TIP3    H245165   2.192   0.725  15.415 -0.5168 -0.0911 -0.3801
 7892TIP3   OH245166   0.716   2.542  15.930  0.0102 -0.4251 -0.2135
 7892TIP3    H145167   0.635   2.592  15.940 -0.9348 -2.0628  0.6931
 7892TIP3    H245168   0.723   2.527  15.836  0.2945  1.3015 -0.5106
 7893TIP3   OH245169   4.429   3.097   4.162 -0.1536 -0.0827  0.4358
 7893TIP3    H145170   4.414   3.106   4.256 -1.8563 -0.0473  0.1948
 7893TIP3    H245171   4.379   3.020   4.136  0.3243 -0.1166 -0.4444
 7894TIP3   OH245172   2.417   3.504  16.714  0.3562 -0.4143 -0.1493
 7894TIP3    H145173   2.356   3.576  16.695  0.2249 -0.7161 -0.9266
 7894TIP3    H245174   2.371   3.425  16.685  0.5329 -0.8085  0.6195
 7895TIP3   OH245175   5.605   2.021   1.887 -0.0215 -0.3208 -0.0894
 7895TIP3    H145176   5.629   1.973   1.966  1.2289  0.7752  0.2104
 7895TIP3    H245177   5.564   2.101   1.918 -0.4655 -0.3495 -0.5761
 7896TIP3   OH245178   3.302   5.845  16.452  0.4192 -0.1698 -0.2101
 7896TIP3    H145179   3.260   5.923  16.417  1.1269 -0.3531 -1.5374
 7896TIP3    H245180   3.355   5.876  16.526 -0.0831  0.4348 -0.1009
 7897TIP3   OH245181   1.960   6.320   3.291 -0.0579 -0.3033 -0.5355
 7897TIP3    H145182   1.977   6.363   3.375 -1.5384  2.7666 -1.6840
 7897TIP3    H245183   1.867   6.294   3.297  0.4469 -2.2959 -0.4022
 7898TIP3   OH245184   0.583   0.183   4.919  0.3815 -0.1581  0.4027
 7898TIP3    H145185   0.611   0.115   4.858  0.2948 -1.1063  1.3908
 7898TIP3    H245186   0.498   0.153   4.951 -0.1181  0.9116  0.1253
 7899TIP3   OH245187   3.571   0.287  12.411 -0.1793  0.1350 -0.8081
 7899TIP3    H145188   3.510   0.360  12.424 -0.9320 -0.3515 -1.4410
 7899TIP3    H245189   3.583   0.250  12.498 -0.7551  0.2825 -0.6582
 7900TIP3   OH245190   1.363   5.670   4.498  0.0828  0.1299  0.1283
 7900TIP3    H145191   1.452   5.675   4.463 -0.1557 -0.7287 -0.6350
 7900TIP3    H245192   1.317   5.743   4.455 -0.2134 -0.9296 -1.4384
 7901TIP3   OH245193   2.946   3.269   4.569  0.1522  0.0626 -0.2274
 7901TIP3    H145194   2.869   3.223   4.537 -0.4276  0.2349  0.8506
 7901TIP3    H245195   3.016   3.204   4.566 -0.1208 -0.2060 -0.8634
 7902TIP3   OH245196   5.886   4.265   2.432 -0.0997  0.3294 -0.2668
 7902TIP3    H145197   5.892   4.289   2.525 -0.5891  0.6521 -0.3153
 7902TIP3    H245198   5.976   4.261   2.402  0.0190  1.2182 -0.0309
 7903TIP3   OH245199   2.327   2.599   3.929  0.1203 -0.2490  0.0392
 7903TIP3    H145200   2.307   2.523   3.874  0.7226 -0.3926  0.0195
 7903TIP3    H245201   2.395   2.569   3.989  0.7274  0.4157 -0.3040
 7904TIP3   OH245202   0.540   5.764   2.113 -0.0243  0.1124  0.2654
 7904TIP3    H145203   0.463   5.749   2.058  0.2025  1.7990 -0.5855
 7904TIP3    H245204   0.559   5.678   2.151  0.1606 -1.3713 -2.7831
 7905TIP3   OH245205   1.232   5.218   3.979 -0.4020  0.0233  1.4062
 7905TIP3    H145206   1.263   5.142   4.028  2.0005 -0.1384 -0.2429
 7905TIP3    H245207   1.280   5.292   4.016  1.8757 -0.1740 -0.9139
 7906TIP3   OH245208   3.787   4.275   2.666  0.3697  0.1745  0.5335
 7906TIP3    H145209   3.692   4.283   2.674  0.0291 -1.6211 -1.0856
 7906TIP3    H245210   3.815   4.358   2.627 -0.1161  1.8015  3.3497
 7907TIP3   OH245211   3.652   2.015  11.531  0.1878 -0.1454  0.0628
 7907TIP3    H145212   3.740   2.008  11.569 -0.0718 -1.0197  0.5432
 7907TIP3    H245213   3.595   2.030  11.606 -0.1409 -0.1746 -0.1811
 7908TIP3   OH245214   3.835   0.622  16.509 -0.2299  0.5391 -0.5195
 7908TIP3    H145215   3.752   0.660  16.481  0.3191  1.6814 -0.6480
 7908TIP3    H245216   3.889   0.697  16.534 -0.4153 -0.3059  2.9890
 7909TIP3   OH245217   6.182   3.603   2.012  0.3239  0.1318  0.2981
 7909TIP3    H145218   6.117   3.626   2.078  0.9406 -0.3085  1.0830
 7909TIP3    H245219   6.132   3.591   1.932 -0.4080  0.9648  0.6089
 7910TIP3   OH245220   2.596   0.536  15.992  0.7061  0.3847  0.4103
 7910TIP3    H145221   2.554   0.450  15.999  0.3925  0.5828  1.1008
 7910TIP3    H245222   2.523   0.598  15.985  0.8025  0.8141  2.4934
 7911TIP3   OH245223   0.348   1.387  15.489  0.3661  0.5161  0.5484
 7911TIP3    H145224   0.423   1.445  15.475  1.0408 -0.2057  1.0771
 7911TIP3    H245225   0.370   1.338  15.568  0.4043 -1.3908 -0.5988
 7912TIP3   OH245226   0.767   1.212   6.414 -0.1815 -0.0836  0.1803
 7912TIP3    H145227   0.810   1.254   6.340  0.6631  0.8738  1.1812
 7912TIP3    H245228   0.688   1.264   6.429 -0.3356 -0.2581 -0.0154
 7913TIP3   OH245229   2.591   4.873  11.356  0.1581  0.2001  0.4542
 7913TIP3    H145230   2.679   4.901  11.330  0.4567 -1.3262 -0.2835
 7913TIP3    H245231   2.606   4.813  11.429 -0.2873  0.1109  0.4772
 7914TIP3   OH245232   2.984   5.384  14.466  0.3395 -0.2170 -0.9891
 7914TIP3    H145233   2.905   5.331  14.459  0.8841 -1.1131 -0.5142
 7914TIP3    H245234   2.955   5.465  14.508  0.1980 -1.8555  2.3985
 7915TIP3   OH245235   5.930   3.943  11.147 -0.4216 -0.3520 -0.1330
 7915TIP3    H145236   5.942   4.022  11.094 -2.3099 -0.4584 -0.8029
 7915TIP3    H245237   5.924   3.976  11.237 -0.0461  0.1426 -0.2873
 7916TIP3   OH245238   6.431   4.919   0.955 -0.0794 -0.5744 -0.1073
 7916TIP3    H145239   6.380   4.838   0.959 -1.5856  0.2720 -1.0197
 7916TIP3    H245240   6.434   4.949   1.046  0.0974 -1.4027  0.1743
 7917TIP3   OH245241   2.913   5.271  17.156  0.1467 -0.0295  0.3384
 7917TIP3    H145242   2.989   5.265  17.215  1.0448 -1.8020 -0.9050
 7917TIP3    H245243   2.917   5.360  17.123  1.1174  0.2195  1.0431
 7918TIP3   OH245244   1.035   3.470  13.506 -0.1065 -0.2392  0.4083
 7918TIP3    H145245   0.954   3.453  13.460  0.5397  0.2114 -0.9320
 7918TIP3    H245246   1.047   3.393  13.563 -1.0240 -0.6963 -0.0071
 7919TIP3   OH245247   1.455   2.946   1.522 -0.1244 -0.0664  0.1345
 7919TIP3    H145248   1.507   2.968   1.444 -1.7931 -2.1955 -1.7577
 7919TIP3    H245249   1.407   3.026   1.543  0.8390  0.7348 -0.6341
 7920TIP3   OH245250   5.722   2.371   1.295  0.5135 -0.0639  0.4082
 7920TIP3    H145251   5.745   2.447   1.349  0.0786  2.2774 -2.4733
 7920TIP3    H245252   5.627   2.364   1.303  0.5638 -0.3834  0.7475
 7921TIP3   OH245253   5.671   3.901   3.633 -0.9890 -0.5954 -0.5204
 7921TIP3    H145254   5.758   3.931   3.661 -0.9818 -0.2079 -0.9341
 7921TIP3    H245255   5.687   3.816   3.593 -0.6474 -0.1173 -1.4351
 7922TIP3   OH245256   0.030   2.205  13.651 -0.1758 -0.6818 -0.6342
 7922TIP3    H145257   0.114   2.200  13.696 -0.2374  0.8445 -0.2659
 7922TIP3    H245258   0.047   2.261  13.575 -0.8261 -0.4254 -0.5984
 7923TIP3   OH245259   1.772   1.520  10.736  0.1360  0.0273 -0.5156
 7923TIP3    H145260   1.861   1.485  10.735 -0.3801 -1.4049  0.7091
 7923TIP3    H245261   1.716   1.444  10.726 -1.0436  0.4146  2.2518
 7924TIP3   OH245262   0.002   3.094  13.371  0.0881 -0.1304 -0.5742
 7924TIP3    H145263   0.038   3.031  13.434 -1.6590  1.8036  2.6275
 7924TIP3    H245264   0.057   3.171  13.381 -1.4793  0.9334  0.2757
 7925TIP3   OH245265   3.760   3.681   0.351 -0.0337 -0.1911 -0.2144
 7925TIP3    H145266   3.832   3.619   0.338  0.1451  0.0372 -0.3208
 7925TIP3    H245267   3.725   3.659   0.437  1.3199  0.8672  0.6492
 7926TIP3   OH245268   6.073   2.345  14.753  0.7936  0.1249  0.0835
 7926TIP3    H145269   6.080   2.421  14.810 -0.3310  1.1894 -1.1441
 7926TIP3    H245270   5.982   2.344  14.723  1.3859 -0.2037 -1.9023
 7927TIP3   OH245271   4.123   5.064  15.829 -0.0254 -0.1899 -0.0577
 7927TIP3    H145272   4.041   5.069  15.779 -0.1912 -1.9891 -0.0190
 7927TIP3    H245273   4.158   4.977  15.810  2.2237  0.7429 -0.5433
 7928TIP3   OH245274   0.876   4.419   3.724 -0.0290  0.4933 -0.1220
 7928TIP3    H145275   0.805   4.453   3.669 -0.9270  0.0145  0.7261
 7928TIP3    H245276   0.948   4.480   3.709 -0.1065  0.1584 -2.1323
 7929TIP3   OH245277   1.485   0.920   2.964 -0.0457 -0.4477 -0.3555
 7929TIP3    H145278   1.471   0.878   3.049  0.1627  1.0120  0.4451
 7929TIP3    H245279   1.471   0.851   2.900 -3.4042 -0.9085  0.6855
 7930TIP3   OH245280   5.211   0.048   0.450 -0.1225  0.0770 -0.3099
 7930TIP3    H145281   5.183  -0.038   0.479  0.8002 -0.6394 -1.4659
 7930TIP3    H245282   5.257   0.086   0.525  0.0486 -0.6994 -0.0225
 7931TIP3   OH245283   0.071   3.035   0.148  0.0077  0.3353  0.0749
 7931TIP3    H145284   0.078   2.992   0.063  1.1297 -0.5817  0.6024
 7931TIP3    H245285   0.143   3.098   0.150  0.7907 -0.5426  0.8091
 7932TIP3   OH245286   3.886   2.998   1.416 -0.5123 -0.0140 -0.0162
 7932TIP3    H145287   3.918   2.998   1.326 -0.9424  0.1341 -0.1733
 7932TIP3    H245288   3.937   3.067   1.460 -0.3769 -0.0154 -0.1726
 7933TIP3   OH245289   3.941   2.802  16.979  0.1451  0.4147 -0.1209
 7933TIP3    H145290   3.913   2.890  16.954  0.2995  0.5686  0.2417
 7933TIP3    H245291   3.918   2.747  16.904 -0.1372  0.7278 -0.2651
 7934TIP3   OH245292   0.512   5.285   5.312 -0.6766 -0.7784 -0.9217
 7934TIP3    H145293   0.554   5.225   5.251 -0.9673  0.6240 -2.5878
 7934TIP3    H245294   0.442   5.325   5.261 -2.6261 -1.4284  1.1355
 7935TIP3   OH245295   3.907   0.100  13.907 -0.5166 -0.0849  0.3623
 7935TIP3    H145296   3.890   0.138  13.821  0.7190 -1.6843 -0.6543
 7935TIP3    H245297   3.826   0.052  13.928 -0.1389 -1.3372 -0.8789
 7936TIP3   OH245298   5.421   2.985  15.929  0.0652  0.1099  0.6165
 7936TIP3    H145299   5.449   2.956  16.016 -0.0611 -1.2409  0.2158
 7936TIP3    H245300   5.337   2.941  15.914 -0.1050  0.6352 -0.0436
 7937TIP3   OH245301   5.214   4.050   4.615 -0.0285 -0.1632 -0.5065
 7937TIP3    H145302   5.227   4.133   4.570 -0.3155 -0.5390 -1.2920
 7937TIP3    H245303   5.152   4.002   4.560 -3.6022  0.8725  2.1870
 7938TIP3   OH245304   5.739   2.324  12.320 -0.1591  0.4314  0.0722
 7938TIP3    H145305   5.683   2.359  12.389 -2.2966  1.2431 -1.9330
 7938TIP3    H245306   5.775   2.243  12.356 -1.9666  0.3326  1.7785
 7939TIP3   OH245307   2.348   1.932  13.958  0.1660  0.7951  0.5853
 7939TIP3    H145308   2.320   1.989  13.887 -1.5848  0.7302  1.1792
 7939TIP3    H245309   2.267   1.890  13.988  1.1723 -0.7702  1.2326
 7940TIP3   OH245310   0.892   3.143  15.207  0.6909  0.0543 -0.1021
 7940TIP3    H145311   0.984   3.126  15.224  1.0979 -0.1308 -2.2214
 7940TIP3    H245312   0.889   3.233  15.177  0.1399  0.1077  0.0936
 7941TIP3   OH245313   2.052   1.937  15.813 -0.4804 -0.1953  0.2921
 7941TIP3    H145314   1.989   1.999  15.776  1.0417  1.1978 -0.0959
 7941TIP3    H245315   2.023   1.925  15.903 -2.2194 -0.8830 -0.3217
 7942TIP3   OH245316   6.292   5.070  16.001  0.3095 -0.7684  0.4867
 7942TIP3    H145317   6.375   5.092  16.043  1.3151 -0.2772 -1.6336
 7942TIP3    H245318   6.282   4.976  16.016  1.9354 -1.1066 -0.3297
 7943TIP3   OH245319   4.493   2.227   3.808 -0.0190  0.3275  0.6705
 7943TIP3    H145320   4.564   2.192   3.863  0.0694 -0.0456  0.3182
 7943TIP3    H245321   4.415   2.218   3.862 -1.0465 -5.3746 -1.1639
 7944TIP3   OH245322   1.337   4.754  13.373  0.1643  0.2147  0.2342
 7944TIP3    H145323   1.415   4.795  13.334 -0.8462 -0.1994 -2.4565
 7944TIP3    H245324   1.281   4.827  13.398  1.0052  0.5001  1.3688
 7945TIP3   OH245325   3.196   4.381  12.395 -0.1778 -0.2012 -0.2701
 7945TIP3    H145326   3.118   4.436  12.400 -0.8321 -1.1822  0.7454
 7945TIP3    H245327   3.165   4.298  12.357  0.5962 -0.2331 -0.8654
 7946TIP3   OH245328   4.014   4.363   3.780  0.0006  0.4909  0.3087
 7946TIP3    H145329   4.051   4.291   3.832 -1.3967  0.0797  0.7747
 7946TIP3    H245330   4.069   4.367   3.702  1.3250  0.2379  1.1941
 7947TIP3   OH245331   3.837   0.860   2.515 -1.0762  0.5678 -0.7472
 7947TIP3    H145332   3.827   0.937   2.459  1.6039  0.5531 -1.3485
 7947TIP3    H245333   3.867   0.895   2.599 -2.0658  0.3237 -0.2749
 7948TIP3   OH245334   3.195   2.858  12.258  0.2244 -0.2869  0.0896
 7948TIP3    H145335   3.130   2.856  12.188 -0.9083  1.6926  1.0180
 7948TIP3    H245336   3.265   2.914  12.225 -0.3288  0.6800  0.5414
 7949TIP3   OH245337   0.433   3.210  12.083  0.5015  0.2135  0.0326
 7949TIP3    H145338   0.383   3.269  12.026  0.9546  0.5283 -0.0510
 7949TIP3    H245339   0.509   3.185  12.030 -0.2476 -1.3757 -0.3547
 7950TIP3   OH245340   4.707   3.636   5.445 -0.0564 -0.0978  0.2091
 7950TIP3    H145341   4.725   3.542   5.439  0.7510  0.0776 -0.2138
 7950TIP3    H245342   4.701   3.653   5.539 -0.3592 -0.6002  0.2844
 7951TIP3   OH245343   2.466   1.225   5.020  0.0597 -0.1111 -0.0412
 7951TIP3    H145344   2.382   1.262   5.047 -0.1857 -0.5695 -0.1701
 7951TIP3    H245345   2.473   1.143   5.069 -0.6506 -1.2468 -1.7531
 7952TIP3   OH245346   6.652   5.136   5.142 -0.0204  0.7335 -0.6240
 7952TIP3    H145347   6.634   5.098   5.228 -0.4462  2.4390  0.1006
 7952TIP3    H245348   6.721   5.081   5.105 -0.1924 -0.3486  0.5780
 7953TIP3   OH245349   6.196   0.467  16.648 -0.2151  0.3928 -0.2041
 7953TIP3    H145350   6.205   0.394  16.709  1.2141  0.9553  0.3179
 7953TIP3    H245351   6.223   0.432  16.564 -3.2416 -0.6874 -0.8268
 7954TIP3   OH245352   4.854   2.811   2.829  0.1448 -0.7651 -0.1145
 7954TIP3    H145353   4.848   2.736   2.887 -1.2007  0.0625  0.8842
 7954TIP3    H245354   4.843   2.887   2.887 -1.8103  0.0745 -1.4578
 7955TIP3   OH245355   2.704   0.064   0.851 -0.3180 -0.1686  0.3488
 7955TIP3    H145356   2.688  -0.024   0.819 -0.7451 -0.4319  1.2486
 7955TIP3    H245357   2.798   0.066   0.872 -0.6230 -0.9859  1.9479
 7956TIP3   OH245358   2.520   2.755  12.558  0.2005 -0.1401 -0.3228
 7956TIP3    H145359   2.575   2.769  12.481 -0.1071 -0.0694 -0.5296
 7956TIP3    H245360   2.516   2.841  12.600 -0.6112  0.1064 -0.8803
 7957TIP3   OH245361   6.464   3.654  12.345  0.2573 -0.2097  0.2026
 7957TIP3    H145362   6.397   3.713  12.381 -0.3023 -1.1915  0.8105
 7957TIP3    H245363   6.414   3.581  12.309  0.9854 -0.8008  0.3708
 7958TIP3   OH245364   5.088   1.890  15.612  0.4032 -1.3798  0.2786
 7958TIP3    H145365   5.091   1.951  15.538 -0.5354 -0.3401  1.0703
 7958TIP3    H245366   5.128   1.810  15.578 -0.3638 -1.0633 -1.4889
 7959TIP3   OH245367   4.477   6.088   5.328  0.0977  0.3995 -0.4081
 7959TIP3    H145368   4.385   6.101   5.306  0.5423  1.3688 -1.8000
 7959TIP3    H245369   4.491   5.994   5.318 -0.7723  0.2215 -0.0125
 7960TIP3   OH245370   5.012   0.858   1.352 -0.3132  0.0292 -0.3314
 7960TIP3    H145371   4.940   0.798   1.333 -0.9044  0.4100  0.5858
 7960TIP3    H245372   5.085   0.801   1.377 -0.2541 -0.3658 -1.3691
 7961TIP3   OH245373   1.054   1.055   1.187  0.1465 -0.2602  0.0721
 7961TIP3    H145374   1.131   1.088   1.141 -0.0081 -0.6414 -0.4815
 7961TIP3    H245375   1.052   0.962   1.165 -1.2937  0.0125 -1.1750
 7962TIP3   OH245376   2.081   6.264  11.628  0.3279  0.0692 -0.0115
 7962TIP3    H145377   2.062   6.250  11.721 -1.4639  2.2860  0.0666
 7962TIP3    H245378   2.169   6.302  11.627  0.1023  0.6526  0.8785
 7963TIP3   OH245379   3.958   1.968  11.235 -0.2105 -0.0173 -0.2120
 7963TIP3    H145380   4.002   1.891  11.199 -0.1652 -0.8461  1.4985
 7963TIP3    H245381   3.925   2.015  11.159 -1.0191 -2.2044 -1.3061
 7964TIP3   OH245382   0.498   0.992   3.056 -0.1011 -0.1432  0.6901
 7964TIP3    H145383   0.419   0.942   3.076  0.6933 -2.3494 -1.2547
 7964TIP3    H245384   0.569   0.942   3.096  0.8081 -1.1228 -1.9359
 7965TIP3   OH245385   1.327   4.480  13.295  0.1439 -0.1303  0.3331
 7965TIP3    H145386   1.334   4.456  13.202  2.3898 -0.4940  0.5374
 7965TIP3    H245387   1.355   4.571  13.298  0.6040 -0.2796  0.7037
 7966TIP3   OH245388   3.685   5.212   5.473 -0.4102 -0.3232  0.5770
 7966TIP3    H145389   3.749   5.150   5.508  0.1865 -0.0828 -0.0517
 7966TIP3    H245390   3.612   5.157   5.445 -0.6102 -0.5746  1.5638
 7967TIP3   OH245391   2.882   2.315  15.405 -0.0441  0.4305 -0.3263
 7967TIP3    H145392   2.806   2.362  15.372  0.9728  1.8298 -0.7776
 7967TIP3    H245393   2.942   2.384  15.434  1.0560 -0.6284 -0.0110
 7968TIP3   OH245394   4.647   1.660   3.052  0.1567  0.0587 -0.1361
 7968TIP3    H145395   4.562   1.640   3.014 -0.0482  2.2783 -0.9705
 7968TIP3    H245396   4.689   1.719   2.989  1.1902  1.1348  1.4747
 7969TIP3   OH245397   0.441   6.744  16.309  0.5735 -0.2516 -0.9518
 7969TIP3    H145398   0.368   6.681  16.310 -1.4187  1.9240 -0.8760
 7969TIP3    H245399   0.490   6.725  16.389 -0.8410 -0.7438 -0.1673
 7970TIP3   OH245400   6.582   3.280   2.600 -0.2097 -0.4284  0.0506
 7970TIP3    H145401   6.506   3.313   2.552 -0.2682  0.3077  0.6222
 7970TIP3    H245402   6.579   3.185   2.588 -0.8093 -0.3419 -0.5296
 7971TIP3   OH245403   0.954   2.340   5.796  0.5820  0.2294 -0.6840
 7971TIP3    H145404   0.891   2.407   5.823  0.3727 -0.0162 -0.5588
 7971TIP3    H245405   1.029   2.354   5.854  0.6500  0.5263 -0.8377
 7972TIP3   OH245406   5.313   5.729   5.384  0.2038  0.9729 -0.4577
 7972TIP3    H145407   5.397   5.688   5.361 -0.8244 -1.0817 -0.8101
 7972TIP3    H245408   5.319   5.747   5.477  0.9680  0.6649 -0.4430
 7973TIP3   OH245409   5.217   4.845  15.141 -0.3287  0.2027 -0.3026
 7973TIP3    H145410   5.152   4.808  15.201  2.2557 -0.3512  2.4076
 7973TIP3    H245411   5.230   4.934  15.172 -0.1934  0.4830 -1.1567
 7974TIP3   OH245412   5.376   1.806  14.493  0.4815  0.1158 -0.2891
 7974TIP3    H145413   5.458   1.771  14.527  1.2132 -0.0631 -2.1205
 7974TIP3    H245414   5.402   1.882  14.441 -0.3448 -0.6868 -1.9351
 7975TIP3   OH245415   4.063   5.754  12.089 -0.2238 -0.1550 -0.1631
 7975TIP3    H145416   4.056   5.848  12.104  1.0232 -0.3304  1.9364
 7975TIP3    H245417   4.146   5.729  12.129 -0.9839 -2.2952  0.2336
 7976TIP3   OH245418   2.960   0.298   0.334 -0.1206 -0.4930 -0.6390
 7976TIP3    H145419   2.979   0.268   0.423  0.7422 -1.7337 -1.2106
 7976TIP3    H245420   3.008   0.380   0.325  0.2008 -0.6216 -0.1281
 7977TIP3   OH245421   5.146   2.026   6.341  0.2591 -0.4997  0.4509
 7977TIP3    H145422   5.098   2.098   6.299  0.4519 -0.6592 -0.0592
 7977TIP3    H245423   5.106   2.017   6.427  1.2434  1.2400  1.1515
 7978TIP3   OH245424   0.538   0.878   5.203  0.0231  0.5338 -0.2884
 7978TIP3    H145425   0.478   0.906   5.272 -0.0700  0.4857 -0.3485
 7978TIP3    H245426   0.513   0.787   5.185  1.7394 -0.3308  1.4072
 7979TIP3   OH245427   6.217   5.660  16.185 -0.1285  0.2159 -0.3876
 7979TIP3    H145428   6.254   5.630  16.268 -1.1531 -1.5629 -0.5340
 7979TIP3    H245429   6.128   5.625  16.184 -0.1351  0.1905 -2.2299
 7980TIP3   OH245430   4.781   2.146   1.415  1.1260 -0.1493  0.4350
 7980TIP3    H145431   4.810   2.075   1.358 -0.4626  0.1832 -0.8729
 7980TIP3    H245432   4.795   2.113   1.504  2.6940 -1.0964 -0.1251
 7981TIP3   OH245433   5.617   2.675  12.043  0.4205  0.1411  0.0626
 7981TIP3    H145434   5.532   2.650  12.078  0.8627 -0.0097  1.0661
 7981TIP3    H245435   5.624   2.769  12.063  0.2774  0.2674 -0.4746
 7982TIP3   OH245436   0.006   1.243  16.562  0.0449  0.3130  0.0902
 7982TIP3    H145437   0.030   1.151  16.568  1.8640  0.8186  1.8464
 7982TIP3    H245438   0.052   1.284  16.635  1.9887  3.1823 -2.5422
 7983TIP3   OH245439   1.471   0.591   0.490  0.0014 -0.0018  0.2169
 7983TIP3    H145440   1.555   0.558   0.460  1.1070  1.2417  1.7731
 7983TIP3    H245441   1.444   0.530   0.559 -0.7283 -0.7695 -0.7196
 7984TIP3   OH245442   1.516   3.769  13.870 -0.0504  0.1305  0.2960
 7984TIP3    H145443   1.600   3.795  13.907  0.6698 -0.8692 -0.5643
 7984TIP3    H245444   1.475   3.716  13.939  1.5810 -2.3017 -0.4566
 7985TIP3   OH245445   2.248   2.448  13.686 -0.0621  0.5052  0.5400
 7985TIP3    H145446   2.340   2.460  13.709 -0.2201  1.1303  0.8552
 7985TIP3    H245447   2.246   2.459  13.591  0.1558  0.6927  0.5568
 7986TIP3   OH245448   1.322   4.380  11.812 -0.1665 -0.4558 -0.0575
 7986TIP3    H145449   1.356   4.359  11.899  2.4827 -0.2664 -0.9517
 7986TIP3    H245450   1.323   4.297  11.765 -0.8791 -0.4226 -0.1389
 7987TIP3   OH245451   2.464   2.836   2.292 -0.2071  0.6336  0.0803
 7987TIP3    H145452   2.539   2.836   2.351  1.1097  0.9827 -1.4954
 7987TIP3    H245453   2.484   2.768   2.228 -1.8702 -0.1349  0.3493
 7988TIP3   OH245454   3.139   0.968  14.708 -0.0371 -0.4236  0.1219
 7988TIP3    H145455   3.083   0.893  14.687 -0.0587 -0.8239  1.4574
 7988TIP3    H245456   3.096   1.009  14.783  1.4387 -0.7515  1.1905
 7989TIP3   OH245457   6.578   4.351  15.862  0.1412 -0.6072  0.3720
 7989TIP3    H145458   6.644   4.411  15.898  1.8334 -0.9546 -1.9237
 7989TIP3    H245459   6.600   4.266  15.898  0.4558 -0.5810  0.2464
 7990TIP3   OH245460   0.891   2.859  12.774  0.2042 -0.1043  0.1723
 7990TIP3    H145461   0.971   2.911  12.770  0.5799 -0.6589  0.2978
 7990TIP3    H245462   0.846   2.877  12.692  0.6219 -0.0420 -0.0459
 7991TIP3   OH245463   4.430   3.538   4.932  0.6214  0.3105  0.8155
 7991TIP3    H145464   4.431   3.485   5.011 -1.2582  0.2457  0.8334
 7991TIP3    H245465   4.493   3.495   4.874  1.2364 -0.2538  1.8687
 7992TIP3   OH245466   6.761   5.543  15.335  0.0894 -0.6045  0.2414
 7992TIP3    H145467   6.827   5.600  15.373 -0.3482 -0.4616  0.8091
 7992TIP3    H245468   6.704   5.602  15.285  1.2823 -0.9276 -1.5745
 7993TIP3   OH245469   3.186   4.228  15.614  0.4835 -0.3565 -0.4204
 7993TIP3    H145470   3.132   4.207  15.690  0.4536  0.1370 -0.3059
 7993TIP3    H245471   3.228   4.145  15.592 -2.1623 -1.4150 -2.0057
 7994TIP3   OH245472   3.785   1.520   4.855 -0.6061  0.1378 -0.3058
 7994TIP3    H145473   3.877   1.514   4.882 -0.7412 -0.9949 -0.0640
 7994TIP3    H245474   3.755   1.604   4.892 -0.1732 -0.3319  1.1811
 7995TIP3   OH245475   5.913   1.797  13.363  0.0553  0.1617 -0.8492
 7995TIP3    H145476   5.882   1.873  13.315 -1.9045  0.0480  0.1295
 7995TIP3    H245477   5.857   1.725  13.334  0.8932 -0.5844 -0.6684
 7996TIP3   OH245478   0.462   4.542  12.994 -0.0713 -0.3082 -0.5088
 7996TIP3    H145479   0.380   4.508  12.957 -1.7716  1.3192  1.5563
 7996TIP3    H245480   0.493   4.473  13.052 -0.2658 -0.6974 -0.8637
 7997TIP3   OH245481   0.529   5.786  11.508  0.6386  0.5187 -0.4246
 7997TIP3    H145482   0.496   5.720  11.569 -0.0808  1.7111  0.5273
 7997TIP3    H245483   0.472   5.778  11.431 -0.4636  1.0568  0.3140
 7998TIP3   OH245484   2.327   6.231   5.895  0.1151 -0.2066 -0.3748
 7998TIP3    H145485   2.261   6.290   5.932  1.0091  1.0166 -0.6536
 7998TIP3    H245486   2.278   6.170   5.841 -1.1390 -1.3812  1.9167
 7999TIP3   OH245487   6.555   1.423   5.572 -0.2089 -0.6870  0.0071
 7999TIP3    H145488   6.643   1.457   5.552 -0.2490 -1.6060 -1.9899
 7999TIP3    H245489   6.500   1.455   5.500 -1.2223 -1.2276  0.5245
 8000TIP3   OH245490   5.545   5.720   2.775 -0.0505  0.0451 -0.0957
 8000TIP3    H145491   5.589   5.791   2.823 -0.4379 -0.6024  1.2652
 8000TIP3    H245492   5.595   5.712   2.694  0.7421  1.0746  0.2670
 8001TIP3   OH245493   3.157   2.364  17.128  0.4233 -0.3499 -0.1739
 8001TIP3    H145494   3.129   2.279  17.093 -1.0364  0.3424 -0.8162
 8001TIP3    H245495   3.126   2.365  17.218 -1.6315  0.3347 -0.8261
 8002TIP3   OH245496   0.482   6.328   4.078 -0.5673  0.4290  0.4439
 8002TIP3    H145497   0.490   6.270   4.003  1.2656 -1.4381  1.9680
 8002TIP3    H245498   0.406   6.383   4.058 -0.4126 -0.2655 -2.5263
 8003TIP3   OH245499   2.389   0.985   0.711 -0.6354 -0.0415 -0.1612
 8003TIP3    H145500   2.296   0.999   0.695  0.0072  2.5575 -2.3707
 8003TIP3    H245501   2.432   1.016   0.631  2.1701 -0.9445  0.8701
 8004TIP3   OH245502   0.107   5.493   4.318  0.5150  0.0413 -0.4377
 8004TIP3    H145503   0.199   5.471   4.332  1.3821  2.4709 -1.6892
 8004TIP3    H245504   0.081   5.440   4.242  1.3981  0.5438 -1.1012
 8005TIP3   OH245505   2.460   5.413   0.014  0.4088 -0.2716  0.7488
 8005TIP3    H145506   2.521   5.476  -0.024  1.0694 -0.9442  0.6910
 8005TIP3    H245507   2.391   5.468   0.052  0.0420  0.4303 -0.8545
 8006TIP3   OH245508   6.146   1.904   2.290 -0.3872 -0.0428 -0.4637
 8006TIP3    H145509   6.128   1.994   2.262 -0.8636  0.1643  0.4742
 8006TIP3    H245510   6.119   1.850   2.216  1.1071  0.6399 -1.5734
 8007TIP3   OH245511   1.312   0.438   1.382  0.1379 -0.0463 -0.3611
 8007TIP3    H145512   1.331   0.353   1.342 -0.5487 -0.3355 -0.0920
 8007TIP3    H245513   1.354   0.435   1.468 -0.1970 -0.2659 -0.2015
 8008TIP3   OH245514   0.437   4.102   1.147  0.6984  0.1386 -0.4330
 8008TIP3    H145515   0.414   4.101   1.240  0.5283  0.2069 -0.4743
 8008TIP3    H245516   0.431   4.194   1.122  0.1782  0.0499 -0.6517
 8009TIP3   OH245517   1.005   0.858  12.483  0.2269 -0.5166  0.0855
 8009TIP3    H145518   1.088   0.838  12.439 -0.8414  0.2659 -2.5014
 8009TIP3    H245519   1.020   0.943  12.524  1.2692 -1.2796  1.3723
 8010TIP3   OH245520   0.790   4.104   0.443 -0.5641  0.2450 -1.0619
 8010TIP3    H145521   0.771   4.041   0.373 -0.0052  0.0890 -1.0734
 8010TIP3    H245522   0.884   4.119   0.437 -0.0476 -1.5301  1.0967
 8011TIP3   OH245523   2.960   0.984  14.462 -0.1246  0.0626  0.3143
 8011TIP3    H145524   2.917   0.966  14.379  0.3599  1.8979 -0.3967
 8011TIP3    H245525   2.890   0.986  14.526 -0.5779 -0.8122 -0.1443
 8012TIP3   OH245526   3.982   4.025  11.694 -0.4567  0.5595  0.9890
 8012TIP3    H145527   3.929   4.056  11.621  0.3790 -1.3282 -0.5068
 8012TIP3    H245528   3.920   4.015  11.766 -1.8704 -0.1614 -0.2804
 8013TIP3   OH245529   4.094   6.489   4.756  0.0819 -0.3029  0.1138
 8013TIP3    H145530   4.047   6.541   4.690 -0.8336  0.6381  1.4521
 8013TIP3    H245531   4.130   6.555   4.816  1.9832 -1.0801 -0.1150
 8014TIP3   OH245532   4.982   5.546  12.402 -0.6047  0.7924  0.3238
 8014TIP3    H145533   4.951   5.480  12.341 -1.9609  0.5572  1.2274
 8014TIP3    H245534   4.955   5.630  12.365  1.0289  0.8797 -0.7713
 8015TIP3   OH245535   1.687   3.880   6.204 -0.5359  0.3673  0.3758
 8015TIP3    H145536   1.651   3.852   6.120 -0.2303  0.7809  0.1000
 8015TIP3    H245537   1.625   3.946   6.235  0.8698  2.4889 -0.9963
 8016TIP3   OH245538   2.292   4.509   5.762 -0.1157 -0.1978  0.9053
 8016TIP3    H145539   2.273   4.416   5.773 -0.8644  0.0559  1.9234
 8016TIP3    H245540   2.207   4.548   5.740  0.5001  0.0165 -1.2866
 8017TIP3   OH245541   1.786   3.882  11.747 -0.3698  0.0250  0.0387
 8017TIP3    H145542   1.848   3.811  11.766 -1.0791 -0.9296 -1.0664
 8017TIP3    H245543   1.829   3.933  11.678 -0.4667 -0.1894 -0.1848
 8018TIP3   OH245544   1.607   4.829  17.003  0.0482 -0.2556  0.5048
 8018TIP3    H145545   1.681   4.878  17.040 -1.6876  2.1173  1.0768
 8018TIP3    H245546   1.534   4.849  17.061 -0.8977 -3.3866  0.5822
 8019TIP3   OH245547   6.504   2.412  14.702  0.0112 -0.5369 -0.0216
 8019TIP3    H145548   6.448   2.383  14.774  1.2788 -0.4495  1.0501
 8019TIP3    H245549   6.576   2.349  14.701  0.7910  0.3312 -0.2163
 8020TIP3   OH245550   6.179   2.860  11.765  0.0853  0.1553  0.7872
 8020TIP3    H145551   6.179   2.926  11.696  2.2680  0.1623  0.7334
 8020TIP3    H245552   6.089   2.861  11.799 -1.0961  0.1488 -2.0274
 8021TIP3   OH245553   3.630   4.800   4.738 -0.6539  0.0149 -0.1052
 8021TIP3    H145554   3.704   4.801   4.678 -1.1715  0.7881 -0.7492
 8021TIP3    H245555   3.604   4.708   4.744 -0.5072 -0.0842 -0.9501
 8022TIP3   OH245556   1.340   0.169   6.170 -0.2837 -0.2053 -0.0970
 8022TIP3    H145557   1.256   0.208   6.194  0.1588  0.1707  0.8493
 8022TIP3    H245558   1.320   0.118   6.091 -1.1225  0.9441 -0.6511
 8023TIP3   OH245559   1.801   0.281   4.134  0.1618 -0.0425 -1.1672
 8023TIP3    H145560   1.831   0.276   4.044  1.2481  0.4102 -0.8489
 8023TIP3    H245561   1.814   0.193   4.169  0.8089  0.0597 -1.1380
 8024TIP3   OH245562   4.314   1.715  17.164 -0.0233  0.2573 -0.1041
 8024TIP3    H145563   4.262   1.794  17.151 -0.7620  0.3906  2.9963
 8024TIP3    H245564   4.402   1.746  17.182 -0.2019  0.3564  0.6076
 8025TIP3   OH245565   0.463   2.470   0.455  0.0413  0.1447 -0.3409
 8025TIP3    H145566   0.435   2.380   0.474 -0.4722  0.2297 -0.6669
 8025TIP3    H245567   0.551   2.476   0.491 -0.5320  0.0102  1.1249
 8026TIP3   OH245568   5.128   1.353   6.314  0.1193 -0.4570 -0.3432
 8026TIP3    H145569   5.142   1.267   6.275  0.4358 -1.2569  1.4124
 8026TIP3    H245570   5.211   1.374   6.357 -0.6230 -0.3312  1.1144
 8027TIP3   OH245571   4.241   1.877   5.381  0.0111  0.6551  0.4857
 8027TIP3    H145572   4.205   1.812   5.442 -0.4889 -0.9186 -1.3943
 8027TIP3    H245573   4.198   1.959   5.406 -0.7716 -0.0925  1.7339
 8028TIP3   OH245574   2.528   6.664   1.419  0.0592 -0.9886  0.0175
 8028TIP3    H145575   2.439   6.686   1.445  0.3845  0.1626  0.2113
 8028TIP3    H245576   2.583   6.698   1.489  0.7221 -0.8209 -0.5729
 8029TIP3   OH245577   0.581   6.285   3.349  0.4693  0.3419 -0.7624
 8029TIP3    H145578   0.500   6.298   3.300 -0.2346  1.2565  0.5734
 8029TIP3    H245579   0.600   6.192   3.341 -2.1888 -0.4917  1.0220
 8030TIP3   OH245580   1.997   5.326   0.638 -0.0995  0.5869  0.3750
 8030TIP3    H145581   1.921   5.383   0.648 -1.0520  0.0891 -2.9158
 8030TIP3    H245582   1.961   5.238   0.633  0.7966  0.2314 -0.1266
 8031TIP3   OH245583   3.179   2.420  11.873 -0.3639 -0.1378  0.0051
 8031TIP3    H145584   3.199   2.488  11.809  1.1712  0.0243  0.6084
 8031TIP3    H245585   3.261   2.407  11.920 -1.5518  0.0800  2.2690
 8032TIP3   OH245586   4.017   1.273  15.673  0.1870  0.1535  0.2530
 8032TIP3    H145587   3.993   1.270  15.580 -1.0969  0.0798  0.5633
 8032TIP3    H245588   4.029   1.365  15.692 -0.2983  0.2294  0.1933
 8033TIP3   OH245589   1.463   3.548  15.458 -0.2084 -0.2336  0.0584
 8033TIP3    H145590   1.409   3.594  15.522  1.5742  1.7488  0.2500
 8033TIP3    H245591   1.546   3.595  15.459  0.8958 -2.0231 -1.5506
 8034TIP3   OH245592   1.846   2.626  11.691  0.3165 -0.4444  0.0665
 8034TIP3    H145593   1.889   2.689  11.633  0.8272 -0.0966  0.8004
 8034TIP3    H245594   1.811   2.559  11.633  1.5869 -0.5765 -0.5738
 8035TIP3   OH245595   5.786   0.271   2.842  0.3818  0.0983 -0.0601
 8035TIP3    H145596   5.766   0.178   2.835 -0.7987  0.4307 -2.1531
 8035TIP3    H245597   5.841   0.279   2.920  2.1984 -2.6027 -0.9358
 8036TIP3   OH245598   4.810   2.148   2.929  0.7857 -0.4068 -0.1828
 8036TIP3    H145599   4.765   2.209   2.871 -0.3980 -1.1481 -0.0576
 8036TIP3    H245600   4.790   2.179   3.017 -0.3289 -1.2991 -0.1002
 8037TIP3   OH245601   2.519   6.504   3.405 -0.2726  0.4032  0.0122
 8037TIP3    H145602   2.426   6.507   3.386  0.0279  1.5849 -1.4759
 8037TIP3    H245603   2.524   6.479   3.497 -2.0242 -0.1238  0.0033
 8038TIP3   OH245604   1.940   5.241   3.905 -0.6758  0.0173 -0.1907
 8038TIP3    H145605   1.935   5.214   3.813 -0.7255 -0.7578  0.0252
 8038TIP3    H245606   2.023   5.205   3.936 -0.2337  1.0560 -0.1648
 8039TIP3   OH245607   6.498   4.194  16.816 -0.0682  0.2888  0.1440
 8039TIP3    H145608   6.559   4.239  16.874  3.0830 -1.9320 -1.1295
 8039TIP3    H245609   6.464   4.121  16.867  0.4068  0.0476  0.1260
 8040TIP3   OH245610   2.549   4.359   2.461 -0.4323  0.1798  0.5971
 8040TIP3    H145611   2.611   4.379   2.531  1.2263 -0.0962 -0.7131
 8040TIP3    H245612   2.470   4.330   2.506  1.1338 -1.6632  2.3791
 8041TIP3   OH245613   4.454   0.797  12.524 -0.0907 -0.1725 -0.2839
 8041TIP3    H145614   4.425   0.769  12.437  1.3084 -0.3095 -0.7321
 8041TIP3    H245615   4.545   0.768  12.530 -0.0262  0.2099  1.0711
 8042TIP3   OH245616   5.995   6.215   0.445 -0.0834 -0.2424  0.0754
 8042TIP3    H145617   5.979   6.135   0.395 -0.7540 -0.3849  0.5032
 8042TIP3    H245618   6.087   6.207   0.473 -0.2810 -1.0929  0.5120
 8043TIP3   OH245619   6.706   1.891   2.958  0.2993 -0.2820 -0.0315
 8043TIP3    H145620   6.697   1.890   2.863 -0.4202 -0.0762  0.0239
 8043TIP3    H245621   6.720   1.983   2.980 -0.4185 -0.2037  0.1244
 8044TIP3   OH245622   6.122   4.872  12.668 -0.3493 -0.5124 -0.3807
 8044TIP3    H145623   6.123   4.805  12.599 -0.5139  0.7747 -1.6911
 8044TIP3    H245624   6.036   4.914  12.658 -0.5802 -0.6436  0.9657
 8045TIP3   OH245625   3.760   2.976  15.800 -0.4091  0.1104 -0.0562
 8045TIP3    H145626   3.813   3.054  15.818  1.1758 -1.1053  0.8062
 8045TIP3    H245627   3.720   2.955  15.885  1.0051 -1.2962  0.2928
 8046TIP3   OH245628   3.346   6.499  12.401  0.4377 -0.2401 -0.1862
 8046TIP3    H145629   3.392   6.576  12.436 -0.0374  0.3226 -0.7872
 8046TIP3    H245630   3.377   6.492  12.310  1.8994 -1.8719  0.3827
 8047TIP3   OH245631   3.398   0.997  14.577 -0.8783  0.2233  0.5042
 8047TIP3    H145632   3.321   0.995  14.634 -0.4314 -0.1848  1.1089
 8047TIP3    H245633   3.367   0.962  14.493 -1.2031 -0.5576  0.9401
 8048TIP3   OH245634   5.540   2.500  13.263 -0.1584 -0.4549  0.7394
 8048TIP3    H145635   5.564   2.552  13.340  1.9624  0.1027 -0.2197
 8048TIP3    H245636   5.574   2.412  13.283 -1.7158 -0.9385  1.3951
 8049TIP3   OH245637   5.217   6.763   1.759 -0.1386  0.0561  0.3093
 8049TIP3    H145638   5.159   6.779   1.833  0.3798  2.4375  0.2820
 8049TIP3    H245639   5.186   6.823   1.691 -0.9218 -2.4029 -1.6731
 8050TIP3   OH245640   3.465   2.169   1.978  0.0844 -0.3853  0.0497
 8050TIP3    H145641   3.373   2.170   2.006  0.0762 -0.8965  0.0681
 8050TIP3    H245642   3.514   2.198   2.054 -0.0932  0.3621 -0.1110
 8051TIP3   OH245643   5.902   0.886  15.561  0.6615 -0.1115 -0.1639
 8051TIP3    H145644   5.997   0.881  15.572  0.6378  2.0117  1.5318
 8051TIP3    H245645   5.889   0.918  15.472  1.6652  1.9631  0.3887
 8052TIP3   OH245646   1.237   5.459  13.151 -1.0558  0.4198 -0.2824
 8052TIP3    H145647   1.169   5.393  13.165 -0.4291 -0.1692  0.0014
 8052TIP3    H245648   1.224   5.522  13.222 -0.8930 -0.0439  0.1640
 8053TIP3   OH245649   4.017   2.697   4.526  0.3151 -0.2164 -0.8328
 8053TIP3    H145650   3.952   2.729   4.589  0.3149  1.2414 -1.5164
 8053TIP3    H245651   4.086   2.658   4.579 -1.0471 -1.6956 -0.0800
 8054TIP3   OH245652   3.389   2.266   5.150 -0.3857 -0.1428 -0.2101
 8054TIP3    H145653   3.433   2.288   5.068 -0.0117  0.2143  0.0819
 8054TIP3    H245654   3.442   2.308   5.218  0.4115 -1.9589  0.3800
 8055TIP3   OH245655   4.642   3.726   3.696 -0.0142  0.5177 -0.6231
 8055TIP3    H145656   4.552   3.694   3.687  0.1207 -0.9153  2.1925
 8055TIP3    H245657   4.696   3.659   3.655 -0.1473  0.8455 -1.3461
 8056TIP3   OH245658   5.431   4.399  16.324 -0.9826  0.4632  0.7238
 8056TIP3    H145659   5.464   4.313  16.297 -1.4242  0.5476 -0.1428
 8056TIP3    H245660   5.336   4.390  16.318 -1.0623  0.7374  1.5200
 8057TIP3   OH245661   0.586   4.748   5.078  0.0766  0.0137 -0.0456
 8057TIP3    H145662   0.597   4.658   5.050 -2.1514  0.1292 -1.5256
 8057TIP3    H245663   0.506   4.747   5.131  0.0544  1.0969 -0.0340
 8058TIP3   OH245664   5.968   4.518  16.666 -0.3152 -0.0417 -1.1754
 8058TIP3    H145665   5.923   4.441  16.632  0.3312  0.2505 -2.7771
 8058TIP3    H245666   6.050   4.484  16.702 -1.2610 -0.4287  0.7467
 8059TIP3   OH245667   0.145   0.639  13.763  0.0978 -0.7221  0.3303
 8059TIP3    H145668   0.102   0.690  13.832 -0.6164  2.3143 -2.1295
 8059TIP3    H245669   0.217   0.595  13.807 -1.1493 -0.0654  3.2501
 8060TIP3   OH245670   4.647   0.298   4.660 -0.2544 -0.1295 -0.0037
 8060TIP3    H145671   4.654   0.313   4.566 -1.1956  0.4131 -0.0090
 8060TIP3    H245672   4.645   0.203   4.670 -0.6124 -0.1873 -0.5778
 8061TIP3   OH245673   5.096   5.923  13.260  0.1251  0.1200 -0.4323
 8061TIP3    H145674   5.063   5.995  13.315  0.5913 -0.0524  0.0740
 8061TIP3    H245675   5.116   5.965  13.177  0.8593  0.6777  0.0128
 8062TIP3   OH245676   6.315   1.820   6.041  0.0817 -0.2262  0.0205
 8062TIP3    H145677   6.358   1.844   6.123 -1.9557  1.7718  0.5930
 8062TIP3    H245678   6.272   1.736   6.060  1.8196 -1.1413  0.1017
 8063TIP3   OH245679   3.909   0.340  16.394  0.6102  0.1287 -0.0083
 8063TIP3    H145680   3.975   0.319  16.327  0.5756  0.3293 -0.1062
 8063TIP3    H245681   3.918   0.434  16.408  0.3113  0.1678 -0.0609
 8064TIP3   OH245682   3.401   6.308  10.590 -0.0593 -0.7172 -0.4126
 8064TIP3    H145683   3.409   6.340  10.679 -0.2312 -1.8059  0.0133
 8064TIP3    H245684   3.487   6.325  10.551 -0.1167  0.1424 -0.1835
 8065TIP3   OH245685   0.506   4.269   0.916  0.3839 -0.3110  0.1460
 8065TIP3    H145686   0.497   4.283   0.822 -2.4629 -0.7422  0.2866
 8065TIP3    H245687   0.539   4.180   0.924  1.2355 -0.0587 -0.4241
 8066TIP3   OH245688   0.735   5.929   2.179 -0.1957 -0.1863 -0.6357
 8066TIP3    H145689   0.705   5.991   2.112  0.3412  0.1533 -0.5664
 8066TIP3    H245690   0.662   5.868   2.190 -1.2079  1.1024  0.1217
 8067TIP3   OH245691   0.455   2.605  14.301 -0.5107 -0.5885  0.3238
 8067TIP3    H145692   0.375   2.657  14.292 -1.1798 -1.4181  1.3059
 8067TIP3    H245693   0.498   2.641  14.379  0.0406 -0.2070 -0.1486
 8068TIP3   OH245694   1.336   2.916  10.951  0.2864  0.4793 -0.6094
 8068TIP3    H145695   1.380   2.997  10.979 -0.1875  0.4958  0.1095
 8068TIP3    H245696   1.371   2.849  11.009 -0.1726  0.3811 -0.4412
 8069TIP3   OH245697   4.536   1.564  13.427  0.0824 -0.6148  0.1271
 8069TIP3    H145698   4.525   1.469  13.426 -0.5161 -0.6028  1.6874
 8069TIP3    H245699   4.609   1.581  13.367  0.3886 -2.0819  0.0503
 8070TIP3   OH245700   2.752   0.881  13.246 -0.5807 -0.0651  0.4672
 8070TIP3    H145701   2.794   0.828  13.179  0.6999 -0.8464  1.8220
 8070TIP3    H245702   2.681   0.826  13.279  0.8427 -1.0947  1.9794
 8071TIP3   OH245703   4.317   0.045  16.086 -0.1255 -0.2976 -0.3967
 8071TIP3    H145704   4.315  -0.028  16.025 -2.0873 -0.0807 -0.6501
 8071TIP3    H245705   4.381   0.019  16.153  0.1374 -1.6663 -1.1556
 8072TIP3   OH245706   4.338   5.127   0.657  0.0116 -0.1870  0.0896
 8072TIP3    H145707   4.254   5.151   0.695 -0.3550 -1.2490 -0.0021
 8072TIP3    H245708   4.375   5.064   0.719  0.7628  0.2916  0.1474
 8073TIP3   OH245709   0.728   2.432  15.231 -0.0701 -0.0732  0.2562
 8073TIP3    H145710   0.647   2.381  15.225 -0.2564  0.2975 -0.7412
 8073TIP3    H245711   0.749   2.453  15.140  1.1944 -0.2174  0.5009
 8074TIP3   OH245712   5.615   0.830   5.637  0.0843  0.0221 -0.4741
 8074TIP3    H145713   5.525   0.854   5.616  0.1309  1.7334  1.0125
 8074TIP3    H245714   5.609   0.749   5.686 -0.3687 -1.4603 -2.8303
 8075TIP3   OH245715   5.236   2.554   4.826  0.2022 -0.1785 -0.0320
 8075TIP3    H145716   5.201   2.610   4.757  0.2011 -1.4211 -1.0871
 8075TIP3    H245717   5.216   2.465   4.797  1.1339 -0.7742  1.0585
 8076TIP3   OH245718   1.542   2.626   4.214  0.5124  0.4573  0.2655
 8076TIP3    H145719   1.538   2.595   4.124  0.1700 -0.3624  0.5563
 8076TIP3    H245720   1.633   2.652   4.227  0.0867  2.9145 -1.0650
 8077TIP3   OH245721   0.858   3.796   1.102 -0.2134 -0.2485  0.0949
 8077TIP3    H145722   0.765   3.807   1.079 -0.3718 -2.1951 -0.3669
 8077TIP3    H245723   0.860   3.717   1.156  1.3416 -1.1519 -1.1886
 8078TIP3   OH245724   1.353   2.071   5.113 -0.2051  0.1916  0.5181
 8078TIP3    H145725   1.269   2.037   5.144 -0.9750 -0.1222 -1.7574
 8078TIP3    H245726   1.330   2.147   5.060  0.6583 -1.2852 -2.1367
 8079TIP3   OH245727   6.113   6.551  11.854 -0.3032  0.3118  0.1139
 8079TIP3    H145728   6.068   6.502  11.922 -0.3110  0.3716  0.1514
 8079TIP3    H245729   6.055   6.546  11.778 -0.3479  0.3443  0.1468
 8080TIP3   OH245730   4.011   1.599  16.967 -0.1305 -0.5541 -0.2570
 8080TIP3    H145731   4.009   1.653  17.047 -0.9288 -0.1260 -0.5500
 8080TIP3    H245732   4.097   1.617  16.928  0.4716 -1.1483  0.7494
 8081TIP3   OH245733   0.080   5.256   4.094  0.1956  0.9770  0.1957
 8081TIP3    H145734  -0.007   5.258   4.055  0.2862 -0.8873 -0.2103
 8081TIP3    H245735   0.140   5.256   4.020  0.4055 -1.2048  0.3046
 8082TIP3   OH245736   0.044   1.975  12.235  0.4589  0.1959  0.4848
 8082TIP3    H145737   0.061   1.882  12.243  0.0897 -0.1952 -2.3110
 8082TIP3    H245738   0.002   1.999  12.317  0.6990 -2.0512  1.3282
 8083TIP3   OH245739   2.222   5.854   0.810  0.1161 -0.5311 -0.2307
 8083TIP3    H145740   2.211   5.872   0.717 -0.6094  0.7339  0.0896
 8083TIP3    H245741   2.165   5.779   0.827 -1.0567  0.2740 -0.4805
 8084TIP3   OH245742   4.289   2.157   5.073  0.6276 -0.4573  0.1118
 8084TIP3    H145743   4.343   2.236   5.078  0.2734 -0.2593  0.8576
 8084TIP3    H245744   4.203   2.189   5.045  0.5363 -0.6014  0.2269
 8085TIP3   OH245745   3.411   5.543   4.576  0.8185  0.1963  0.3077
 8085TIP3    H145746   3.353   5.567   4.649  1.1772 -0.1692  0.7137
 8085TIP3    H245747   3.499   5.565   4.607  1.1561 -1.5392  0.6671
 8086TIP3   OH245748   3.086   1.550   2.753 -0.0376 -0.2479 -0.3099
 8086TIP3    H145749   3.169   1.593   2.731 -0.5702  0.0489 -1.8273
 8086TIP3    H245750   3.019   1.610   2.723 -0.8031 -1.2737 -0.7177
 8087TIP3   OH245751   2.456   3.153   5.033  0.0532 -0.2560  0.1346
 8087TIP3    H145752   2.379   3.098   5.020 -0.9369  0.7490  1.4366
 8087TIP3    H245753   2.448   3.183   5.124  1.8270  0.1294  0.2026
 8088TIP3   OH245754   6.721   1.720  14.464 -0.1305 -0.1986 -0.2811
 8088TIP3    H145755   6.723   1.707  14.559  0.0327 -0.8861 -0.3729
 8088TIP3    H245756   6.802   1.767  14.444  0.1158 -0.5664 -0.1500
 8089TIP3   OH245757   1.814   4.974  11.986  0.0605 -0.2139  0.0042
 8089TIP3    H145758   1.893   5.007  11.942 -0.6830  0.3355 -0.9677
 8089TIP3    H245759   1.761   4.938  11.915 -1.1818  0.6921  0.4358
 8090TIP3   OH245760   5.565   1.956  11.270 -0.3965  0.0550 -0.5441
 8090TIP3    H145761   5.588   1.871  11.232  0.2838  0.2114 -0.4953
 8090TIP3    H245762   5.521   2.002  11.199  0.0347 -0.0075 -0.8590
 8091TIP3   OH245763   5.791   6.301   0.623 -0.4473 -0.9344 -0.2700
 8091TIP3    H145764   5.715   6.297   0.565 -0.7284  1.7740 -0.1912
 8091TIP3    H245765   5.864   6.273   0.568 -0.7873  1.1262 -1.8730
 8092TIP3   OH245766   0.296   5.466  17.242 -0.0519 -0.4996  0.5771
 8092TIP3    H145767   0.322   5.469  17.150 -0.7957  2.7064  0.3500
 8092TIP3    H245768   0.379   5.461  17.291  0.3824 -1.3876 -0.2265
 8093TIP3   OH245769   0.854   4.671   3.911 -0.2172  0.6855 -1.0617
 8093TIP3    H145770   0.920   4.740   3.919  0.8618 -0.3253 -0.9507
 8093TIP3    H245771   0.856   4.627   3.996 -1.9704  1.4211 -0.5975
 8094TIP3   OH245772   4.802   2.955   3.056 -0.1229  0.1548 -0.4861
 8094TIP3    H145773   4.747   2.877   3.063  0.0768  0.0432 -0.1617
 8094TIP3    H245774   4.844   2.963   3.142  0.0887  0.4481 -0.6148
 8095TIP3   OH245775   0.182   4.952   3.939 -0.0350 -0.4231 -0.1917
 8095TIP3    H145776   0.112   4.971   4.002  0.0937 -0.3623 -0.0660
 8095TIP3    H245777   0.262   4.982   3.983  0.1923 -1.3767  0.0649
 8096TIP3   OH245778   3.734   1.508  16.485 -0.2444  0.6817  0.1290
 8096TIP3    H145779   3.822   1.537  16.462  0.0201 -0.3995 -0.3163
 8096TIP3    H245780   3.700   1.576  16.543  0.1930  2.0077 -1.1126
 8097TIP3   OH245781   4.745   1.729  15.122 -0.1151  0.1679 -0.1203
 8097TIP3    H145782   4.732   1.824  15.115  0.9902  0.6600  3.0130
 8097TIP3    H245783   4.656   1.693  15.119 -0.7967  1.5969  1.2166
 8098TIP3   OH245784   6.295   4.901  16.339 -0.4276  0.0958 -0.1869
 8098TIP3    H145785   6.316   4.994  16.333 -0.4251  0.0650 -0.7061
 8098TIP3    H245786   6.373   4.857  16.305 -0.5665 -0.0834 -0.2755
 8099TIP3   OH245787   3.046   2.315   5.416 -0.6559  0.3725  0.2965
 8099TIP3    H145788   2.960   2.285   5.384  0.0308 -0.2916 -1.0369
 8099TIP3    H245789   3.095   2.334   5.336  0.7548 -0.1675  1.0069
 8100TIP3   OH245790   3.447   2.240  15.034  0.6786 -0.4834  0.1693
 8100TIP3    H145791   3.408   2.226  14.947  0.6798  0.2498  0.0402
 8100TIP3    H245792   3.480   2.154  15.060 -0.3868 -0.9782 -0.0352
 8101TIP3   OH245793   2.461   5.959   1.474 -0.3215 -0.1912 -0.1160
 8101TIP3    H145794   2.441   5.939   1.565  0.2893 -1.5034 -0.2459
 8101TIP3    H245795   2.553   5.986   1.475 -0.8907  1.9131 -0.0709
 8102TIP3   OH245796   0.640   3.273  13.573 -0.1619 -0.2969  0.7485
 8102TIP3    H145797   0.724   3.256  13.616  0.1243 -0.6878  0.0452
 8102TIP3    H245798   0.590   3.322  13.638  0.5472 -0.2021  1.2376
 8103TIP3   OH245799   2.735   2.039   4.764  0.0090  0.1807 -0.4482
 8103TIP3    H145800   2.828   2.056   4.744  0.3008 -1.5369 -0.6698
 8103TIP3    H245801   2.698   2.008   4.682 -0.4064 -0.5216 -0.0048
 8104TIP3   OH245802   3.314   4.687  12.147 -0.5516 -0.9358 -0.0129
 8104TIP3    H145803   3.264   4.712  12.069  0.2879 -2.1923 -0.9942
 8104TIP3    H245804   3.366   4.611  12.119  1.6987  0.1367  1.0447
 8105TIP3   OH245805   5.579   5.172   5.272 -0.2036  0.1264  0.5542
 8105TIP3    H145806   5.539   5.085   5.263  1.9123 -0.7873 -1.0241
 8105TIP3    H245807   5.533   5.226   5.207 -1.4186  0.1908  1.4300
 8106TIP3   OH245808   1.780   5.307   6.557  0.3006  0.0544 -0.2041
 8106TIP3    H145809   1.695   5.264   6.562  0.1674  0.0629 -1.8080
 8106TIP3    H245810   1.760   5.397   6.531  0.7946  0.0301 -0.6957
 8107TIP3   OH245811   5.342   5.246  13.016  0.5501 -0.0298 -0.2211
 8107TIP3    H145812   5.405   5.219  13.082  0.8848 -0.6490 -0.7833
 8107TIP3    H245813   5.310   5.331  13.046 -0.1494 -0.8060  1.3208
 8108TIP3   OH245814   2.374   4.365   3.037 -0.6446  0.4747  0.9080
 8108TIP3    H145815   2.302   4.426   3.053 -1.9217 -0.6031 -0.4467
 8108TIP3    H245816   2.371   4.349   2.943 -0.7111 -2.0913  1.2883
 8109TIP3   OH245817   1.329   6.648   2.214 -0.1350  0.3438  0.1100
 8109TIP3    H145818   1.332   6.674   2.306  0.1512  0.0382  0.1903
 8109TIP3    H245819   1.417   6.665   2.182  0.6323 -2.1670  0.6319
 8110TIP3   OH245820   3.131   0.229  13.726 -0.1910  0.2197 -0.1400
 8110TIP3    H145821   3.131   0.281  13.806 -1.7747 -0.2469  0.1940
 8110TIP3    H245822   3.048   0.249  13.684  0.1088 -0.4388 -1.0848
 8111TIP3   OH245823   5.886   4.835   4.163 -0.0625  0.2327  0.1453
 8111TIP3    H145824   5.818   4.768   4.152 -1.6476  1.7205  0.4049
 8111TIP3    H245825   5.881   4.887   4.082  3.0531 -1.5165 -1.3214
 8112TIP3   OH245826   5.313   1.760  12.367  0.0221 -0.0642  0.0416
 8112TIP3    H145827   5.388   1.755  12.308  0.5003 -0.9307  0.6932
 8112TIP3    H245828   5.351   1.754  12.455 -0.8105 -0.4860  0.3873
 8113TIP3   OH245829   1.486   1.329  12.270  0.0447  0.4890  0.0104
 8113TIP3    H145830   1.535   1.360  12.194  0.7409 -0.1583  0.1794
 8113TIP3    H245831   1.492   1.234  12.265 -1.1743  0.4028  0.0629
 8114TIP3   OH245832   0.351   0.550  15.941 -0.2952 -0.3094 -0.0221
 8114TIP3    H145833   0.364   0.545  15.847  0.2436 -0.1764  0.0421
 8114TIP3    H245834   0.285   0.619  15.953 -0.5115 -0.4671 -0.3122
 8115TIP3   OH245835   2.487   1.572   1.386  0.0891 -0.0589  0.1491
 8115TIP3    H145836   2.416   1.518   1.419  0.0491  1.1083  2.1074
 8115TIP3    H245837   2.508   1.534   1.300 -1.3800 -1.7766  0.4910
 8116TIP3   OH245838   3.130   1.122   5.036  0.2589 -0.0510 -0.4562
 8116TIP3    H145839   3.055   1.133   5.094  1.5826 -0.1724  1.3875
 8116TIP3    H245840   3.094   1.131   4.948 -1.6912  1.1805  0.3876
 8117TIP3   OH245841   2.119   3.403  15.744 -0.0263  0.6413 -0.0587
 8117TIP3    H145842   2.032   3.402  15.705  0.3476  0.5317 -0.9216
 8117TIP3    H245843   2.175   3.442  15.677  0.5443  0.9781  0.5943
 8118TIP3   OH245844   5.015   3.232   3.681  0.2324  0.0014 -0.2227
 8118TIP3    H145845   5.098   3.205   3.720  2.6794  2.3820 -3.1766
 8118TIP3    H245846   4.956   3.159   3.697  2.6793 -1.5982  2.5507
 8119TIP3   OH245847   5.810   2.053   3.583  0.0578  0.2818  0.7040
 8119TIP3    H145848   5.773   1.965   3.580  2.6958 -1.0065  2.6361
 8119TIP3    H245849   5.835   2.072   3.493 -1.9192 -0.2227 -0.0098
 8120TIP3   OH245850   0.936   4.888  16.042  0.4150 -0.2027 -0.1632
 8120TIP3    H145851   0.994   4.949  16.087  0.3366 -1.4838  1.7602
 8120TIP3    H245852   0.966   4.801  16.069 -0.8097 -0.9672 -1.1493
 8121TIP3   OH245853   0.275   6.548   1.982  0.2260  0.0836  0.0443
 8121TIP3    H145854   0.324   6.613   2.031 -1.5156  1.1757  0.4433
 8121TIP3    H245855   0.299   6.464   2.021  2.4194  0.4518 -0.3992
 8122TIP3   OH245856   6.186   6.455  15.094 -0.7051 -0.0522 -0.1888
 8122TIP3    H145857   6.274   6.464  15.132 -0.7607  2.7807 -0.5408
 8122TIP3    H245858   6.168   6.540  15.055 -2.3937 -1.5046 -2.9028
 8123TIP3   OH245859   2.525   2.567  13.146 -0.5975  0.0989  0.0780
 8123TIP3    H145860   2.551   2.541  13.057 -0.8401  1.3929 -0.4003
 8123TIP3    H245861   2.605   2.600  13.186 -0.6088  0.0604  0.1325
 8124TIP3   OH245862   1.540   6.100  12.695 -0.0370  0.0953 -0.2470
 8124TIP3    H145863   1.469   6.037  12.708 -0.9394  0.5580 -2.4008
 8124TIP3    H245864   1.533   6.160  12.769 -2.4260  0.5504 -0.7442
 8125TIP3   OH245865   0.173   4.833   6.739  0.0975 -0.3741  0.8227
 8125TIP3    H145866   0.234   4.823   6.665 -0.9728 -3.1282  0.1665
 8125TIP3    H245867   0.108   4.896   6.708 -0.5198 -1.7181 -0.8152
 8126TIP3   OH245868   2.183   4.190  12.445  0.4546  0.3274  0.6914
 8126TIP3    H145869   2.116   4.132  12.480 -0.1506  1.1026  0.8637
 8126TIP3    H245870   2.265   4.157  12.480  0.2172 -0.8744  0.1574
 8127TIP3   OH245871   2.966   4.099  16.937  0.1990  0.3225 -0.1749
 8127TIP3    H145872   2.897   4.090  16.871  0.5028 -0.2573 -0.4217
 8127TIP3    H245873   2.936   4.170  16.994 -0.2518  0.5721 -0.7089
 8128TIP3   OH245874   2.639   1.885   3.373 -0.0038 -0.2636  0.0467
 8128TIP3    H145875   2.585   1.832   3.315  0.6224 -0.9250  0.0502
 8128TIP3    H245876   2.721   1.836   3.380  1.0498  1.2780 -0.9079
 8129TIP3   OH245877   5.290   2.469   1.620  0.0459  0.1031 -0.0093
 8129TIP3    H145878   5.314   2.542   1.562 -0.1190  0.1507 -0.0180
 8129TIP3    H245879   5.214   2.501   1.668  0.1574  0.0489  0.2060
 8130TIP3   OH245880   0.402   6.105   1.616 -0.4350 -0.4650 -0.2247
 8130TIP3    H145881   0.364   6.178   1.665 -0.7034 -0.5556 -0.3005
 8130TIP3    H245882   0.339   6.087   1.546 -1.6491 -2.4252  1.2701
 8131TIP3   OH245883   5.579   0.790   0.852  0.1084 -0.3960 -0.0617
 8131TIP3    H145884   5.524   0.852   0.899  0.0922 -1.5109  1.4757
 8131TIP3    H245885   5.551   0.797   0.761 -1.5206  0.1503  0.4523
 8132TIP3   OH245886   1.519   4.293   4.923  0.4326  0.0448  0.0187
 8132TIP3    H145887   1.596   4.301   4.979  2.0467  0.6038 -2.1644
 8132TIP3    H245888   1.533   4.211   4.875 -0.0894  0.3926 -0.7430
 8133TIP3   OH245889   2.200   2.085   1.664 -0.2477 -0.0570 -0.5306
 8133TIP3    H145890   2.185   2.173   1.631  0.1452  0.7896  1.4149
 8133TIP3    H245891   2.279   2.056   1.619  0.3998  1.1297 -0.2062
 8134TIP3   OH245892   5.088   1.182   5.804 -0.3780  0.6034  0.3429
 8134TIP3    H145893   5.080   1.277   5.809 -1.0767  0.6251 -0.7863
 8134TIP3    H245894   5.001   1.152   5.775  0.2596 -0.2282 -0.8132
 8135TIP3   OH245895   5.031   1.480   3.507  0.1388  0.3998  0.0727
 8135TIP3    H145896   5.006   1.452   3.419 -0.7576 -0.5713  0.6164
 8135TIP3    H245897   4.948   1.496   3.552  0.5765  0.7549  0.7859
 8136TIP3   OH245898   6.759   4.627  11.692 -0.1113  0.2658  0.0715
 8136TIP3    H145899   6.689   4.585  11.641 -0.5853  0.1960  0.7630
 8136TIP3    H245900   6.811   4.554  11.726 -0.7799  0.2186  1.0542
 8137TIP3   OH245901   0.543   0.385   3.227  0.0620  0.0008  0.2742
 8137TIP3    H145902   0.622   0.439   3.225 -0.1012  0.3227 -2.7509
 8137TIP3    H245903   0.472   0.447   3.242  0.1261  0.2661 -0.4385
 8138TIP3   OH245904   0.909   6.236   5.734 -0.4864  0.4198 -0.1289
 8138TIP3    H145905   0.983   6.271   5.684 -0.6948  1.6829  0.4246
 8138TIP3    H245906   0.928   6.142   5.742  0.8641  0.6594 -0.3144
 8139TIP3   OH245907   4.995   0.510  14.470  0.2245  0.1445  0.0889
 8139TIP3    H145908   4.964   0.479  14.555 -0.9677  0.5170 -0.1821
 8139TIP3    H245909   4.922   0.562  14.436  1.0500  0.7865 -0.7524
 8140TIP3   OH245910   1.619   4.679  15.684  0.1713  0.1992  0.2832
 8140TIP3    H145911   1.690   4.619  15.709 -1.1755 -1.2450  0.8259
 8140TIP3    H245912   1.642   4.761  15.727  1.7226 -0.0899  0.0971
 8141TIP3   OH245913   1.777   4.690  15.147  0.0622  0.4124  0.1774
 8141TIP3    H145914   1.730   4.741  15.081 -0.3709 -0.5265 -0.2569
 8141TIP3    H245915   1.713   4.625  15.177  1.5387 -2.1061 -1.7528
 8142TIP3   OH245916   1.354   6.423  14.489 -0.2527 -0.0978 -0.3583
 8142TIP3    H145917   1.371   6.358  14.421  1.6271  1.0934 -1.1216
 8142TIP3    H245918   1.409   6.396  14.562 -3.0613 -1.9802  1.2316
 8143TIP3   OH245919   4.023   2.455   0.943 -0.2356  0.6529  0.2033
 8143TIP3    H145920   3.975   2.437   0.862 -1.0101  1.5134  0.4513
 8143TIP3    H245921   4.029   2.370   0.986 -0.9885  0.4153 -0.1360
 8144TIP3   OH245922   1.997   5.393  12.810 -0.0509 -0.2364 -0.1955
 8144TIP3    H145923   1.977   5.354  12.725 -0.9776  1.3594 -0.7449
 8144TIP3    H245924   1.955   5.479  12.808 -0.4564 -0.3178  2.0486
 8145TIP3   OH245925   0.457   3.817   6.076 -0.1999  0.8917 -0.1595
 8145TIP3    H145926   0.550   3.802   6.062  0.5944  3.4848  1.4743
 8145TIP3    H245927   0.414   3.739   6.041  2.6807 -1.2406  0.6579
 8146TIP3   OH245928   2.131   3.810  12.448  0.2377 -0.1032  0.3174
 8146TIP3    H145929   2.124   3.715  12.433  0.0159  0.2294 -1.9639
 8146TIP3    H245930   2.199   3.839  12.387  3.5716  0.6391  4.0041
 8147TIP3   OH245931   6.537   5.397  12.606  1.0266  0.3203  0.2983
 8147TIP3    H145932   6.469   5.330  12.603  0.0211  1.2714  1.0915
 8147TIP3    H245933   6.593   5.370  12.679  0.1770  0.7358  1.1269
 8148TIP3   OH245934   3.406   0.900   2.376  0.3626 -0.1099  0.4312
 8148TIP3    H145935   3.446   0.961   2.314  0.7953 -2.3489 -1.6943
 8148TIP3    H245936   3.480   0.855   2.417  0.0710 -0.4510  0.5949
 8149TIP3   OH245937   2.076   6.416  12.334  0.6514  0.2377  0.1339
 8149TIP3    H145938   2.034   6.476  12.273 -0.4101 -0.2082  0.3930
 8149TIP3    H245939   2.075   6.462  12.418 -1.3886 -0.5861  0.6434
 8150TIP3   OH245940   3.610   3.348   4.607  0.0781  0.1023 -0.1701
 8150TIP3    H145941   3.657   3.359   4.690  1.1556 -0.6520 -0.6648
 8150TIP3    H245942   3.524   3.316   4.634  0.8114 -1.2983  0.6274
 8151TIP3   OH245943   3.252   4.127  13.547  0.2607 -0.5319 -0.1635
 8151TIP3    H145944   3.319   4.194  13.563 -0.6249  0.0301  1.4698
 8151TIP3    H245945   3.295   4.044  13.566  1.1071 -0.3716 -1.2958
 8152TIP3   OH245946   6.135   0.307   2.826  0.5093  0.1074 -0.0177
 8152TIP3    H145947   6.095   0.221   2.812  0.0235  0.0182  1.6656
 8152TIP3    H245948   6.216   0.289   2.874  1.6996  0.4387 -1.8135
 8153TIP3   OH245949   1.063   3.217  13.343 -0.0552  0.3486  0.0979
 8153TIP3    H145950   1.134   3.268  13.383 -0.0390  0.6237 -0.2774
 8153TIP3    H245951   1.092   3.126  13.352  0.7665  0.5015 -0.8350
 8154TIP3   OH245952   5.993   5.965   3.599 -0.1844 -0.0935 -0.2867
 8154TIP3    H145953   5.956   5.972   3.512 -0.1282  2.1669 -0.1777
 8154TIP3    H245954   5.917   5.961   3.658 -0.2256 -0.5112 -0.3673
 8155TIP3   OH245955   4.927   5.707  13.204 -0.0519 -0.2154  0.6256
 8155TIP3    H145956   4.905   5.736  13.115 -1.4285  1.9797  1.6161
 8155TIP3    H245957   4.983   5.777  13.239  3.1629 -2.4932  0.5408
 8156TIP3   OH245958   3.395   4.079   1.516  0.8540  0.4650  0.3735
 8156TIP3    H145959   3.315   4.127   1.498  0.3098 -0.1860  0.9942
 8156TIP3    H245960   3.368   4.007   1.573  1.2803 -1.7148 -2.0111
 8157TIP3   OH245961   0.503   4.857  12.587  0.3698 -0.4040  0.4963
 8157TIP3    H145962   0.432   4.845  12.524  0.4451  0.2388  0.2832
 8157TIP3    H245963   0.499   4.779  12.642  1.0192 -1.5335 -0.9971
 8158TIP3   OH245964   4.530   6.116  12.497  0.7911  0.2498  0.1776
 8158TIP3    H145965   4.488   6.033  12.475  0.2629  0.5591 -0.0018
 8158TIP3    H245966   4.464   6.182  12.478  1.3174  0.7409  0.0083
 8159TIP3   OH245967   2.447   1.030  13.657  0.0852 -0.1710 -0.1394
 8159TIP3    H145968   2.406   0.980  13.728 -0.3098  0.1012 -0.1680
 8159TIP3    H245969   2.408   0.994  13.577  0.1907 -0.1725 -0.1896
 8160TIP3   OH245970   6.326   6.740  11.214  0.8159 -0.5748 -0.4275
 8160TIP3    H145971   6.250   6.793  11.237  1.0070 -0.6367  0.3773
 8160TIP3    H245972   6.369   6.722  11.297  1.3961 -1.0246 -0.8129
 8161TIP3   OH245973   2.125   6.397  13.188 -0.2802 -0.0809 -0.7240
 8161TIP3    H145974   2.105   6.422  13.098  0.4913  0.2479 -0.8174
 8161TIP3    H245975   2.057   6.439  13.240 -2.0398 -2.0323 -1.3021
 8162TIP3   OH245976   0.377   3.241   2.387 -0.3779  0.4431 -0.7957
 8162TIP3    H145977   0.465   3.272   2.363 -0.1585  1.0726  0.7117
 8162TIP3    H245978   0.325   3.321   2.393 -0.3923  0.3396  0.8573
 8163TIP3   OH245979   6.277   0.723  15.790  0.0983 -0.2455  0.8298
 8163TIP3    H145980   6.284   0.730  15.886 -1.6545  0.6902  0.9254
 8163TIP3    H245981   6.314   0.806  15.758  1.6438 -0.9799  0.5901
 8164TIP3   OH245982   1.623   6.642   0.184 -0.2682  0.2873  0.0108
 8164TIP3    H145983   1.682   6.717   0.175 -0.6115  0.3997 -1.5477
 8164TIP3    H245984   1.637   6.591   0.104 -2.1825  0.2651 -0.3700
 8165TIP3   OH245985   3.235   5.189   4.361  0.5167  0.0373 -0.2954
 8165TIP3    H145986   3.281   5.135   4.425 -0.7771 -0.1786  0.4913
 8165TIP3    H245987   3.296   5.260   4.341  0.5128  0.8390  2.1580
 8166TIP3   OH245988   5.340   3.434  14.978  0.2136 -0.0625  0.0166
 8166TIP3    H145989   5.319   3.517  15.020 -0.6173  0.8218 -2.0361
 8166TIP3    H245990   5.426   3.410  15.014  1.7897  3.0857 -1.2852
 8167TIP3   OH245991   3.533   0.107   5.331  0.2458  0.1796  0.1549
 8167TIP3    H145992   3.442   0.135   5.341 -0.2371 -1.7116  1.6191
 8167TIP3    H245993   3.529   0.035   5.268  0.8957  0.7659 -0.5708
 8168TIP3   OH245994   4.050   4.312  16.066  0.0254 -0.2926  0.5004
 8168TIP3    H145995   4.122   4.262  16.027 -2.0281 -1.7919 -1.7043
 8168TIP3    H245996   4.021   4.259  16.141 -2.5771 -3.1727 -2.2022
 8169TIP3   OH245997   5.156   4.496   4.330 -0.4093 -0.0980 -0.5073
 8169TIP3    H145998   5.168   4.534   4.417  0.7561 -0.6764 -0.3983
 8169TIP3    H245999   5.172   4.402   4.342 -1.6172 -0.4072 -1.0909
 8170TIP3   OH246000   2.295   0.176  12.057  0.2364 -0.0447 -0.0386
 8170TIP3    H146001   2.331   0.193  11.970 -0.2180 -1.4121 -0.5239
 8170TIP3    H246002   2.222   0.115  12.041 -1.4863  1.6272  1.0434
 8171TIP3   OH246003   1.711   3.016   2.888  0.3502  0.3823 -0.1821
 8171TIP3    H146004   1.632   2.966   2.870 -0.6661  2.2188 -1.0636
 8171TIP3    H246005   1.691   3.065   2.968  0.6793  0.7019 -0.2917
 8172TIP3   OH246006   4.247   0.908  17.052 -0.2207  0.1407 -0.0437
 8172TIP3    H146007   4.257   0.875  17.141 -1.0636 -2.4870 -0.8112
 8172TIP3    H246008   4.158   0.944  17.049  0.2969  1.5172  0.5011
 8173TIP3   OH246009   6.471   3.246  16.649  0.1858 -0.0586 -0.6703
 8173TIP3    H146010   6.533   3.312  16.680 -0.3722  0.8518 -1.4717
 8173TIP3    H246011   6.524   3.189  16.593  0.4323  0.3397 -0.8443
 8174TIP3   OH246012   4.413   5.274  11.447  0.0762 -0.3068 -0.0261
 8174TIP3    H146013   4.473   5.265  11.372 -2.1580  1.2387 -2.1385
 8174TIP3    H246014   4.396   5.368  11.453 -2.0874 -0.6864  0.5335
 8175TIP3   OH246015   5.786   1.089  15.691 -0.4985 -0.0329  0.0865
 8175TIP3    H146016   5.815   1.164  15.639  0.6999  0.3804  1.2952
 8175TIP3    H246017   5.822   1.013  15.644 -2.5765 -0.0091 -1.7185
 8176TIP3   OH246018   4.523   6.495   1.192  0.1471 -0.1209  0.1584
 8176TIP3    H146019   4.454   6.467   1.253 -1.6356 -1.9317 -2.4752
 8176TIP3    H246020   4.582   6.420   1.186  0.4742  0.1553 -0.1380
 8177TIP3   OH246021   0.228   1.721  12.749  0.0387 -0.0906 -0.3450
 8177TIP3    H146022   0.209   1.790  12.685 -1.3541  1.1465  1.2807
 8177TIP3    H246023   0.173   1.647  12.722  0.6822 -0.1825 -1.4605
 8178TIP3   OH246024   3.532   2.234   6.308  0.5883  0.0576 -0.0688
 8178TIP3    H146025   3.520   2.258   6.216  0.1839  1.2688  0.2737
 8178TIP3    H246026   3.558   2.316   6.351 -1.7563  0.1340  1.3550
 8179TIP3   OH246027   0.114   5.355  12.129  0.6091  0.2338 -0.8811
 8179TIP3    H146028   0.185   5.384  12.072  0.5227 -0.1152 -1.1675
 8179TIP3    H246029   0.034   5.388  12.088  0.5960  0.5353 -0.6158
 8180TIP3   OH246030   1.074   0.556  15.808 -0.0188  0.2566  0.1166
 8180TIP3    H146031   1.099   0.491  15.874  0.5194 -1.7151 -1.9105
 8180TIP3    H246032   0.979   0.557  15.810 -0.1437 -1.9924 -0.9658
 8181TIP3   OH246033   2.538   6.138  14.347  0.3874 -0.4163 -0.4101
 8181TIP3    H146034   2.591   6.203  14.393  0.6608  0.0578 -1.3707
 8181TIP3    H246035   2.598   6.099  14.284 -0.3516 -0.0311 -1.3622
 8182TIP3   OH246036   4.629   3.770  10.875 -0.4496 -0.2452  0.1970
 8182TIP3    H146037   4.699   3.757  10.811 -0.2583  0.1646  0.3223
 8182TIP3    H246038   4.557   3.808  10.824 -0.8107 -1.2200 -0.0581
 8183TIP3   OH246039   3.287   3.288   3.637  0.0557 -0.4494  0.1969
 8183TIP3    H146040   3.300   3.204   3.681  0.0620  0.1526  1.3702
 8183TIP3    H246041   3.193   3.290   3.617  0.1026 -0.8430 -0.0748
 8184TIP3   OH246042   1.153   2.214  14.457 -0.3634  0.0324 -0.2123
 8184TIP3    H146043   1.222   2.184  14.516 -2.0930 -0.6506  1.5930
 8184TIP3    H246044   1.177   2.178  14.372  1.7936  0.3355  0.2233
 8185TIP3   OH246045   5.614   5.957   2.237 -0.1789  0.1908 -0.5330
 8185TIP3    H146046   5.532   5.981   2.279  0.6501  2.9414 -0.2809
 8185TIP3    H246047   5.623   6.018   2.164  0.8225 -1.2240 -1.6486
 8186TIP3   OH246048   0.801   1.836  15.222  0.1857 -0.4095  0.6572
 8186TIP3    H146049   0.839   1.920  15.197  1.0612 -0.2895  2.2879
 8186TIP3    H246050   0.872   1.773  15.213 -0.7609 -1.2584 -1.6906
 8187TIP3   OH246051   1.646   1.878   1.523  0.4656 -0.0598 -0.2719
 8187TIP3    H146052   1.722   1.863   1.580  0.4270  0.9265  0.0454
 8187TIP3    H246053   1.574   1.898   1.582 -0.4553 -2.4528 -0.4747
 8188TIP3   OH246054   6.216   1.657   4.970 -0.2763 -0.1410  0.8852
 8188TIP3    H146055   6.199   1.616   5.055  0.4243  1.9276  2.0951
 8188TIP3    H246056   6.142   1.630   4.915 -1.1692 -0.8909  2.3870
 8189TIP3   OH246057   1.991   3.697   3.628 -0.1852 -0.0350  0.4892
 8189TIP3    H146058   2.025   3.623   3.576 -1.8125  1.0209 -2.2948
 8189TIP3    H246059   2.068   3.750   3.646  0.3121  0.4379 -2.4990
 8190TIP3   OH246060   5.386   4.787   1.835  0.0113 -0.4864 -0.2717
 8190TIP3    H146061   5.320   4.718   1.830 -1.0531  0.5685 -2.5965
 8190TIP3    H246062   5.343   4.858   1.882  0.7084 -0.9727  1.1354
 8191TIP3   OH246063   4.103   4.638  10.673 -0.5649  0.2668 -0.1592
 8191TIP3    H146064   4.014   4.621  10.705  0.7144 -2.0877  2.5191
 8191TIP3    H246065   4.126   4.560  10.623  0.4907  0.2706  0.3070
 8192TIP3   OH246066   4.292   3.864   0.052 -0.9386 -0.4951  0.3378
 8192TIP3    H146067   4.324   3.777   0.025 -0.0744 -0.5150  1.3520
 8192TIP3    H246068   4.241   3.847   0.131 -1.1087 -0.1241  0.3088
 8193TIP3   OH246069   2.762   2.068  14.489  0.6084  0.2382 -0.2239
 8193TIP3    H146070   2.827   2.073  14.559  0.8383 -2.4210 -0.1376
 8193TIP3    H246071   2.684   2.034  14.532  0.4815 -0.5776 -1.0776
 8194TIP3   OH246072   3.885   1.179   6.150  0.6529 -0.0306  0.0557
 8194TIP3    H146073   3.894   1.259   6.202  1.5272  1.1994 -1.8666
 8194TIP3    H246074   3.972   1.165   6.112 -0.1402 -0.3013 -1.8102
 8195TIP3   OH246075   0.528   1.227  14.185  0.3539 -0.1507  0.3321
 8195TIP3    H146076   0.563   1.177  14.111  0.0186 -0.9523  0.7047
 8195TIP3    H246077   0.537   1.168  14.259 -2.2532 -0.5977  0.3704
 8196TIP3   OH246078   5.695   6.506   6.028  0.0059 -0.0619  0.3039
 8196TIP3    H146079   5.630   6.437   6.020 -0.7689  0.4029  2.0218
 8196TIP3    H246080   5.758   6.472   6.091  0.2636  0.3286  0.2622
 8197TIP3   OH246081   3.953   4.739   3.549  0.2478  0.3338  0.1580
 8197TIP3    H146082   3.917   4.718   3.635 -1.0223  2.1503  0.1374
 8197TIP3    H246083   3.982   4.830   3.557 -1.4229  1.1110 -1.7528
 8198TIP3   OH246084   4.053   6.537   3.281 -0.6515 -0.1561  0.2292
 8198TIP3    H146085   3.996   6.606   3.315 -0.0669 -0.6221  2.3026
 8198TIP3    H246086   4.139   6.556   3.319 -0.0196 -0.8983 -0.7997
 8199TIP3   OH246087   5.290   3.594   2.778  0.2098  0.7849  0.7257
 8199TIP3    H146088   5.214   3.577   2.723  0.5422  4.6134 -1.2483
 8199TIP3    H246089   5.271   3.550   2.861 -2.5267 -1.1848 -0.8165
 8200TIP3   OH246090   6.235   1.370   2.267 -0.2047 -0.3138  0.1756
 8200TIP3    H146091   6.210   1.433   2.334  0.4369 -0.7180  0.8123
 8200TIP3    H246092   6.208   1.285   2.301  2.6706 -0.9035  1.3364
 8201TIP3   OH246093   4.973   2.443  11.748  0.4617  0.3190 -0.4687
 8201TIP3    H146094   5.012   2.419  11.831 -1.0801 -1.6179 -0.2227
 8201TIP3    H246095   5.021   2.392  11.683  0.7754  0.7994 -0.6201
 8202TIP3   OH246096   1.629   5.594  16.267 -0.1185  0.4097 -0.1074
 8202TIP3    H146097   1.640   5.535  16.342  0.9243  2.6436  1.6239
 8202TIP3    H246098   1.719   5.608  16.235 -0.0652  2.5758  0.8346
 8203TIP3   OH246099   6.255   0.767   1.284 -0.2527  0.2615  0.3537
 8203TIP3    H146100   6.331   0.811   1.321 -0.7759  0.0091  1.8173
 8203TIP3    H246101   6.196   0.839   1.258 -0.9465  0.4929  2.3893
 8204TIP3   OH246102   5.255   1.142  16.636  0.2384  0.8305  0.0794
 8204TIP3    H146103   5.182   1.088  16.668 -0.1066 -0.1087 -2.0937
 8204TIP3    H246104   5.221   1.231  16.636  0.0068  0.7702  1.4931
 8205TIP3   OH246105   2.322   3.737  13.748 -0.1507  0.4726  0.0997
 8205TIP3    H146106   2.259   3.702  13.684  0.0796 -0.9508  0.6173
 8205TIP3    H246107   2.393   3.673  13.749  0.4862  1.1688  0.8066
 8206TIP3   OH246108   6.154   5.085   4.841 -0.0233  0.2144  0.1928
 8206TIP3    H146109   6.096   5.013   4.817 -0.4405  0.4179  0.5958
 8206TIP3    H246110   6.115   5.124   4.919  2.5514 -1.9183  2.7709
 8207TIP3   OH246111   5.049   0.467   2.988 -0.1734 -0.2168  0.5488
 8207TIP3    H146112   5.097   0.548   3.003 -1.5050  0.9589 -1.1126
 8207TIP3    H246113   4.976   0.470   3.049 -0.6699  0.2600 -0.0523
 8208TIP3   OH246114   1.362   0.307   1.067 -0.6844 -0.2983 -0.3190
 8208TIP3    H146115   1.404   0.391   1.046  0.5658 -0.6644  0.6079
 8208TIP3    H246116   1.401   0.281   1.151 -3.4026 -0.2722  1.0420
 8209TIP3   OH246117   4.458   6.469   4.105 -0.0771 -0.2003  0.4033
 8209TIP3    H146118   4.513   6.482   4.028  0.0418 -0.0687  0.5074
 8209TIP3    H246119   4.369   6.460   4.071 -0.4270  2.4153  0.3665
 8210TIP3   OH246120   3.437   0.240   2.331  0.0818 -0.2976  0.7971
 8210TIP3    H146121   3.404   0.202   2.250  2.2710  1.2235 -0.9480
 8210TIP3    H246122   3.360   0.278   2.374 -1.0991 -1.0170 -0.6206
 8211TIP3   OH246123   5.925   0.495  11.520  0.4172  0.0820  0.3314
 8211TIP3    H146124   5.835   0.515  11.493 -0.0626 -1.8286  0.3816
 8211TIP3    H246125   5.978   0.564  11.479 -0.8997  0.4517 -0.8383
 8212TIP3   OH246126   2.437   4.501  14.941  0.3612  0.0878  0.0776
 8212TIP3    H146127   2.456   4.595  14.945  0.9874 -0.0766  2.0167
 8212TIP3    H246128   2.349   4.492  14.977 -0.6307  0.1069 -2.1852
 8213TIP3   OH246129   5.727   3.166   4.842 -0.3223 -0.1939  0.0282
 8213TIP3    H146130   5.742   3.151   4.748 -1.1016 -1.7383  0.1016
 8213TIP3    H246131   5.789   3.108   4.886 -0.4392 -0.0069  0.4441
 8214TIP3   OH246132   3.296   4.894  10.833  0.5797 -0.2355 -0.1965
 8214TIP3    H146133   3.356   4.905  10.759  1.0006  2.6894  0.4199
 8214TIP3    H246134   3.221   4.848  10.796  0.9882  0.6714 -2.3499
 8215TIP3   OH246135   5.598   1.653   1.113 -0.1696 -0.1626 -0.1135
 8215TIP3    H146136   5.687   1.689   1.104  0.4626 -1.6356 -0.1018
 8215TIP3    H246137   5.560   1.664   1.026  0.6424 -1.0190 -0.5982
 8216TIP3   OH246138   0.185   0.462   4.590 -0.6017 -0.1904  0.0121
 8216TIP3    H146139   0.093   0.485   4.576 -0.1967  1.5228 -0.0527
 8216TIP3    H246140   0.222   0.538   4.635  0.5140 -1.3571  1.1331
 8217TIP3   OH246141   2.430   4.717  12.432 -0.3110 -0.1538  0.3259
 8217TIP3    H146142   2.440   4.706  12.337  0.3455  0.0519  0.3675
 8217TIP3    H246143   2.503   4.667  12.470 -0.6250 -0.3127  0.7302
 8218TIP3   OH246144   3.873   1.663   3.264  0.1784 -0.5134  0.3754
 8218TIP3    H146145   3.874   1.572   3.236  2.7696 -0.5776  0.5108
 8218TIP3    H246146   3.836   1.660   3.352  2.0417 -1.7162  1.1592
 8219TIP3   OH246147   4.542   6.263   3.875  0.0932 -0.3054 -0.1153
 8219TIP3    H146148   4.572   6.172   3.874  1.2889  0.0665 -0.1191
 8219TIP3    H246149   4.618   6.312   3.907 -1.2920  0.4403  2.2286
 8220TIP3   OH246150   4.412   0.447  15.534 -0.2715  0.2136  0.5423
 8220TIP3    H146151   4.376   0.428  15.620  0.9774 -3.8731  0.3709
 8220TIP3    H246152   4.505   0.463  15.550 -0.2115  0.3600  0.0567
 8221TIP3   OH246153   5.350   1.364   0.227 -0.3577 -0.4172 -0.2448
 8221TIP3    H146154   5.440   1.374   0.198 -0.3882 -0.2512 -0.2823
 8221TIP3    H246155   5.356   1.344   0.321 -0.2987 -0.0681 -0.1756
 8222TIP3   OH246156   6.806   6.505  16.413 -0.0308  0.6767 -0.7074
 8222TIP3    H146157   6.820   6.583  16.467 -1.8429  1.0882 -0.7820
 8222TIP3    H246158   6.812   6.536  16.323  1.0088  0.3696 -0.7550
 8223TIP3   OH246159   3.372   0.017  15.990 -0.3928  0.3912  0.6600
 8223TIP3    H146160   3.415  -0.053  16.039  0.8163 -0.0050 -0.8701
 8223TIP3    H246161   3.444   0.070  15.955 -1.2652  1.9754  1.1564
 8224TIP3   OH246162   2.785   1.297  10.417  0.2269 -0.1261 -0.9316
 8224TIP3    H146163   2.841   1.291  10.340  0.7560 -0.8605 -0.5053
 8224TIP3    H246164   2.764   1.206  10.439  1.5595 -0.0568  0.8368
 8225TIP3   OH246165   0.088   5.581  13.976  0.1120  0.0657 -0.4675
 8225TIP3    H146166   0.105   5.487  13.974  0.3753 -0.0239  2.0113
 8225TIP3    H246167   0.076   5.606  13.885 -0.5706 -2.4774 -1.1520
 8226TIP3   OH246168   4.537   1.150  14.763 -0.6432  0.2785  0.3413
 8226TIP3    H146169   4.570   1.116  14.679  1.4326 -1.6591  1.8145
 8226TIP3    H246170   4.487   1.078  14.800 -1.4147  1.0643  0.8580
 8227TIP3   OH246171   1.470   5.277  13.552  0.0786  0.1458  0.0473
 8227TIP3    H146172   1.552   5.242  13.518 -0.4989 -1.2480  0.0097
 8227TIP3    H246173   1.415   5.200  13.565 -1.0277  1.0009  0.6111
 8228TIP3   OH246174   1.394   6.716  15.167  0.7189 -0.0333  0.1674
 8228TIP3    H146175   1.319   6.658  15.153  1.0759 -0.2451 -0.9851
 8228TIP3    H246176   1.398   6.770  15.087  0.8459  1.0640  0.8981
 8229TIP3   OH246177   3.009   2.375  11.202 -0.2235  0.5915 -0.0698
 8229TIP3    H146178   3.026   2.303  11.262 -1.6788  1.2443  1.2008
 8229TIP3    H246179   2.925   2.354  11.162 -0.1130  1.0248 -0.5408
 8230TIP3   OH246180   0.689   3.816   3.341  0.1597  0.0531  0.5136
 8230TIP3    H146181   0.616   3.859   3.385 -0.8252 -0.5400 -0.5043
 8230TIP3    H246182   0.696   3.730   3.383 -1.8443 -1.1820 -1.4547
 8231TIP3   OH246183   0.853   2.436   6.500  0.0269  0.1345  0.0232
 8231TIP3    H146184   0.798   2.477   6.567 -0.7569 -0.2648 -0.3696
 8231TIP3    H246185   0.818   2.348   6.491  0.3126  0.0894 -0.7084
 8232TIP3   OH246186   4.305   0.179   3.073  0.5552  0.3502 -0.8040
 8232TIP3    H146187   4.212   0.158   3.070  0.5943  0.2623 -2.4353
 8232TIP3    H246188   4.309   0.268   3.108 -0.1075  0.1793 -0.2854
 8233TIP3   OH246189   6.257   6.572  12.493  0.4675 -0.5113 -0.1029
 8233TIP3    H146190   6.349   6.552  12.508  0.6595 -0.0989 -0.6771
 8233TIP3    H246191   6.224   6.601  12.578  0.7705 -1.0112  0.1882
 8234TIP3   OH246192   1.822   1.391   6.003 -0.5894  0.0787 -0.3766
 8234TIP3    H146193   1.772   1.471   6.017  1.0660  0.9205  1.0578
 8234TIP3    H246194   1.859   1.370   6.089  0.0136 -1.5525 -0.9862
 8235TIP3   OH246195   4.410   0.760   3.245 -0.4664 -0.2305 -0.3971
 8235TIP3    H146196   4.341   0.721   3.299 -0.7016  0.5411 -0.1392
 8235TIP3    H246197   4.396   0.722   3.158 -1.9272  0.7728 -0.6276
 8236TIP3   OH246198   2.213   1.441   3.343  0.1219 -0.1072 -0.0948
 8236TIP3    H146199   2.288   1.475   3.294 -0.0741  1.0304  0.3711
 8236TIP3    H246200   2.176   1.517   3.388  0.3749 -1.1011  1.9378
 8237TIP3   OH246201   6.662   0.601  11.085  0.1545  0.1918 -0.4524
 8237TIP3    H146202   6.692   0.512  11.066 -1.8740 -0.2562 -1.9793
 8237TIP3    H246203   6.670   0.609  11.180  2.2925 -0.8410 -0.4808
 8238TIP3   OH246204   3.054   4.106   1.329  0.0920 -0.5932 -0.0231
 8238TIP3    H146205   3.080   4.167   1.397 -0.0439  0.1478 -0.6238
 8238TIP3    H246206   3.119   4.119   1.260 -1.3642  0.7071 -1.2194
 8239TIP3   OH246207   3.220   5.399   1.516 -0.5305 -0.2570  0.2036
 8239TIP3    H146208   3.160   5.328   1.539 -0.7730  0.3746  1.6258
 8239TIP3    H246209   3.307   5.364   1.539 -0.1697 -1.4532 -2.5330
 8240TIP3   OH246210   4.904   3.607   2.119 -0.1272  0.4224  0.7750
 8240TIP3    H146211   4.913   3.511   2.119 -0.4068  0.3939  0.3584
 8240TIP3    H246212   4.984   3.638   2.162  0.5549  0.0481 -0.1669
 8241TIP3   OH246213   2.580   0.508   4.711  0.1197  0.2028 -0.5383
 8241TIP3    H146214   2.665   0.468   4.692 -0.2628 -1.1829  0.5020
 8241TIP3    H246215   2.517   0.456   4.660 -0.1381  1.1666 -1.2370
 8242TIP3   OH246216   3.003   1.323   2.581  0.1532  0.2903 -0.6917
 8242TIP3    H146217   2.909   1.339   2.575 -0.2132 -0.5838  1.5615
 8242TIP3    H246218   3.036   1.394   2.636  0.2925 -0.8573  0.7833
 8243TIP3   OH246219   6.591   5.102  14.763  0.0294  0.0353 -0.1989
 8243TIP3    H146220   6.619   5.013  14.782 -2.0472 -0.5938  0.1834
 8243TIP3    H246221   6.500   5.093  14.734 -0.8039  2.1571  1.4671
 8244TIP3   OH246222   3.821   3.502   3.718 -0.0203  0.3371 -0.3999
 8244TIP3    H146223   3.733   3.476   3.690 -0.7634  2.2080  0.0644
 8244TIP3    H246224   3.823   3.597   3.708  0.9070  0.7127  2.3419
 8245TIP3   OH246225   5.858   1.676  16.797  0.4899 -0.9389 -0.3519
 8245TIP3    H146226   5.892   1.641  16.715 -2.0340 -0.6017 -1.6501
 8245TIP3    H246227   5.844   1.769  16.780 -0.5946 -0.9686  0.2569
 8246TIP3   OH246228   0.561   2.700   1.089  0.1122  0.0319  0.0962
 8246TIP3    H146229   0.588   2.774   1.035 -1.7057  0.2601 -0.5673
 8246TIP3    H246230   0.473   2.722   1.119 -1.3072 -2.5838 -1.6652
 8247TIP3   OH246231   6.759   4.135  12.826 -0.3408 -0.5378 -0.7096
 8247TIP3    H146232   6.811   4.082  12.887  0.1406 -0.4397 -1.0287
 8247TIP3    H246233   6.678   4.086  12.815  0.0949 -1.2096 -0.9862
 8248TIP3   OH246234   0.951   0.307  10.980  0.2905 -0.5101  1.1425
 8248TIP3    H146235   0.992   0.234  10.934  1.9769  0.5692  0.8542
 8248TIP3    H246236   0.899   0.266  11.049  0.2323 -2.0089  0.2435
 8249TIP3   OH246237   1.643   0.039   5.645  0.1863  0.0734 -0.3733
 8249TIP3    H146238   1.647  -0.030   5.580 -0.0468 -0.8122  0.5292
 8249TIP3    H246239   1.549   0.056   5.656  0.2130  0.0587 -0.1129
 8250TIP3   OH246240   4.204   1.452  13.780  0.5871 -0.2607  0.3495
 8250TIP3    H146241   4.204   1.507  13.858 -0.1025  1.6930 -0.9708
 8250TIP3    H246242   4.281   1.481  13.730  1.9061 -2.5153  0.9100
 8251TIP3   OH246243   1.945   0.023   2.728  0.4335 -0.1743  0.3727
 8251TIP3    H146244   2.022  -0.033   2.718  1.0301  0.7066 -0.0926
 8251TIP3    H246245   1.872  -0.039   2.735  1.1737 -1.0264  0.8805
 8252TIP3   OH246246   4.790   3.081   0.287 -0.1527  0.3150 -0.2479
 8252TIP3    H146247   4.710   3.036   0.262  1.2508 -1.9533 -0.9016
 8252TIP3    H246248   4.856   3.049   0.226  1.3724  1.8205  0.5202
 8253TIP3   OH246249   4.113   6.300  15.197  0.4281 -0.1133  0.2031
 8253TIP3    H146250   4.106   6.231  15.263 -0.1040 -0.3039 -0.0471
 8253TIP3    H246251   4.049   6.366  15.224 -0.3248 -0.5302 -0.5146
 8254TIP3   OH246252   0.016   2.839  16.651  0.2442  0.1095 -0.2210
 8254TIP3    H146253   0.074   2.870  16.583  0.0647 -0.1606 -0.4987
 8254TIP3    H246254  -0.058   2.799  16.604  0.0523  0.0471  0.1264
 8255TIP3   OH246255   4.442   3.543  11.570  0.1461 -0.0317  0.2085
 8255TIP3    H146256   4.359   3.554  11.617  0.1327 -2.1216  0.8074
 8255TIP3    H246257   4.506   3.586  11.626 -0.3149  0.1783  0.5898
 8256TIP3   OH246258   5.372   2.283  12.302  0.4430  0.2760  0.4616
 8256TIP3    H146259   5.446   2.291  12.363  0.8567 -1.1807  0.1933
 8256TIP3    H246260   5.397   2.211  12.243 -0.0441  1.4854 -1.3024
 8257TIP3   OH246261   5.190   1.787   2.378 -0.0517 -0.0223  0.9105
 8257TIP3    H146262   5.230   1.818   2.459 -0.3825  1.2659  0.5954
 8257TIP3    H246263   5.143   1.862   2.343  0.2383 -0.4940 -0.5895
 8258TIP3   OH246264   0.542   6.310   0.266 -0.1980  0.2409 -0.6420
 8258TIP3    H146265   0.552   6.224   0.307 -1.9088 -0.4702 -1.6205
 8258TIP3    H246266   0.495   6.292   0.185 -1.0283  2.1639 -0.6250
 8259TIP3   OH246267   1.295   4.528   3.998 -0.0325  0.1041  0.0230
 8259TIP3    H146268   1.227   4.561   4.057 -0.5674 -0.8010 -0.0820
 8259TIP3    H246269   1.358   4.485   4.056  0.5157  1.0124  0.1292
 8260TIP3   OH246270   5.363   2.235   0.583  0.6668 -0.1496  0.0795
 8260TIP3    H146271   5.438   2.174   0.581  1.3981  0.7488 -0.7100
 8260TIP3    H246272   5.357   2.268   0.494  0.2540  0.9131  0.4946
 8261TIP3   OH246273   2.440   1.909   0.581 -0.0295  0.3922 -0.0692
 8261TIP3    H146274   2.354   1.903   0.622  0.1341 -0.7101  0.1459
 8261TIP3    H246275   2.422   1.935   0.491 -0.5212  1.0112  0.2014
 8262TIP3   OH246276   0.351   5.724   3.059  0.9999 -0.2442  0.6127
 8262TIP3    H146277   0.367   5.719   2.965 -1.0142  1.8239  0.0628
 8262TIP3    H246278   0.262   5.691   3.069  1.6595 -1.6973  2.0266
 8263TIP3   OH246279   6.249   4.233   2.826  0.0208 -0.0578  0.1424
 8263TIP3    H146280   6.228   4.322   2.799 -2.4666 -0.8042 -0.5962
 8263TIP3    H246281   6.198   4.177   2.768 -0.7321 -1.8872  2.4122
 8264TIP3   OH246282   3.768   4.127   4.435  0.1681 -0.2103  0.0376
 8264TIP3    H146283   3.822   4.048   4.428  0.4918  0.0261 -0.1627
 8264TIP3    H246284   3.716   4.113   4.515  0.1725 -0.6535 -0.0351
 8265TIP3   OH246285   5.869   2.085  12.346  0.7087  0.0681 -0.3930
 8265TIP3    H146286   5.921   2.041  12.413  1.5962  1.6230 -0.0112
 8265TIP3    H246287   5.892   2.040  12.265  2.6318  0.6455 -0.2217
 8266TIP3   OH246288   1.643   5.295  15.228  0.5947  0.2678  0.5957
 8266TIP3    H146289   1.701   5.228  15.264  0.6094 -0.7268 -1.1548
 8266TIP3    H246290   1.667   5.299  15.135 -0.9429  1.1012  0.2129
 8267TIP3   OH246291   2.626   6.638  15.576 -0.0759 -0.6381 -0.1201
 8267TIP3    H146292   2.639   6.675  15.488  0.1475 -0.3645  0.0254
 8267TIP3    H246293   2.673   6.699  15.634  0.5669 -1.3265  0.0935
 8268TIP3   OH246294   2.996   2.335   3.563  0.3959  0.3428 -0.5976
 8268TIP3    H146295   3.089   2.357   3.575  0.1931  1.1505 -0.4012
 8268TIP3    H246296   2.954   2.420   3.548 -0.3498  0.0123 -0.4150
 8269TIP3   OH246297   1.492   6.630   3.887 -0.6784  0.5921 -0.7008
 8269TIP3    H146298   1.444   6.684   3.824 -1.3720 -0.5772 -1.1977
 8269TIP3    H246299   1.437   6.630   3.965 -1.2513 -0.3193 -1.0926
 8270TIP3   OH246300   3.684   3.786  17.218 -0.2233 -0.3081 -0.0021
 8270TIP3    H146301   3.727   3.871  17.209  1.2767 -1.1083 -0.6783
 8270TIP3    H246302   3.629   3.778  17.140  1.0555 -0.7229 -0.8878
 8271TIP3   OH246303   0.536   0.279  14.713 -0.2299  0.1540 -0.0535
 8271TIP3    H146304   0.594   0.353  14.732 -0.2224 -0.0853  0.9341
 8271TIP3    H246305   0.591   0.216  14.666 -0.0201  0.4394 -0.1878
 8272TIP3   OH246306   4.968   3.432   5.378  0.1053 -0.2644 -0.2638
 8272TIP3    H146307   5.001   3.365   5.437  0.8386  1.1459  0.9839
 8272TIP3    H246308   4.874   3.435   5.395  0.2009 -0.3775  0.2883
 8273TIP3   OH246309   4.207   3.552  12.043  0.3359  0.4136 -0.4890
 8273TIP3    H146310   4.161   3.636  12.043 -0.1048  0.1928 -1.6144
 8273TIP3    H246311   4.296   3.573  12.017  1.0593  0.9039  2.1139
 8274TIP3   OH246312   3.090   1.020   0.619 -0.3643  0.1581  0.3158
 8274TIP3    H146313   3.021   1.078   0.587  0.2119  0.5137 -0.3152
 8274TIP3    H246314   3.103   1.046   0.710 -0.2543  0.8886  0.0974
 8275TIP3   OH246315   2.634   5.505   5.280  0.2993 -0.2422 -0.2260
 8275TIP3    H146316   2.581   5.426   5.283  1.5363 -1.0974 -0.1850
 8275TIP3    H246317   2.721   5.477   5.307  1.0412  0.9034 -1.3047
 8276TIP3   OH246318   5.900   2.896  14.804  0.1623 -0.0698  0.2468
 8276TIP3    H146319   5.979   2.933  14.843 -0.6502  2.6099 -0.3888
 8276TIP3    H246320   5.829   2.924  14.863 -0.6218  0.3334 -0.8507
 8277TIP3   OH246321   4.006   1.370   4.463 -0.4434  0.5121 -0.0815
 8277TIP3    H146322   3.951   1.355   4.540  0.3564  0.1050  0.4179
 8277TIP3    H246323   3.991   1.462   4.440  0.3307  1.0258  1.3775
 8278TIP3   OH246324   0.985   3.069  12.523 -0.1890 -0.2427  0.2830
 8278TIP3    H146325   1.008   2.976  12.524 -0.7295 -0.4195 -0.9948
 8278TIP3    H246326   0.889   3.070  12.517 -0.3794  0.4449  2.7365
 8279TIP3   OH246327   3.031   3.981   5.856  0.1194  0.1946 -0.0349
 8279TIP3    H146328   3.035   3.962   5.762  0.3556 -1.4117  0.2682
 8279TIP3    H246329   3.061   3.900   5.898  2.7903  1.7679  1.3727
 8280TIP3   OH246330   0.899   3.947  17.203  0.5510 -0.1793 -0.1692
 8280TIP3    H146331   0.832   3.889  17.240  1.4662 -1.6107 -0.6601
 8280TIP3    H246332   0.944   3.893  17.138 -0.1235  1.7979 -2.4506
 8281TIP3   OH246333   5.877   0.122   3.332 -0.0102  0.5910 -0.5592
 8281TIP3    H146334   5.898   0.210   3.364  0.7834 -0.5597  2.4429
 8281TIP3    H246335   5.791   0.102   3.370  0.5651 -0.5192  0.2140
 8282TIP3   OH246336   3.455   6.377   5.540 -0.3230 -0.1319  0.6979
 8282TIP3    H146337   3.437   6.284   5.528  2.1371 -0.6797  0.6701
 8282TIP3    H246338   3.376   6.422   5.509 -0.1761 -2.0401 -2.9616
 8283TIP3   OH246339   1.675   2.669  14.134  0.3356 -0.2216 -0.3749
 8283TIP3    H146340   1.750   2.715  14.096  0.8057  2.6205  3.3717
 8283TIP3    H246341   1.600   2.726  14.114  0.0444 -0.4087  0.1759
 8284TIP3   OH246342   0.279   3.805   1.727  0.4744  0.2228  0.4541
 8284TIP3    H146343   0.245   3.762   1.805  2.0093  0.8761  1.5361
 8284TIP3    H246344   0.337   3.874   1.761  1.6276  0.1598 -1.2680
 8285TIP3   OH246345   0.984   3.022   1.930 -0.3978  0.4941  0.2492
 8285TIP3    H146346   0.903   2.977   1.955 -0.0445 -0.5525 -0.4336
 8285TIP3    H246347   1.052   2.955   1.936  0.4056  1.3127  0.6330
 8286TIP3   OH246348   4.576   3.849   0.461 -0.0531  0.1204 -0.5659
 8286TIP3    H146349   4.617   3.762   0.460  0.5899  0.3718  1.0043
 8286TIP3    H246350   4.504   3.842   0.399  0.2908 -1.3829 -0.8465
 8287TIP3   OH246351   4.042   4.208   1.487 -0.1233  0.0426 -0.1347
 8287TIP3    H146352   4.015   4.151   1.559  0.8257  1.2326  1.2290
 8287TIP3    H246353   4.125   4.170   1.457 -0.6585 -0.6129 -0.7931
 8288TIP3   OH246354   6.177   2.983   2.793 -0.2349 -0.5450 -0.0883
 8288TIP3    H146355   6.271   2.963   2.786  0.4141  1.8951  0.5581
 8288TIP3    H246356   6.164   3.056   2.733 -1.5331 -0.3028  0.4630
 8289TIP3   OH246357   0.724   4.005  11.688 -0.3555 -0.1340  0.0781
 8289TIP3    H146358   0.647   4.033  11.737 -0.9096  0.3399 -1.0217
 8289TIP3    H246359   0.766   3.940  11.744 -0.4263  1.0575  1.5977
 8290TIP3   OH246360   1.512   1.260   2.102  0.6169 -0.1070 -0.2289
 8290TIP3    H146361   1.441   1.313   2.137  0.9901  2.0471 -2.4724
 8290TIP3    H246362   1.590   1.292   2.147  0.6618  0.3267 -0.6071
 8291TIP3   OH246363   6.224   5.699   3.797  0.6008 -0.2770  0.0275
 8291TIP3    H146364   6.142   5.686   3.845  0.2311  1.5718  0.0084
 8291TIP3    H246365   6.284   5.735   3.863  1.1992 -1.0051 -0.1131
 8292TIP3   OH246366   0.023   0.523   5.519  0.2079 -0.1589  0.0604
 8292TIP3    H146367  -0.004   0.459   5.453  0.1863 -0.1994  0.1086
 8292TIP3    H246368   0.004   0.481   5.603 -0.5316  0.2157  0.0886
 8293TIP3   OH246369   4.713   0.946   4.564 -0.5131  0.0806 -0.1919
 8293TIP3    H146370   4.703   0.978   4.474  0.3124 -0.2535 -0.4181
 8293TIP3    H246371   4.789   0.887   4.560 -0.1482  0.4500  0.8256
 8294TIP3   OH246372   3.932   0.838   3.681  0.6859  0.5006 -0.3523
 8294TIP3    H146373   3.877   0.868   3.754  0.5869  0.2049 -0.3048
 8294TIP3    H246374   3.873   0.837   3.606  0.9233  1.3389 -0.5588
 8295TIP3   OH246375   6.448   3.244  15.630 -0.1037  0.0390 -0.1788
 8295TIP3    H146376   6.382   3.250  15.699 -0.9023  2.0167 -1.0602
 8295TIP3    H246377   6.434   3.321  15.576  1.0768 -0.9920 -2.0703
 8296TIP3   OH246378   2.137   1.168  13.151  0.4878 -0.0418 -0.1568
 8296TIP3    H146379   2.061   1.221  13.130  0.5893  0.5943  0.9798
 8296TIP3    H246380   2.149   1.179  13.245  1.4760 -0.8087 -0.1702
 8297TIP3   OH246381   0.211   3.631  13.729  0.0198 -0.3154  0.3624
 8297TIP3    H146382   0.193   3.665  13.642 -1.1985  0.5866  0.9387
 8297TIP3    H246383   0.243   3.707  13.779  0.6707 -0.8112  0.7226
 8298TIP3   OH246384   5.290   2.808   3.402  0.4469 -0.3907 -0.1895
 8298TIP3    H146385   5.253   2.869   3.466 -1.1891 -0.3421 -1.1077
 8298TIP3    H246386   5.294   2.724   3.448 -2.0826 -0.6896 -0.3920
 8299TIP3   OH246387   1.757   3.794   3.861 -0.4008  0.0592  0.3664
 8299TIP3    H146388   1.717   3.879   3.882  1.6989  0.9186  1.0686
 8299TIP3    H246389   1.794   3.764   3.943 -1.0384 -1.5551  0.1088
 8300TIP3   OH246390   4.600   1.153  12.066  0.2879 -0.4561 -0.4131
 8300TIP3    H146391   4.567   1.153  11.976  2.2899  0.4588 -1.2003
 8300TIP3    H246392   4.634   1.064  12.078  0.3350 -0.4800 -0.7012
 8301TIP3   OH246393   2.692   1.083  16.766  0.1382 -0.5022 -0.0180
 8301TIP3    H146394   2.686   1.133  16.847 -1.7770  0.9620 -0.9739
 8301TIP3    H246395   2.745   1.137  16.708  0.0271 -0.6977 -0.3053
 8302TIP3   OH246396   5.119   0.695  17.039  0.1781  0.2765  0.8575
 8302TIP3    H146397   5.154   0.642  16.967  0.8871  2.3113 -0.4007
 8302TIP3    H246398   5.025   0.677  17.038  0.1949  0.1299 -0.4874
 8303TIP3   OH246399   1.828   2.401  14.949  0.0926 -0.2603  0.1421
 8303TIP3    H146400   1.782   2.467  14.896 -1.1573 -1.5125 -0.3976
 8303TIP3    H246401   1.852   2.333  14.886  1.8194 -0.1269  0.6050
 8304TIP3   OH246402   0.195   3.883  16.463 -0.1359  0.5517 -0.6765
 8304TIP3    H146403   0.206   3.804  16.410 -0.7273  0.3096 -0.4493
 8304TIP3    H246404   0.233   3.953  16.411  1.4665 -0.0497 -0.4083
 8305TIP3   OH246405   4.084   4.050  16.516 -0.3157  0.5043 -0.9453
 8305TIP3    H146406   4.000   4.012  16.491 -1.0547  1.8643 -0.6256
 8305TIP3    H246407   4.113   4.099  16.439  0.8340 -0.9722 -1.5016
 8306TIP3   OH246408   4.415   0.301  13.702 -0.5364 -0.1733 -0.1638
 8306TIP3    H146409   4.394   0.214  13.666  0.2816  0.0473 -1.2177
 8306TIP3    H246410   4.391   0.295  13.794 -0.1994 -1.6333 -0.1499
 8307TIP3   OH246411   2.459   5.413  11.676 -0.7197  0.2255  0.3290
 8307TIP3    H146412   2.371   5.381  11.695 -0.4011 -1.7215 -1.1955
 8307TIP3    H246413   2.445   5.494  11.627 -1.6743 -0.2444 -0.2000
 8308TIP3   OH246414   5.919   5.024   0.134 -0.3152 -0.1218 -0.4194
 8308TIP3    H146415   5.825   5.037   0.125 -0.4005 -0.0427  0.4951
 8308TIP3    H246416   5.957   5.111   0.121 -0.2844 -0.2976 -1.6406
 8309TIP3   OH246417   1.898   2.728   3.446  0.5453 -0.3983  0.3403
 8309TIP3    H146418   1.867   2.734   3.355 -1.1734  2.4985  0.9784
 8309TIP3    H246419   1.867   2.643   3.477 -0.7286 -0.5286 -1.1689
 8310TIP3   OH246420   5.802   0.428  11.136  0.1459  0.3612 -0.4484
 8310TIP3    H146421   5.803   0.354  11.075  1.8189 -0.2863  0.3235
 8310TIP3    H246422   5.708   0.447  11.147 -0.2665 -0.6715 -1.7913
 8311TIP3   OH246423   4.865   2.908   3.327  0.5657 -0.6476 -0.0364
 8311TIP3    H146424   4.924   2.833   3.330  0.5070 -0.6655  1.3111
 8311TIP3    H246425   4.780   2.872   3.352 -0.0103 -0.5840 -1.7456
 8312TIP3   OH246426   0.782   1.042   3.655  0.5604  0.1081  0.6106
 8312TIP3    H146427   0.819   1.007   3.574 -0.1563  0.1669  0.2549
 8312TIP3    H246428   0.832   0.998   3.724  1.8393  0.7794  0.1434
 8313TIP3   OH246429   5.981   6.028  12.810 -0.6073 -0.1934  0.5045
 8313TIP3    H146430   5.994   6.102  12.869 -0.3237  0.7879 -0.7504
 8313TIP3    H246431   5.886   6.017  12.807 -0.6293 -0.1674  1.0417
 8314TIP3   OH246432   0.177   0.603  11.652  0.5296  0.4588  0.5185
 8314TIP3    H146433   0.247   0.571  11.707  0.8346 -0.5206 -0.4088
 8314TIP3    H246434   0.221   0.652  11.582  0.2314  0.6482  0.4593
 8315TIP3   OH246435   4.823   2.903  16.854 -0.1786  0.5659 -0.0103
 8315TIP3    H146436   4.883   2.952  16.910  1.9938  0.4357 -2.0972
 8315TIP3    H246437   4.871   2.890  16.772 -1.7702 -2.5228 -0.5895
 8316TIP3   OH246438   2.815   5.536  12.098  0.6177  0.1789 -0.9291
 8316TIP3    H146439   2.829   5.452  12.142 -0.3142  0.8947  0.8620
 8316TIP3    H246440   2.734   5.523  12.048  0.2725  0.0965 -0.3631
 8317TIP3   OH246441   2.271   5.415   6.124 -0.3735  0.3008  0.1754
 8317TIP3    H146442   2.360   5.382   6.109 -1.0742 -1.0746 -1.1610
 8317TIP3    H246443   2.269   5.434   6.218  0.4095 -2.6809  0.9236
 8318TIP3   OH246444   0.673   6.374   1.817 -0.0071  0.2446 -0.5866
 8318TIP3    H146445   0.752   6.428   1.815  1.8059 -2.2513 -0.5406
 8318TIP3    H246446   0.682   6.320   1.895 -1.8706 -0.0231 -0.4948
 8319TIP3   OH246447   4.926   1.641   2.466 -0.4032 -0.3021  0.2757
 8319TIP3    H146448   4.877   1.601   2.539  1.6198 -0.3163  1.6971
 8319TIP3    H246449   4.939   1.732   2.493  1.3205 -0.5887  0.4867
 8320TIP3   OH246450   1.291   5.064   3.224 -0.2098 -0.2939 -0.8921
 8320TIP3    H146451   1.356   5.084   3.157 -0.4895  0.0949 -1.0511
 8320TIP3    H246452   1.335   5.001   3.281 -0.5688 -1.9911 -2.4092
 8321TIP3   OH246453   3.149   6.479  13.727 -0.0840  0.0047  0.6528
 8321TIP3    H146454   3.058   6.493  13.754 -0.1101  3.0377 -0.5769
 8321TIP3    H246455   3.200   6.529  13.791  0.3390  1.7076 -0.9269
 8322TIP3   OH246456   0.842   0.644   3.903  0.3751 -0.1177 -0.0550
 8322TIP3    H146457   0.793   0.633   3.984 -1.0736  0.3944 -0.8185
 8322TIP3    H246458   0.848   0.556   3.866 -1.5745  0.0102 -0.8037
 8323TIP3   OH246459   4.678   1.980   0.264  0.1488  0.0683 -0.2827
 8323TIP3    H146460   4.756   1.968   0.210 -0.0272 -1.2802 -0.2741
 8323TIP3    H246461   4.614   1.920   0.227  0.0811 -1.0479  1.5376
 8324TIP3   OH246462   2.069   4.672   3.366  0.1080  0.1197 -0.3371
 8324TIP3    H146463   2.137   4.697   3.428 -1.6184  2.0090  0.9103
 8324TIP3    H246464   2.008   4.618   3.416 -1.6685  2.2293 -0.0642
 8325TIP3   OH246465   2.557   0.169   1.563  0.1396  0.5561 -0.5723
 8325TIP3    H146466   2.466   0.197   1.569  0.7830  2.6627  0.2828
 8325TIP3    H246467   2.586   0.200   1.477  0.0056 -0.2770 -0.9211
 8326TIP3   OH246468   2.866   4.493   4.942  0.4339 -0.5016  0.2720
 8326TIP3    H146469   2.780   4.494   4.898 -0.3126  1.6957  1.6095
 8326TIP3    H246470   2.879   4.584   4.969  2.9939 -0.8918  0.5334
 8327TIP3   OH246471   6.763   1.043  13.386 -0.4971  0.6559 -0.2044
 8327TIP3    H146472   6.760   0.950  13.365  0.5163  0.5018  0.2716
 8327TIP3    H246473   6.816   1.082  13.317  0.7959  0.5356  0.6922
 8328TIP3   OH246474   3.508   3.610  15.302 -0.7532  0.0389  1.1282
 8328TIP3    H146475   3.532   3.695  15.339  1.8265 -0.3188  0.4657
 8328TIP3    H246476   3.588   3.579  15.259 -2.4611 -1.3802 -1.2834
 8329TIP3   OH246477   1.683   2.861   0.999 -0.5131  0.2009  0.3362
 8329TIP3    H146478   1.762   2.845   1.051 -0.2744  0.1981 -0.0226
 8329TIP3    H246479   1.699   2.816   0.916  0.4057  2.6219 -0.9257
 8330TIP3   OH246480   1.550   1.240  11.896 -0.3596  0.1641 -0.1364
 8330TIP3    H146481   1.459   1.213  11.906 -0.2912 -0.4412 -1.0463
 8330TIP3    H246482   1.561   1.253  11.802  0.9036 -1.3091 -0.2316
 8331TIP3   OH246483   5.022   5.833   5.553  0.3901 -0.6852 -0.4044
 8331TIP3    H146484   5.068   5.808   5.633  1.3487  0.3996 -0.5855
 8331TIP3    H246485   5.000   5.925   5.567 -0.9241 -0.9435 -0.7126
 8332TIP3   OH246486   5.337   5.777   5.660  0.2315  0.0556  0.1927
 8332TIP3    H146487   5.392   5.782   5.738 -1.7278 -1.3515  1.7700
 8332TIP3    H246488   5.259   5.729   5.688 -0.0466 -1.6104 -2.9544
 8333TIP3   OH246489   4.243   1.237  15.107 -0.0130  0.3667 -0.4097
 8333TIP3    H146490   4.264   1.322  15.070  0.8967 -0.1981 -1.2284
 8333TIP3    H246491   4.153   1.221  15.082 -0.1907  1.0836 -0.2484
 8334TIP3   OH246492   0.714   5.775  14.853 -0.1700  0.0480 -0.0762
 8334TIP3    H146493   0.668   5.715  14.795 -1.6936 -0.5943  1.7119
 8334TIP3    H246494   0.717   5.858  14.804  0.7532 -1.0545 -2.0107
 8335TIP3   OH246495   4.937   5.571   0.125  0.0255 -0.3458  0.1273
 8335TIP3    H146496   5.012   5.518   0.099 -0.6893 -1.4522  0.2253
 8335TIP3    H246497   4.957   5.600   0.214  0.7408  0.1609 -0.1921
 8336TIP3   OH246498   6.197   0.023   1.496 -0.8884 -0.4246  0.2852
 8336TIP3    H146499   6.119   0.022   1.551 -0.5189  1.3757  0.8883
 8336TIP3    H246500   6.163   0.041   1.408 -1.1632  0.4780  0.5635
 8337TIP3   OH246501   0.525   4.243  12.760  0.4082  0.0044 -0.4112
 8337TIP3    H146502   0.549   4.156  12.729  0.6411 -0.0414 -0.1061
 8337TIP3    H246503   0.456   4.271  12.701 -0.7994 -1.0451  0.4463
 8338TIP3   OH246504   3.728   3.489   1.525  0.5854  0.4139 -0.6025
 8338TIP3    H146505   3.669   3.438   1.470  0.3350 -1.6464  1.4026
 8338TIP3    H246506   3.802   3.510   1.468  0.4069 -1.7160 -1.7161
 8339TIP3   OH246507   4.316   0.674  12.763  0.3618 -0.0198 -0.2779
 8339TIP3    H146508   4.233   0.713  12.738  1.0803  1.7640 -0.0140
 8339TIP3    H246509   4.372   0.686  12.686  1.0179  0.7706  0.3153
 8340TIP3   OH246510   4.035   4.063   2.161  0.4259  0.4554  0.3521
 8340TIP3    H146511   4.062   4.112   2.238  0.5328 -0.0874  0.6643
 8340TIP3    H246512   3.979   3.993   2.195  3.8394 -2.4715  0.4771
 8341TIP3   OH246513   6.527   5.807   4.242  0.3563  0.4838  0.1904
 8341TIP3    H146514   6.513   5.895   4.278  0.8040 -0.5579  3.1988
 8341TIP3    H246515   6.621   5.803   4.225  0.7474 -0.0878  2.2380
 8342TIP3   OH246516   4.154   5.916  15.073 -0.0037  0.4115  0.1626
 8342TIP3    H146517   4.170   5.854  15.003  0.7127  0.0211  0.6564
 8342TIP3    H246518   4.232   5.911  15.128  0.7431  2.8087 -0.5604
 8343TIP3   OH246519   0.427   5.319  15.085 -0.1543 -0.2137  0.1051
 8343TIP3    H146520   0.514   5.356  15.069 -0.5326  0.1654 -1.1814
 8343TIP3    H246521   0.380   5.387  15.132  0.7925 -1.1232  2.5218
 8344TIP3   OH246522   6.705   1.591   0.637  0.2744  0.2948  0.0762
 8344TIP3    H146523   6.621   1.561   0.673  1.0964 -0.2836  1.5939
 8344TIP3    H246524   6.734   1.660   0.698  0.6071  0.9356 -0.7919
 8345TIP3   OH246525   6.218   2.885   6.000 -0.0249  0.8690  0.2210
 8345TIP3    H146526   6.137   2.913   5.956 -0.2181  2.3349  1.4356
 8345TIP3    H246527   6.223   2.940   6.078  1.8060  0.3272  0.5261
 8346TIP3   OH246528   0.105   6.076   6.603 -0.5105  0.2261 -0.0355
 8346TIP3    H146529   0.029   6.072   6.545 -0.5196  1.7813 -0.1803
 8346TIP3    H246530   0.164   6.139   6.560 -0.3108  1.0447  1.3813
 8347TIP3   OH246531   2.193   3.773  12.967 -0.0675 -0.3017  0.0038
 8347TIP3    H146532   2.259   3.742  13.028  1.5971  2.4019 -0.2585
 8347TIP3    H246533   2.219   3.736  12.882 -0.2055 -1.0217  0.2690
 8348TIP3   OH246534   3.457   0.941   5.846 -0.5375  0.0269 -0.9426
 8348TIP3    H146535   3.376   0.910   5.887  1.5022 -2.6038  1.5332
 8348TIP3    H246536   3.498   0.996   5.913 -0.8532  2.6130 -2.7380
 8349TIP3   OH246537   1.736   3.977   1.805 -0.4087 -0.1156  0.0230
 8349TIP3    H146538   1.732   3.973   1.900 -0.4144  0.1274  0.0318
 8349TIP3    H246539   1.822   4.012   1.785  0.1894 -1.5838 -0.0954
 8350TIP3   OH246540   1.604   2.062  11.608 -0.3474  0.4907  0.2439
 8350TIP3    H146541   1.536   1.999  11.630 -1.7948  0.9291 -2.6328
 8350TIP3    H246542   1.678   2.009  11.579 -0.5610  0.0866  0.4389
 8351TIP3   OH246543   4.779   5.440  15.292 -0.2821 -0.3579  0.3177
 8351TIP3    H146544   4.867   5.438  15.329 -0.3430  0.4641  0.5303
 8351TIP3    H246545   4.780   5.373  15.224  0.1138 -1.2696  1.1871
 8352TIP3   OH246546   2.481   1.298  11.446  1.0541 -0.2639  0.3050
 8352TIP3    H146547   2.506   1.389  11.432  2.8405 -0.5591  1.2609
 8352TIP3    H246548   2.517   1.252  11.370  0.6148 -0.2514  0.0881
 8353TIP3   OH246549   0.301   0.131  13.671  0.0800  0.3334  0.3801
 8353TIP3    H146550   0.282   0.100  13.583  0.0741  0.8693  0.1892
 8353TIP3    H246551   0.397   0.139  13.673  0.3119 -1.9626  1.2048
 8354TIP3   OH246552   6.454   1.746   4.594 -0.0478 -0.0329 -0.7054
 8354TIP3    H146553   6.412   1.671   4.637  0.1447  1.0009  1.3642
 8354TIP3    H246554   6.548   1.731   4.606 -0.0070  0.5016 -0.3565
 8355TIP3   OH246555   1.491   0.633   3.974 -0.0911  0.1332  0.3011
 8355TIP3    H146556   1.466   0.714   3.931 -0.8331  0.8921  2.0527
 8355TIP3    H246557   1.435   0.566   3.933 -0.1620  0.6609 -0.4844
 8356TIP3   OH246558   1.357   5.799   6.009  0.9709 -0.6035 -0.0484
 8356TIP3    H146559   1.264   5.795   6.030  1.2367  0.5858  1.5421
 8356TIP3    H246560   1.396   5.724   6.054  0.7363 -1.4559 -1.2086
 8357TIP3   OH246561   2.132   5.638  12.669  0.0042 -0.0753 -0.0088
 8357TIP3    H146562   2.203   5.693  12.634  1.8767 -1.1904  1.8112
 8357TIP3    H246563   2.069   5.700  12.704  1.0373  0.9676  0.0816
 8358TIP3   OH246564   1.316   0.336   1.898 -0.5126 -0.2603  0.7001
 8358TIP3    H146565   1.365   0.259   1.870 -1.1615 -0.8321  1.0855
 8358TIP3    H246566   1.365   0.411   1.863 -1.3037 -0.9042 -2.0415
 8359TIP3   OH246567   2.449   6.433  12.894  0.4812  0.1961  0.1469
 8359TIP3    H146568   2.419   6.376  12.823 -2.7185 -1.3098  2.4375
 8359TIP3    H246569   2.473   6.373  12.965  1.7429  1.6570  1.0124
 8360TIP3   OH246570   3.694   0.265  14.050  0.1672 -0.3737 -0.1858
 8360TIP3    H146571   3.649   0.288  14.131  1.5967 -0.8048  0.7665
 8360TIP3    H246572   3.779   0.231  14.078  0.6689 -0.6137 -1.8643
 8361TIP3   OH246573   4.934   1.508  14.585  0.0004  0.3526  0.2440
 8361TIP3    H146574   5.023   1.484  14.610  0.0708 -0.0173 -0.3553
 8361TIP3    H246575   4.879   1.437  14.620  0.1360 -0.3507 -0.9233
 8362TIP3   OH246576   4.646   3.684  12.316  0.1504 -0.1912 -0.5093
 8362TIP3    H146577   4.717   3.685  12.380  0.0520 -1.1263 -0.3630
 8362TIP3    H246578   4.566   3.676  12.369  0.0575 -0.7746 -0.7221
 8363TIP3   OH246579   1.729   0.727  12.880  0.6634 -0.0356 -0.1637
 8363TIP3    H146580   1.812   0.696  12.917  1.0069  0.1257 -0.7801
 8363TIP3    H246581   1.755   0.784  12.808  0.0142  0.3321 -0.1103
 8364TIP3   OH246582   5.112   4.166  15.849  0.0282  0.5232 -0.2237
 8364TIP3    H146583   5.167   4.209  15.784 -0.3817  0.5244 -0.5714
 8364TIP3    H246584   5.049   4.115  15.798 -0.4255  0.6870  0.1601
 8365TIP3   OH246585   1.187   3.812  16.794 -0.4704  0.4531 -0.0629
 8365TIP3    H146586   1.120   3.863  16.748 -0.0625 -0.9065 -2.2889
 8365TIP3    H246587   1.261   3.872  16.803 -0.3416  0.5967 -1.7961
 8366TIP3   OH246588   1.656   2.473  15.161  0.3985 -0.2024  0.1015
 8366TIP3    H146589   1.725   2.465  15.095 -2.1680 -1.0326 -2.7510
 8366TIP3    H246590   1.618   2.559  15.145 -0.1068 -0.3162  0.6836
 8367TIP3   OH246591   2.101   1.780   1.069 -0.3153 -0.4856 -0.3227
 8367TIP3    H146592   2.085   1.874   1.074 -2.2470 -0.8270  0.8656
 8367TIP3    H246593   2.033   1.741   1.125  1.0562 -2.5220  0.0324
 8368TIP3   OH246594   4.775   0.369   0.681  0.2107 -0.4294 -0.2003
 8368TIP3    H146595   4.850   0.422   0.708  0.7723 -0.7518 -1.0822
 8368TIP3    H246596   4.729   0.424   0.618 -1.0190  0.2692  1.2692
 8369TIP3   OH246597   0.162   3.901  17.163 -0.4336 -1.0255 -0.1658
 8369TIP3    H146598   0.069   3.894  17.186 -0.4353 -1.2652 -0.2435
 8369TIP3    H246599   0.161   3.924  17.070 -0.4184 -0.7232 -0.0930
 8370TIP3   OH246600   4.957   2.858   5.418  0.0458 -0.9966 -0.1676
 8370TIP3    H146601   4.909   2.857   5.501  1.3351  1.0657  0.6824
 8370TIP3    H246602   5.021   2.788   5.426  1.6941  0.5786  1.6450
 8371TIP3   OH246603   2.301   2.692  16.843 -0.3228 -0.2174 -0.7181
 8371TIP3    H146604   2.341   2.694  16.756  1.7395 -0.1331  0.1848
 8371TIP3    H246605   2.374   2.679  16.903 -1.4992  1.2124  1.1386
 8372TIP3   OH246606   0.514   4.429   0.687  0.3034 -0.5871  0.4757
 8372TIP3    H146607   0.428   4.446   0.649  0.1344 -0.2706  0.9959
 8372TIP3    H246608   0.553   4.517   0.697 -0.0858 -0.5681  2.0526
 8373TIP3   OH246609   6.401   1.731  14.159 -0.5183  0.3977 -0.3027
 8373TIP3    H146610   6.317   1.766  14.187 -0.2300  3.5633 -2.8901
 8373TIP3    H246611   6.379   1.664  14.094 -0.9798 -0.9316  1.1445
 8374TIP3   OH246612   5.117   4.472  15.510  0.1904 -0.0142 -0.0993
 8374TIP3    H146613   5.204   4.468  15.549  1.2743 -0.4038 -2.3754
 8374TIP3    H246614   5.067   4.403  15.554  1.3204 -0.4331  0.5530
 8375TIP3   OH246615   0.321   3.544  16.404 -0.5735 -0.3904  0.3075
 8375TIP3    H146616   0.323   3.630  16.362 -1.3288  0.7878  2.5403
 8375TIP3    H246617   0.413   3.517  16.408 -0.4044 -0.1006 -1.1556
 8376TIP3   OH246618   4.519   5.417   1.501 -0.5159 -0.1363  0.3293
 8376TIP3    H146619   4.516   5.351   1.570  0.4268 -0.2356  0.2783
 8376TIP3    H246620   4.538   5.368   1.421  3.0148  0.4250  0.6789
 8377TIP3   OH246621   1.278   6.073  16.974  0.4610  0.1946  0.1326
 8377TIP3    H146622   1.263   6.049  16.882  0.8197 -0.6763  0.2905
 8377TIP3    H246623   1.239   6.001  17.024  0.2208  0.6931  0.6646
 8378TIP3   OH246624   4.159   3.741  16.451 -0.0522 -0.6480  0.6513
 8378TIP3    H146625   4.166   3.827  16.408 -0.6182 -0.3134  1.2175
 8378TIP3    H246626   4.228   3.741  16.517  0.4326 -0.9308  0.1560
 8379TIP3   OH246627   5.633   0.434   5.412  0.3328  0.0200 -0.0259
 8379TIP3    H146628   5.690   0.388   5.351  0.6316 -0.7907  0.8457
 8379TIP3    H246629   5.650   0.527   5.395  2.2716 -0.1939  0.5183
 8380TIP3   OH246630   1.796   4.222  15.143  0.7375  0.1580 -0.1875
 8380TIP3    H146631   1.734   4.223  15.216 -1.0872  0.5096 -1.6911
 8380TIP3    H246632   1.751   4.268  15.072  2.7255  0.4075 -1.3502
 8381TIP3   OH246633   2.509   5.432  12.890  0.0287 -0.3447  0.3141
 8381TIP3    H146634   2.597   5.399  12.907 -0.0309 -0.2258  0.8511
 8381TIP3    H246635   2.507   5.445  12.795  1.0481  0.9414  0.4442
 8382TIP3   OH246636   1.018   6.757   4.422 -0.1707 -0.4096 -0.3981
 8382TIP3    H146637   1.047   6.678   4.376 -0.6697  0.0408 -1.5156
 8382TIP3    H246638   0.933   6.778   4.383 -1.0199 -0.4734  1.3182
 8383TIP3   OH246639   3.094   4.480  13.887  0.3775  0.5025 -0.0123
 8383TIP3    H146640   3.140   4.421  13.947 -2.0110 -0.8285  0.6470
 8383TIP3    H246641   3.007   4.441  13.877 -0.0203  1.8374 -2.6980
 8384TIP3   OH246642   0.001   2.009  11.259 -0.4948  0.8230  0.2913
 8384TIP3    H146643   0.083   2.059  11.260 -0.1670  0.2988 -0.1907
 8384TIP3    H246644  -0.050   2.047  11.330  0.3590  0.8389  0.9196
 8385TIP3   OH246645   3.746   3.875  13.801 -0.0297 -0.2620  0.1092
 8385TIP3    H146646   3.664   3.840  13.837  0.2090 -1.2534 -0.2618
 8385TIP3    H246647   3.809   3.803  13.811  0.5085  0.0926 -0.6122
 8386TIP3   OH246648   3.760   6.335   0.669  0.3710  0.3363 -1.0970
 8386TIP3    H146649   3.846   6.375   0.660  0.5900  0.0057 -0.5471
 8386TIP3    H246650   3.774   6.262   0.730 -0.6162  1.2925  0.3317
 8387TIP3   OH246651   1.074   3.713   1.575 -0.3966 -0.2476 -0.0376
 8387TIP3    H146652   1.117   3.795   1.551 -0.9841  0.7982  2.1675
 8387TIP3    H246653   0.982   3.726   1.551 -0.5304 -0.1339  0.5024
 8388TIP3   OH246654   5.894   4.672   1.717 -0.0432  0.2633  0.2131
 8388TIP3    H146655   5.875   4.757   1.756 -0.0989 -0.1031  1.0061
 8388TIP3    H246656   5.974   4.643   1.761  1.7328  1.2053 -2.1491
 8389TIP3   OH246657   5.245   4.577   3.739  0.1254 -0.6028 -0.0119
 8389TIP3    H146658   5.293   4.623   3.807  2.1713 -2.8117  0.1565
 8389TIP3    H246659   5.232   4.489   3.774 -0.3084 -1.2775 -1.7686
 8390TIP3   OH246660   1.738   6.194  15.851 -0.3410 -0.0787  0.2403
 8390TIP3    H146661   1.713   6.282  15.877 -1.8325 -0.7629  1.2766
 8390TIP3    H246662   1.732   6.142  15.932  1.9374 -0.8730 -0.0059
 8391TIP3   OH246663   2.687   5.962  15.041  0.2061  0.0578 -0.7345
 8391TIP3    H146664   2.690   5.907  15.119  0.0967  0.7353 -0.2400
 8391TIP3    H246665   2.701   5.902  14.968  1.1929 -0.4691 -0.1363
 8392TIP3   OH246666   3.149   5.138   1.884 -0.1542 -0.1563  0.1015
 8392TIP3    H146667   3.094   5.106   1.955 -1.4945  1.9316  0.0862
 8392TIP3    H246668   3.209   5.200   1.926 -0.8340  0.9541 -0.5289
 8393TIP3   OH246669   6.611   4.400  11.831  0.8347 -0.0105  0.3815
 8393TIP3    H146670   6.683   4.395  11.894  1.2428  1.0220  0.0361
 8393TIP3    H246671   6.632   4.336  11.764  0.2127 -1.3752  1.4518
 8394TIP3   OH246672   3.413   3.419  16.684  0.0535  0.1647  0.5259
 8394TIP3    H146673   3.458   3.341  16.653  1.5018  1.2688 -0.3429
 8394TIP3    H246674   3.482   3.471  16.726 -0.9352  0.8359  1.3636
 8395TIP3   OH246675   4.628   6.475  10.915  0.4841 -0.2688 -0.1066
 8395TIP3    H146676   4.545   6.429  10.920  1.0103 -1.1385  1.6457
 8395TIP3    H246677   4.689   6.411  10.878  0.7983 -0.3323  0.5113
 8396TIP3   OH246678   6.090   5.881   1.945  0.2085  0.0924 -0.4350
 8396TIP3    H146679   6.093   5.785   1.945 -0.6161  0.0544 -0.3538
 8396TIP3    H246680   6.181   5.908   1.950  0.4146 -0.6991  0.5024
 8397TIP3   OH246681   1.981   4.094   5.100 -0.7459 -0.3067  0.2922
 8397TIP3    H146682   2.064   4.064   5.062 -0.9298 -1.5759  0.8670
 8397TIP3    H246683   1.992   4.189   5.108  0.8439 -0.5015  0.7885
 8398TIP3   OH246684   1.578   2.158   3.127  0.4617 -0.6474  0.3300
 8398TIP3    H146685   1.538   2.139   3.042  1.6416 -2.4860  0.1139
 8398TIP3    H246686   1.509   2.199   3.178 -0.3801  0.2012 -1.3945
 8399TIP3   OH246687   6.612   1.582  12.277  0.1712  0.5126  0.0483
 8399TIP3    H146688   6.679   1.556  12.215  0.5943 -0.4630  0.8735
 8399TIP3    H246689   6.531   1.582  12.227  0.6940  1.0668 -0.8081
 8400TIP3   OH246690   5.321   2.562   5.945 -0.4597  0.7710  0.3754
 8400TIP3    H146691   5.390   2.627   5.933  1.0827 -0.8698 -0.0401
 8400TIP3    H246692   5.357   2.500   6.008 -0.9156 -0.9209 -0.9385
 8401TIP3   OH246693   0.377   1.231   5.938 -0.2235 -0.1768 -0.1520
 8401TIP3    H146694   0.435   1.188   5.876 -1.9337 -0.7591 -1.4346
 8401TIP3    H246695   0.312   1.165   5.961 -0.5137  0.4945  1.0970
 8402TIP3   OH246696   3.172   1.811   3.850 -0.1191 -0.6949 -0.9212
 8402TIP3    H146697   3.263   1.835   3.831 -0.7963  2.2805 -0.8355
 8402TIP3    H246698   3.126   1.823   3.768 -0.5211 -2.0326 -0.9197
 8403TIP3   OH246699   5.341   0.362   2.420 -0.2281 -0.5443  0.6317
 8403TIP3    H146700   5.336   0.283   2.475 -1.6586 -0.7078  0.3078
 8403TIP3    H246701   5.273   0.349   2.354  1.2215 -0.1996 -1.0077
 8404TIP3   OH246702   1.659   5.777  11.947 -0.3417 -0.4296  0.2408
 8404TIP3    H146703   1.659   5.718  12.022 -1.2104 -0.3156  0.3374
 8404TIP3    H246704   1.606   5.851  11.975  1.1688  0.6739  0.3207
 8405TIP3   OH246705   5.579   3.323  15.074  0.5357  0.0476 -0.7084
 8405TIP3    H146706   5.565   3.365  15.159 -0.5652  2.7435 -2.1058
 8405TIP3    H246707   5.658   3.364  15.040  1.2402 -1.3564 -0.8572
 8406TIP3   OH246708   2.099   6.779  12.011 -0.1060  0.1282  0.0059
 8406TIP3    H146709   2.105   6.746  11.921 -0.5239  0.2343 -0.0639
 8406TIP3    H246710   2.116   6.703  12.066  2.1282  0.4430 -0.1460
 8407TIP3   OH246711   2.807   2.648   0.564 -0.4350 -0.2579 -0.2086
 8407TIP3    H146712   2.899   2.624   0.557 -0.2706 -0.7818  2.5040
 8407TIP3    H246713   2.759   2.569   0.540 -0.2157  0.0217 -1.6462
 8408TIP3   OH246714   5.835   0.665  15.875  0.3302 -0.1657  0.4966
 8408TIP3    H146715   5.755   0.613  15.868  0.1389  0.0214  1.1770
 8408TIP3    H246716   5.901   0.613  15.830 -0.3069 -0.0160 -0.6368
 8409TIP3   OH246717   0.858   2.631  10.258 -0.0621  0.3613 -0.3343
 8409TIP3    H146718   0.926   2.696  10.275 -1.0698  1.0906  1.1694
 8409TIP3    H246719   0.851   2.582  10.340 -0.2061 -0.8203 -1.0262
 8410TIP3   OH246720   1.191   1.277   3.983 -0.2932  0.1933 -0.3970
 8410TIP3    H146721   1.176   1.368   3.959 -0.3978  0.1620 -0.4508
 8410TIP3    H246722   1.179   1.274   4.077 -1.8123 -0.0635 -0.5798
 8411TIP3   OH246723   1.394   5.408  11.258 -0.0977 -0.1240 -0.3732
 8411TIP3    H146724   1.313   5.365  11.231 -0.2002 -0.4304  0.3801
 8411TIP3    H246725   1.440   5.342  11.311 -1.4094  1.3801  2.9602
 8412TIP3   OH246726   1.121   6.322   1.285  0.1317  0.3135  0.3268
 8412TIP3    H146727   1.114   6.292   1.376 -1.2044 -0.7223 -0.0928
 8412TIP3    H246728   1.139   6.242   1.235  0.0503  0.7597 -0.4236
 8413TIP3   OH246729   4.629   3.877   5.934 -0.0273 -0.2454 -0.0798
 8413TIP3    H146730   4.563   3.917   5.990 -0.8823 -1.0049 -0.5259
 8413TIP3    H246731   4.712   3.914   5.965 -0.5943  0.2549  0.8880
 8414TIP3   OH246732   1.832   6.599   2.444 -0.7707 -0.0930  0.3286
 8414TIP3    H146733   1.834   6.581   2.538 -1.1273 -1.0746  0.1660
 8414TIP3    H246734   1.885   6.529   2.406 -2.1001 -0.7727 -0.3330
 8415TIP3   OH246735   6.234   4.013   0.143 -0.2826  0.3184  0.1791
 8415TIP3    H146736   6.248   4.058   0.060 -1.2704  1.8564  0.8206
 8415TIP3    H246737   6.210   3.924   0.118 -1.0944  0.9062 -1.2049
 8416TIP3   OH246738   3.065   6.043   5.286 -0.2733  0.1175  0.0557
 8416TIP3    H146739   3.038   6.020   5.197  1.2136  0.6811 -0.5650
 8416TIP3    H246740   3.159   6.028   5.288 -0.2797  0.1222  1.5496
 8417TIP3   OH246741   0.884   4.837  15.527 -0.0527  0.2500 -0.3134
 8417TIP3    H146742   0.954   4.827  15.463 -0.3956 -0.1384 -0.6347
 8417TIP3    H246743   0.902   4.770  15.594  1.9077  2.4407  1.5360
 8418TIP3   OH246744   0.833   1.601  12.565  0.4367 -0.3883 -0.1710
 8418TIP3    H146745   0.833   1.695  12.546 -0.0516 -0.6363 -1.4971
 8418TIP3    H246746   0.820   1.560  12.480 -1.3753 -1.6034  0.6349
 8419TIP3   OH246747   1.576   6.067  15.362  0.2713 -0.4931 -0.2281
 8419TIP3    H146748   1.598   6.105  15.448 -1.8704 -0.6564  0.4375
 8419TIP3    H246749   1.659   6.067  15.315  1.1832  1.1594  1.2422
 8420TIP3   OH246750   2.661   6.449   1.328 -0.9065  0.8186 -0.2050
 8420TIP3    H146751   2.655   6.448   1.233  3.2529  1.0347 -0.6117
 8420TIP3    H246752   2.629   6.535   1.354  0.4729  1.8291 -1.7113
 8421TIP3   OH246753   4.485   0.123   2.507 -0.5506 -0.0965  0.1428
 8421TIP3    H146754   4.544   0.156   2.574 -0.5250  0.8041 -0.3073
 8421TIP3    H246755   4.535   0.128   2.426 -0.1369 -2.3545  0.1905
 8422TIP3   OH246756   3.061   3.350  14.491 -0.8003 -0.4749 -0.1177
 8422TIP3    H146757   3.052   3.355  14.586  0.4385 -0.3257  0.0098
 8422TIP3    H246758   3.010   3.424  14.459  0.9279  1.1501  0.6236
 8423TIP3   OH246759   3.032   5.546  13.068  1.2212  0.2607 -0.0659
 8423TIP3    H146760   3.111   5.497  13.089  1.4526  0.5154 -0.3281
 8423TIP3    H246761   2.971   5.524  13.138  0.9966 -1.1113 -0.6703
 8424TIP3   OH246762   2.858   0.693  11.985 -0.6055  0.1260  0.1569
 8424TIP3    H146763   2.853   0.772  12.040  1.2495 -0.9256  1.9641
 8424TIP3    H246764   2.845   0.725  11.896  3.0863  3.0610  0.4250
 8425TIP3   OH246765   5.916   1.619  12.037 -0.3637 -0.2381 -0.2602
 8425TIP3    H146766   5.981   1.600  11.969  0.6152 -0.6511  0.7454
 8425TIP3    H246767   5.832   1.611  11.993  0.2544  1.8264 -2.0110
 8426TIP3   OH246768   4.629   2.942   0.705  0.2894 -0.0619  0.2183
 8426TIP3    H146769   4.583   2.989   0.775  0.6887 -0.9451  1.0930
 8426TIP3    H246770   4.559   2.907   0.650 -0.0174  1.8177 -0.6622
 8427TIP3   OH246771   4.342   2.126   3.279  0.2760  0.5295 -0.2376
 8427TIP3    H146772   4.343   2.036   3.244  1.1947  0.0707  0.8816
 8427TIP3    H246773   4.394   2.120   3.359 -2.6576  1.2922  1.8519
 8428TIP3   OH246774   4.773   3.500   5.110  0.6604 -0.1133 -0.1600
 8428TIP3    H146775   4.750   3.483   5.018 -0.2286  1.0379 -0.1667
 8428TIP3    H246776   4.712   3.568   5.138  1.3340 -0.0039  1.1068
 8429TIP3   OH246777   4.333   5.571   5.706 -0.4227 -0.7974  0.5975
 8429TIP3    H146778   4.356   5.551   5.797  1.3235  0.7295  0.5446
 8429TIP3    H246779   4.237   5.573   5.705 -0.4713 -0.8647  2.3954
 8430TIP3   OH246780   5.554   3.511   5.221 -0.5650  0.0105 -0.0360
 8430TIP3    H146781   5.478   3.454   5.207 -1.9177  1.6209  0.3225
 8430TIP3    H246782   5.566   3.557   5.138 -1.1198  1.0204  0.4215
 8431TIP3   OH246783   3.547   3.876   0.311 -0.1097  0.5328  0.0461
 8431TIP3    H146784   3.613   3.808   0.301  1.2982  1.6618  1.2601
 8431TIP3    H246785   3.595   3.958   0.295 -2.0229  1.2747 -2.8004
 8432TIP3   OH246786   0.443   0.686  14.314 -0.1926 -0.0078  0.3768
 8432TIP3    H146787   0.503   0.633  14.366  0.8882  0.1017 -0.7183
 8432TIP3    H246788   0.484   0.692  14.228 -0.9117  1.5331  0.0980
 8433TIP3   OH246789   3.376   5.477   0.789 -0.2896  0.1055 -0.1329
 8433TIP3    H146790   3.319   5.493   0.714 -0.6100  0.3257  0.1541
 8433TIP3    H246791   3.331   5.518   0.862 -0.6719 -1.3400  0.4564
 8434TIP3   OH246792   0.978   5.734   2.236  0.6645 -0.0282 -0.0246
 8434TIP3    H146793   1.048   5.790   2.202  0.6469 -0.2297 -0.3959
 8434TIP3    H246794   0.917   5.724   2.163 -0.0513  0.6191  0.4779
 8435TIP3   OH246795   2.808   4.277   5.563 -0.4819 -0.3481 -0.4349
 8435TIP3    H146796   2.853   4.194   5.548 -1.3366 -1.0239  0.5698
 8435TIP3    H246797   2.877   4.343   5.556  0.2856 -1.1743 -0.8569
 8436TIP3   OH246798   0.246   4.166   1.649 -0.0746 -0.0412 -0.1784
 8436TIP3    H146799   0.231   4.102   1.718  0.0645 -1.2584 -1.2415
 8436TIP3    H246800   0.286   4.241   1.694 -0.1758 -0.7176  1.0782
 8437TIP3   OH246801   5.778   1.798  12.446 -0.5277 -0.1470 -0.2715
 8437TIP3    H146802   5.789   1.705  12.463  2.1897  0.4812  2.1275
 8437TIP3    H246803   5.786   1.806  12.351  1.7400 -2.1334 -0.3350
 8438TIP3   OH246804   6.575   3.941   1.407 -0.4596 -0.0355  0.1791
 8438TIP3    H146805   6.614   3.928   1.321  0.4156  0.5910  0.4615
 8438TIP3    H246806   6.490   3.899   1.402 -1.0700  1.2735 -1.4919
 8439TIP3   OH246807   3.296   0.529   2.145  0.1893  0.3021 -0.0235
 8439TIP3    H146808   3.208   0.560   2.122  0.2930 -0.3999 -1.4341
 8439TIP3    H246809   3.292   0.517   2.240 -0.7949  1.6357  0.1500
 8440TIP3   OH246810   3.200   0.729  12.156  0.2439 -0.1499 -0.0308
 8440TIP3    H146811   3.233   0.708  12.069  0.7229 -0.4256  0.2190
 8440TIP3    H246812   3.158   0.814  12.145  0.9176  0.1452 -0.3809
 8441TIP3   OH246813   1.447   4.281  16.873  0.3053 -0.1075  0.3128
 8441TIP3    H146814   1.507   4.262  16.801  0.9191  1.1666  0.4665
 8441TIP3    H246815   1.407   4.365  16.849 -1.3196 -0.8554  0.2889
 8442TIP3   OH246816   4.523   6.635  14.426 -0.3427  0.0733 -0.4177
 8442TIP3    H146817   4.548   6.569  14.361 -0.4509 -0.2739 -0.1089
 8442TIP3    H246818   4.523   6.717  14.377 -1.5967 -0.3422 -1.1744
 8443TIP3   OH246819   4.456   2.263   0.573 -0.0571  0.3594  0.7650
 8443TIP3    H146820   4.499   2.257   0.488 -1.6905  0.1721 -0.0832
 8443TIP3    H246821   4.428   2.174   0.592 -1.5053  0.7251  0.4881
 8444TIP3   OH246822   3.071   0.474   4.375  0.0124 -0.3284  0.0780
 8444TIP3    H146823   2.993   0.460   4.321 -0.5415 -0.2021  0.8315
 8444TIP3    H246824   3.061   0.563   4.410  1.8053  0.7461 -1.9201
 8445TIP3   OH246825   5.097   1.461  15.279 -0.3220  0.1928 -0.5230
 8445TIP3    H146826   5.159   1.444  15.208  0.9952  2.5729 -0.0807
 8445TIP3    H246827   5.013   1.473  15.236  0.0588 -0.4037 -1.4511
 8446TIP3   OH246828   4.954   1.075   3.670 -0.8358 -0.4912  0.3052
 8446TIP3    H146829   4.974   1.151   3.724  0.2044  0.5854 -1.4985
 8446TIP3    H246830   4.880   1.103   3.616  0.6684 -0.0121 -1.6440
 8447TIP3   OH246831   1.295   6.748  13.340  0.7111 -0.0883 -0.3205
 8447TIP3    H146832   1.313   6.841  13.330  0.4632  0.0033  0.0790
 8447TIP3    H246833   1.288   6.734  13.435  1.5746 -0.6716 -0.3204
 8448TIP3   OH246834   6.448   4.688   4.926  0.1672  0.2701  0.5610
 8448TIP3    H146835   6.419   4.773   4.891  0.8357  0.7350  1.1128
 8448TIP3    H246836   6.398   4.624   4.876  0.2206  0.9595 -0.4038
 8449TIP3   OH246837   1.468   0.482   4.960 -0.2971  0.1406  0.7544
 8449TIP3    H146838   1.413   0.512   5.032 -2.4822  2.1308 -1.5528
 8449TIP3    H246839   1.431   0.397   4.934 -3.0399  1.8107 -1.2854
 8450TIP3   OH246840   3.029   2.052  10.990  0.0814  0.1026  0.3096
 8450TIP3    H146841   2.949   2.007  10.965  0.5169 -0.2604 -0.4729
 8450TIP3    H246842   3.097   2.012  10.936  1.3017 -1.5238  2.8430
 8451TIP3   OH246843   1.554   1.306   0.468 -0.2776  0.3801 -0.7532
 8451TIP3    H146844   1.639   1.315   0.511 -0.1606 -2.5144 -0.2001
 8451TIP3    H246845   1.575   1.303   0.374  0.5210 -2.1913 -0.5513
 8452TIP3   OH246846   4.683   1.750   1.122  0.6852 -0.2588 -0.7029
 8452TIP3    H146847   4.622   1.769   1.050  2.0272 -0.2791 -1.8968
 8452TIP3    H246848   4.756   1.705   1.079  1.2370 -0.8411  0.8009
 8453TIP3   OH246849   6.485   2.117   1.973 -0.0357 -0.2875  0.2231
 8453TIP3    H146850   6.572   2.077   1.967  1.8562  3.6307 -1.3889
 8453TIP3    H246851   6.499   2.199   2.021 -2.3697  1.5045 -1.8771
 8454TIP3   OH246852   1.963   0.599  15.129  0.3246  0.5221 -0.4841
 8454TIP3    H146853   1.947   0.554  15.046  0.2313  0.7463 -0.5867
 8454TIP3    H246854   1.966   0.528  15.194 -0.2309  0.4002 -0.5837
 8455TIP3   OH246855   2.234   0.307  17.008  0.8936  0.2404  0.2206
 8455TIP3    H146856   2.268   0.349  17.086  0.5878  0.2641  0.3413
 8455TIP3    H246857   2.227   0.214  17.032  2.7171 -0.1061 -0.4325
 8456TIP3   OH246858   3.669   3.452  13.372 -0.2070 -0.2700  0.4266
 8456TIP3    H146859   3.761   3.448  13.398 -0.4150  0.6653  1.3722
 8456TIP3    H246860   3.669   3.428  13.280  0.9779 -0.3758  0.4416
 8457TIP3   OH246861   1.516   3.749  11.657 -0.4638 -0.3034 -0.2636
 8457TIP3    H146862   1.513   3.741  11.561  1.1150  2.0147 -0.5917
 8457TIP3    H246863   1.609   3.752  11.678 -0.7996  0.2663  1.2292
 8458TIP3   OH246864   5.826   4.975   3.927  0.2377  0.0249  0.0867
 8458TIP3    H146865   5.887   5.045   3.903 -0.2272  0.6951  0.8211
 8458TIP3    H246866   5.745   5.021   3.952  0.1253 -0.7289  1.1764
 8459TIP3   OH246867   4.682   1.874  16.144  0.0246 -0.2265 -0.0330
 8459TIP3    H146868   4.659   1.947  16.202  2.8690  1.9078 -1.3801
 8459TIP3    H246869   4.753   1.829  16.190  0.3557 -0.2559 -0.5684
 8460TIP3   OH246870   0.150   0.585   2.589 -0.6534  0.1080 -0.0878
 8460TIP3    H146871   0.159   0.508   2.644  0.0443  1.2186  1.4357
 8460TIP3    H246872   0.056   0.594   2.575 -0.6750 -1.9206 -1.7192
 8461TIP3   OH246873   0.197   3.635   1.938 -0.3150 -0.0927 -0.2221
 8461TIP3    H146874   0.135   3.668   2.002  0.7305  1.9185 -0.1929
 8461TIP3    H246875   0.176   3.542   1.931 -2.6351  0.3167  0.5293
 8462TIP3   OH246876   6.667   6.218   1.090 -0.0728 -0.3753  0.2743
 8462TIP3    H146877   6.740   6.157   1.085  1.6098  1.3989  1.5794
 8462TIP3    H246878   6.652   6.230   1.184  0.5371  2.1274  0.1203
 8463TIP3   OH246879   3.400   5.366  16.417  0.1024 -0.4146 -0.3905
 8463TIP3    H146880   3.376   5.443  16.365  0.5561 -1.2839 -1.9478
 8463TIP3    H246881   3.494   5.356  16.404  0.3800 -0.2515  1.2200
 8464TIP3   OH246882   1.958   6.278  11.255  0.6799 -0.2499 -0.4625
 8464TIP3    H146883   1.996   6.192  11.275 -0.9697 -0.7939  0.5091
 8464TIP3    H246884   1.877   6.259  11.208  0.8358  0.8300 -1.2063
 8465TIP3   OH246885   6.733   1.569  16.437 -0.2256  0.1167 -0.0257
 8465TIP3    H146886   6.686   1.512  16.498  1.5949  0.2072  1.5694
 8465TIP3    H246887   6.690   1.654  16.446  0.8857  0.5010  2.2952
 8466TIP3   OH246888   4.484   4.885  13.382  0.6694  0.5797 -0.6904
 8466TIP3    H146889   4.481   4.870  13.477  2.1426  0.9714 -0.5581
 8466TIP3    H246890   4.524   4.972  13.373 -0.8202  1.1963 -1.6461
 8467TIP3   OH246891   3.529   6.103   0.216 -0.3962 -0.3479  0.0045
 8467TIP3    H146892   3.498   6.174   0.161 -0.3736  1.1809  1.8618
 8467TIP3    H246893   3.541   6.143   0.303  2.3601 -1.9125  0.4645
 8468TIP3   OH246894   3.298   1.333   3.482 -0.3669  0.2550  0.0058
 8468TIP3    H146895   3.257   1.266   3.427 -1.0765  0.7550 -0.0824
 8468TIP3    H246896   3.358   1.284   3.539 -0.1706 -0.3474 -0.7022
 8469TIP3   OH246897   2.782   4.143  13.468 -0.0845  0.2665  1.1440
 8469TIP3    H146898   2.859   4.142  13.525  1.9290 -1.1178 -1.3894
 8469TIP3    H246899   2.781   4.230  13.429 -0.4440  0.6365  1.9656
 8470TIP3   OH246900   5.537   2.046   4.285  0.0766  0.7947  0.8242
 8470TIP3    H146901   5.561   2.134   4.315  1.7013  0.4854  0.4899
 8470TIP3    H246902   5.617   1.995   4.291  0.4338  0.5321 -3.4055
 8471TIP3   OH246903   3.732   4.523   4.311  0.6232  0.8131  0.1320
 8471TIP3    H146904   3.717   4.556   4.222 -0.7031 -0.3156 -0.0967
 8471TIP3    H246905   3.645   4.513   4.348  1.1642  1.2049  1.5662
 8472TIP3   OH246906   2.579   4.943  14.703 -0.6705 -0.3725 -0.2140
 8472TIP3    H146907   2.672   4.939  14.683  0.1281 -1.4325  3.0707
 8472TIP3    H246908   2.564   5.033  14.732 -0.0642 -0.7576  1.4144
 8473TIP3   OH246909   2.829   1.784  17.272  0.7025 -1.1604  0.7079
 8473TIP3    H146910   2.892   1.786  17.200  1.1192  0.5828  1.0842
 8473TIP3    H246911   2.880   1.755  17.348  1.2252  0.6426  1.1055
 8474TIP3   OH246912   1.861   0.548   2.050  0.1169  0.2010  0.1684
 8474TIP3    H146913   1.887   0.637   2.029 -0.2549  0.2737  0.0075
 8474TIP3    H246914   1.765   0.550   2.052  0.1201 -0.0734  0.7031
 8475TIP3   OH246915   1.778   5.334   6.071  0.0876 -0.5450  0.7432
 8475TIP3    H146916   1.781   5.310   6.163  2.4125  1.7276  1.3807
 8475TIP3    H246917   1.870   5.345   6.046 -0.4950 -0.4734 -1.7067
 8476TIP3   OH246918   1.412   3.802   6.637 -0.1238  0.2196  0.0459
 8476TIP3    H146919   1.400   3.889   6.673  0.0863 -0.2612  1.3121
 8476TIP3    H246920   1.324   3.764   6.635 -0.1954  0.4022 -0.3722
 8477TIP3   OH246921   1.840   3.330  12.207  0.3589 -0.6769 -0.2178
 8477TIP3    H146922   1.781   3.342  12.132 -0.8428  1.1424  0.9306
 8477TIP3    H246923   1.884   3.247  12.190 -0.0277 -0.4212 -2.8163
 8478TIP3   OH246924   5.183   0.567  11.302 -0.2235 -0.4764 -0.0684
 8478TIP3    H146925   5.100   0.551  11.347 -0.9359  1.3167 -0.6545
 8478TIP3    H246926   5.162   0.557  11.209  1.0669 -3.4161 -0.1776
 8479TIP3   OH246927   0.528   3.712   0.460 -0.1842 -0.0235 -0.1040
 8479TIP3    H146928   0.611   3.692   0.417 -0.3579 -1.6097  0.2505
 8479TIP3    H246929   0.465   3.717   0.388  0.1803  1.0626 -0.3623
 8480TIP3   OH246930   4.836   3.536   2.459 -0.1925  0.1071 -0.2575
 8480TIP3    H146931   4.775   3.469   2.427  0.2033 -1.5320  2.1976
 8480TIP3    H246932   4.919   3.490   2.470  0.5832  1.4596 -0.2141
 8481TIP3   OH246933   0.889   4.647  14.383  0.0214  0.3610  0.2343
 8481TIP3    H146934   0.796   4.652  14.407 -0.2277  0.4247 -0.6979
 8481TIP3    H246935   0.906   4.553  14.375 -0.3396  0.3749 -0.9331
 8482TIP3   OH246936   6.158   0.349   1.085 -0.0039  0.5699  0.4008
 8482TIP3    H146937   6.197   0.345   0.998  0.1555  1.3902  0.4212
 8482TIP3    H246938   6.202   0.423   1.127  0.1527 -0.0214  1.2940
 8483TIP3   OH246939   0.937   1.118   6.145 -0.4220 -0.3544  0.3522
 8483TIP3    H146940   1.004   1.183   6.168 -0.9970  1.2643 -2.1888
 8483TIP3    H246941   0.987   1.040   6.123  0.5313  0.2939  0.1259
 8484TIP3   OH246942   2.018   0.174  12.724  0.0086 -0.0173  0.4862
 8484TIP3    H146943   1.988   0.248  12.671 -0.4005 -0.1035  0.5963
 8484TIP3    H246944   2.105   0.200  12.755  0.0158  0.2651  0.2320
 8485TIP3   OH246945   4.572   0.216   3.649 -0.6993 -0.0350 -0.4830
 8485TIP3    H146946   4.579   0.169   3.732 -1.8811  0.9058  0.1778
 8485TIP3    H246947   4.534   0.152   3.589  1.6758 -1.2456 -0.7897
 8486TIP3   OH246948   1.637   0.557  15.915  0.0296 -0.2386  0.0874
 8486TIP3    H146949   1.708   0.618  15.896  0.0889  0.1115  1.3886
 8486TIP3    H246950   1.633   0.500  15.837  1.0545  0.3694 -0.4263
 8487TIP3   OH246951   2.580   0.699   1.992  0.1121 -0.0521  0.0161
 8487TIP3    H146952   2.555   0.769   1.932  2.4992  1.6607  0.8345
 8487TIP3    H246953   2.507   0.692   2.053 -0.9893  0.3619 -1.2013
 8488TIP3   OH246954   4.907   5.625   1.311  0.0217 -0.4665 -0.4922
 8488TIP3    H146955   4.968   5.593   1.244 -0.3267 -1.5095 -0.3373
 8488TIP3    H246956   4.828   5.572   1.298 -0.8559  0.8515 -0.6741
 8489TIP3   OH246957   0.210   2.146   5.811  0.1043 -0.4126  0.3012
 8489TIP3    H146958   0.299   2.151   5.777  0.8388  3.1923  2.3213
 8489TIP3    H246959   0.221   2.116   5.901 -0.8172 -0.5626  0.3716
 8490TIP3   OH246960   3.301   4.186   1.175 -0.4331 -0.8143  0.0490
 8490TIP3    H146961   3.379   4.214   1.223 -1.3465 -0.0622  1.1594
 8490TIP3    H246962   3.274   4.264   1.126 -1.6135 -0.4428  1.2500
 8491TIP3   OH246963   4.042   5.740  11.429  0.0803  0.6444  0.8539
 8491TIP3    H146964   4.054   5.779  11.343 -0.2252 -0.0398  0.4956
 8491TIP3    H246965   4.131   5.718  11.458  0.0898 -0.1894  0.2080
 8492TIP3   OH246966   1.033   1.021  14.227 -0.2596 -0.1906  0.4899
 8492TIP3    H146967   1.123   1.031  14.257 -0.6537  0.7445  1.3950
 8492TIP3    H246968   1.025   0.928  14.205  1.0217 -0.2151  0.0396
 8493TIP3   OH246969   1.149   0.591   2.523 -0.0796 -0.1622 -0.4865
 8493TIP3    H146970   1.188   0.510   2.490  0.7513  0.5845 -1.3847
 8493TIP3    H246971   1.146   0.650   2.447  2.0008  1.6445  0.7093
 8494TIP3   OH246972   0.125   1.255  12.521 -0.2814 -0.1759  0.0361
 8494TIP3    H146973   0.103   1.173  12.565  1.1148 -0.6013 -0.0255
 8494TIP3    H246974   0.044   1.306  12.523 -0.5478 -0.5904  2.2281
 8495TIP3   OH246975   1.746   1.717  10.934  0.2415  0.0769 -0.3711
 8495TIP3    H146976   1.718   1.663  10.860 -1.2533 -0.3083  0.4442
 8495TIP3    H246977   1.672   1.775  10.951 -0.0581 -0.8220  1.7172
 8496TIP3   OH246978   3.265   6.661  14.883 -0.4578 -0.2389 -0.1457
 8496TIP3    H146979   3.230   6.628  14.800 -2.8554  0.4197  0.5124
 8496TIP3    H246980   3.207   6.624  14.949  1.6188 -1.0381  1.3056
 8497TIP3   OH246981   3.268   0.664  13.728  0.2614 -0.7287 -0.1220
 8497TIP3    H146982   3.223   0.671  13.644  0.5466  0.9074 -0.1668
 8497TIP3    H246983   3.348   0.614  13.708  0.2535 -0.4890 -0.7936
 8498TIP3   OH246984   5.455   4.904  14.922 -0.1657  0.3001 -0.8777
 8498TIP3    H146985   5.536   4.903  14.870  0.6779 -0.7594  0.3781
 8498TIP3    H246986   5.486   4.898  15.012 -1.6668 -1.9871 -0.4319
 8499TIP3   OH246987   4.591   2.178   5.957  0.5782  0.3790 -0.0859
 8499TIP3    H146988   4.546   2.259   5.980 -0.3700 -0.0951 -0.2442
 8499TIP3    H246989   4.640   2.155   6.036 -2.4522 -1.1067  1.5015
 8500TIP3   OH246990   2.071   1.287  15.313  0.1974  0.0349 -0.4195
 8500TIP3    H146991   2.138   1.350  15.285  0.0134 -0.1320 -1.2539
 8500TIP3    H246992   2.113   1.202  15.305  0.6926  0.0555  1.3972
 8501TIP3   OH246993   3.885   2.481   3.389 -0.2449  0.5160  0.8027
 8501TIP3    H146994   3.797   2.481   3.354 -0.1295  1.2491  0.4984
 8501TIP3    H246995   3.875   2.509   3.480 -0.4376 -0.4429  1.0822
 8502TIP3   OH246996   4.087   1.291  17.294  0.1953 -0.4789  0.2512
 8502TIP3    H146997   4.067   1.253  17.208  0.6178 -1.6283  0.6414
 8502TIP3    H246998   4.181   1.277  17.305  0.4272  0.9650  0.2995
 8503TIP3   OH246999   0.914   6.358  16.692  0.2146  0.3550  0.0112
 8503TIP3    H147000   0.872   6.308  16.621 -0.6590  1.4611 -0.2775
 8503TIP3    H247001   1.004   6.326  16.693 -0.2540 -1.0846 -0.2897
 8504TIP3   OH247002   4.663   2.577  14.396 -0.2569  0.2152  0.0964
 8504TIP3    H147003   4.729   2.635  14.434  0.9725 -0.0016 -1.5978
 8504TIP3    H247004   4.638   2.619  14.315 -0.9358 -0.5707 -0.1167
 8505TIP3   OH247005   0.250   0.445   5.364 -0.0301  0.1583 -0.4879
 8505TIP3    H147006   0.206   0.481   5.442 -1.4103 -1.5417 -0.4029
 8505TIP3    H247007   0.183   0.449   5.296  0.5850 -0.0279 -1.1070
 8506TIP3   OH247008   2.623   4.744  16.594  0.4417 -0.0309 -0.0957
 8506TIP3    H147009   2.607   4.786  16.678  1.1968  0.6547 -0.2868
 8506TIP3    H247010   2.611   4.650  16.612  1.6852  0.0004  1.0435
 8507TIP3   OH247011   0.163   0.326   1.604  0.0086  0.0635 -0.2889
 8507TIP3    H147012   0.094   0.310   1.668  0.2901  1.3704  0.3852
 8507TIP3    H247013   0.222   0.388   1.647  1.5267 -0.8905 -0.9123
 8508TIP3   OH247014   2.273   1.335  11.988 -0.0262 -0.2070  0.1652
 8508TIP3    H147015   2.202   1.363  12.047  0.1933 -0.8240  0.7321
 8508TIP3    H247016   2.350   1.382  12.019  0.6352 -2.3183  1.9380
 8509TIP3   OH247017   4.377   0.906  14.714 -0.5514  0.5541  0.0862
 8509TIP3    H147018   4.330   0.852  14.777 -0.1413  0.5646  0.4071
 8509TIP3    H247019   4.460   0.861  14.701 -0.9072  0.1890 -0.9736
 8510TIP3   OH247020   6.259   3.997   1.697  0.4469  0.2766  0.2668
 8510TIP3    H147021   6.216   4.078   1.669  0.0419  0.4226  1.2778
 8510TIP3    H247022   6.192   3.951   1.748  1.1020 -0.0736  0.8183
 8511TIP3   OH247023   0.921   1.027   4.774 -0.0727 -0.1904 -0.0056
 8511TIP3    H147024   1.001   1.009   4.725 -0.1909 -0.1117 -0.2285
 8511TIP3    H247025   0.856   0.966   4.738 -0.2977  0.2200 -0.3075
 8512TIP3   OH247026   0.309   0.457  13.442 -0.1327 -0.1149  0.3767
 8512TIP3    H147027   0.358   0.533  13.408  1.8336 -1.7568 -0.6832
 8512TIP3    H247028   0.218   0.488  13.448  0.5909  2.3240  0.0628
 8513TIP3   OH247029   3.035   5.788  13.253 -0.7129  0.3120  0.7127
 8513TIP3    H147030   2.983   5.750  13.182 -2.4008  2.1301  0.8828
 8513TIP3    H247031   3.066   5.872  13.219  4.1864 -1.5400 -0.2057
 8514TIP3   OH247032   5.015   2.454  13.510 -0.0666 -0.1946 -0.1864
 8514TIP3    H147033   5.009   2.374  13.457 -1.0642  0.5321 -1.1910
 8514TIP3    H247034   4.962   2.518  13.464  0.5042  0.9939  0.7538
 8515TIP3   OH247035   3.743   0.459  15.188 -0.6491 -0.0534 -1.1482
 8515TIP3    H147036   3.816   0.429  15.243  1.1393  2.2797 -2.0822
 8515TIP3    H247037   3.747   0.404  15.110 -0.2693 -0.3570 -0.9164
 8516TIP3   OH247038   4.201   0.942  12.431  0.5738 -0.2933 -0.6681
 8516TIP3    H147039   4.222   0.998  12.356 -0.9846  0.1560 -0.7867
 8516TIP3    H247040   4.287   0.913  12.463  1.2925 -0.4638 -2.5854
 8517TIP3   OH247041   3.061   4.215  15.880 -0.3342 -0.1795 -0.0873
 8517TIP3    H147042   2.976   4.228  15.837  0.2358  0.7771 -0.9778
 8517TIP3    H247043   3.088   4.303  15.905  0.8613 -0.3459 -0.7493
 8518TIP3   OH247044   1.154   2.803   1.897  0.2794 -0.2488  0.2437
 8518TIP3    H147045   1.126   2.744   1.967  2.7628 -0.5295  1.0798
 8518TIP3    H247046   1.094   2.784   1.825 -0.8887 -1.6080  1.5008
 8519TIP3   OH247047   2.899   5.873   2.258 -0.0081  0.1769 -0.2763
 8519TIP3    H147048   2.981   5.825   2.271 -0.4357 -0.6124 -0.4397
 8519TIP3    H247049   2.837   5.832   2.318 -0.3503  0.6100 -0.3248
 8520TIP3   OH247050   2.435   2.503  17.280 -0.2506 -0.2148  0.1941
 8520TIP3    H147051   2.354   2.455  17.298 -0.8056  1.2704  1.8844
 8520TIP3    H247052   2.406   2.583  17.234  0.5856 -1.0424 -1.9176
 8521TIP3   OH247053   0.499   1.584   3.496  0.0666 -0.3688  0.3770
 8521TIP3    H147054   0.474   1.512   3.438  0.2497  0.8955 -1.3365
 8521TIP3    H247055   0.592   1.569   3.514  0.3536 -0.0454 -0.7790
 8522TIP3   OH247056   4.695   0.606  12.448  0.4485  1.0452 -0.2705
 8522TIP3    H147057   4.782   0.643  12.465 -0.2481  3.7053 -1.9452
 8522TIP3    H247058   4.674   0.632  12.358 -2.6315  1.7788  0.5212
 8523TIP3   OH247059   2.050   0.560   5.955 -0.0699 -0.3220 -0.2104
 8523TIP3    H147060   2.044   0.598   6.043 -0.2933 -0.0917 -0.3266
 8523TIP3    H247061   2.131   0.509   5.958 -0.3582 -0.7689  0.3028
 8524TIP3   OH247062   3.008   5.396  15.987 -0.1558 -0.4584  0.3953
 8524TIP3    H147063   3.073   5.326  15.990 -0.8327 -1.0743  1.6549
 8524TIP3    H247064   2.956   5.377  15.909  0.6254 -0.4663 -0.1260
 8525TIP3   OH247065   5.515   1.569  11.410 -0.0290 -0.6167  0.4708
 8525TIP3    H147066   5.421   1.577  11.392 -0.4019 -0.9654  2.1076
 8525TIP3    H247067   5.552   1.652  11.379 -0.8411 -0.5332 -0.3368
 8526TIP3   OH247068   5.368   2.930  16.404 -0.3637 -0.5858 -0.3796
 8526TIP3    H147069   5.287   2.967  16.437  0.2735 -0.8432  1.5979
 8526TIP3    H247070   5.343   2.848  16.363 -1.2030 -0.1902 -0.6728
 8527TIP3   OH247071   1.251   6.790  11.667  0.0615 -0.2881  0.4968
 8527TIP3    H147072   1.189   6.753  11.604 -1.1881  0.6290  1.1287
 8527TIP3    H247073   1.246   6.732  11.743 -0.3603  0.0225  0.7107
 8528TIP3   OH247074   2.165   6.386   6.425  0.5259 -0.0588 -0.6972
 8528TIP3    H147075   2.086   6.389   6.480 -0.7771 -0.7456 -2.4347
 8528TIP3    H247076   2.200   6.298   6.439  0.9745  0.2185  0.0123
 8529TIP3   OH247077   5.994   2.126   4.988  0.4821  0.0244 -0.0963
 8529TIP3    H147078   6.073   2.084   5.023  0.1032 -0.5904  0.0516
 8529TIP3    H247079   6.009   2.128   4.893  1.8792  2.4592  0.0862
 8530TIP3   OH247080   2.084   6.742  13.654 -0.4729  0.2423  0.3573
 8530TIP3    H147081   2.134   6.770  13.577 -1.1983  1.0769  0.1746
 8530TIP3    H247082   2.059   6.823  13.697 -0.4645 -0.2102  1.2371
 8531TIP3   OH247083   6.508   1.692  17.092  0.5443  0.0204  0.0139
 8531TIP3    H147084   6.423   1.729  17.067  0.1705 -1.4949 -1.0890
 8531TIP3    H247085   6.509   1.605  17.051  1.9116 -0.6772  1.4402
 8532TIP3   OH247086   6.679   2.351  15.959  0.2806  0.4274 -0.3703
 8532TIP3    H147087   6.693   2.424  16.019 -0.1015  0.7612 -0.6790
 8532TIP3    H247088   6.733   2.281  15.994 -1.0471  0.1249  1.2331
 8533TIP3   OH247089   3.618   5.045  14.613 -0.0317  0.5236 -0.2116
 8533TIP3    H147090   3.711   5.042  14.636 -0.3111  2.6439  1.5145
 8533TIP3    H247091   3.580   4.971  14.660  0.9333 -1.3798 -2.2232
 8534TIP3   OH247092   0.018   5.568  15.864  0.1531  0.0561 -0.0381
 8534TIP3    H147093  -0.034   5.647  15.848  1.2661  0.5829 -1.1887
 8534TIP3    H247094  -0.012   5.537  15.949 -1.3941  0.8436 -0.2523
 8535TIP3   OH247095   6.475   4.696   4.237  0.4444 -0.0951 -0.0567
 8535TIP3    H147096   6.389   4.737   4.235 -0.1439 -1.2845  0.0805
 8535TIP3    H247097   6.493   4.674   4.146  0.5755  0.0858 -0.0753
 8536TIP3   OH247098   3.032   2.334  13.499 -0.2460 -0.1576  0.5994
 8536TIP3    H147099   3.053   2.278  13.574  0.0110  0.8516  1.2938
 8536TIP3    H247100   3.024   2.273  13.426  0.0951 -1.0988  1.3248
 8537TIP3   OH247101   4.116   2.634  15.333  0.1745 -0.4486 -0.2717
 8537TIP3    H147102   4.104   2.716  15.380  0.5470 -0.7771  0.4127
 8537TIP3    H247103   4.209   2.614  15.342  0.5391  0.1401 -2.2682
 8538TIP3   OH247104   4.607   2.717   1.105  0.8297 -0.3127 -0.0873
 8538TIP3    H147105   4.563   2.798   1.077  1.5466 -0.4761 -1.8484
 8538TIP3    H247106   4.536   2.661   1.138  0.3495  1.0856  1.3770
 8539TIP3   OH247107   5.670   6.041  14.496  0.0287  0.5412  0.3440
 8539TIP3    H147108   5.728   5.968  14.516 -2.3233 -1.2455  1.1184
 8539TIP3    H247109   5.637   6.022  14.408 -0.1862  0.9307  0.3397
 8540TIP3   OH247110   0.630   2.020   3.212 -0.0677 -0.4181 -0.3431
 8540TIP3    H147111   0.692   2.024   3.285 -2.3140 -1.5993  1.7746
 8540TIP3    H247112   0.630   2.108   3.175  2.9479 -0.4152 -0.6050
 8541TIP3   OH247113   1.013   3.744  12.073  0.2426  0.5941 -0.0983
 8541TIP3    H147114   1.098   3.783  12.097  0.6960 -1.2401  1.5300
 8541TIP3    H247115   1.032   3.651  12.061 -1.8529 -0.2343  2.2985
 8542TIP3   OH247116   1.287   1.056   5.477  0.4913 -0.2869  0.0511
 8542TIP3    H147117   1.304   1.146   5.506 -0.3598 -0.4346  1.1051
 8542TIP3    H247118   1.221   1.065   5.408 -0.4348 -0.1445  0.9268
 8543TIP3   OH247119   4.822   1.692   1.929  0.3310 -1.0566 -0.5497
 8543TIP3    H147120   4.734   1.707   1.964  0.7789  0.6572 -0.0602
 8543TIP3    H247121   4.826   1.597   1.914 -2.6581 -0.8723 -3.5683
 8544TIP3   OH247122   2.285   6.067   0.225  0.4115  0.7340 -0.0038
 8544TIP3    H147123   2.206   6.122   0.226 -0.7755 -0.8910 -0.0570
 8544TIP3    H247124   2.286   6.029   0.137  0.2043 -0.6903  0.5883
 8545TIP3   OH247125   1.161   4.294   4.197  0.0739 -0.0406  0.5404
 8545TIP3    H147126   1.151   4.312   4.104  1.0755  2.2500  0.8206
 8545TIP3    H247127   1.080   4.247   4.221 -0.5684  0.0568 -1.2848
 8546TIP3   OH247128   4.512   1.151   2.156 -0.3364  0.2286 -0.6230
 8546TIP3    H147129   4.529   1.244   2.142  0.3130  0.3760  0.9039
 8546TIP3    H247130   4.437   1.131   2.100 -1.1873  1.9326 -0.1575
 8547TIP3   OH247131   2.165   5.493  13.981  0.3118 -0.1041 -0.4443
 8547TIP3    H147132   2.136   5.404  14.002  1.4670 -0.6907 -1.2105
 8547TIP3    H247133   2.177   5.491  13.886  0.4119  0.8557 -0.4520
 8548TIP3   OH247134   2.678   4.964  12.373 -0.1959  0.4503  0.4572
 8548TIP3    H147135   2.632   4.914  12.440  2.1835 -1.9535  0.4513
 8548TIP3    H247136   2.649   4.925  12.290  2.6033 -1.9872  0.4968
 8549TIP3   OH247137   2.113   3.506   2.276 -0.6427 -0.1221 -0.3405
 8549TIP3    H147138   2.119   3.601   2.263 -1.0986  0.4423  2.8085
 8549TIP3    H247139   2.051   3.496   2.348  0.6103 -2.6960  0.4944
 8550TIP3   OH247140   0.962   2.107   2.870 -0.1137 -0.3097  0.1655
 8550TIP3    H147141   0.869   2.129   2.879  0.2045  0.7840  0.9511
 8550TIP3    H247142   0.962   2.013   2.851 -1.4612  0.0290 -1.9221
 8551TIP3   OH247143   4.347   0.642   1.792 -0.1288  0.3607 -0.5995
 8551TIP3    H147144   4.321   0.684   1.874 -0.9674  0.6536 -0.9916
 8551TIP3    H247145   4.325   0.707   1.724 -0.1763 -0.1780 -1.1125
 8552TIP3   OH247146   6.327   3.121   1.712 -0.1066  0.2672  0.2692
 8552TIP3    H147147   6.299   3.055   1.775  1.8679 -1.6368 -0.7320
 8552TIP3    H247148   6.400   3.166   1.754  0.2166  0.0522 -0.0627
 8553TIP3   OH247149   0.181   3.954   0.387 -0.8652 -0.4362  0.2426
 8553TIP3    H147150   0.175   4.047   0.367 -0.6877 -0.6308 -0.7794
 8553TIP3    H247151   0.242   3.949   0.461 -1.7173  0.3313  1.0156
 8554TIP3   OH247152   4.410   1.609  10.570 -0.3734  0.4687  0.0366
 8554TIP3    H147153   4.331   1.567  10.603 -0.7409  0.1817 -1.1579
 8554TIP3    H247154   4.482   1.567  10.617 -0.7363 -1.4557 -1.0503
 8555TIP3   OH247155   6.145   1.914  14.974  0.5779 -0.4036 -0.4934
 8555TIP3    H147156   6.101   1.990  15.012  2.2542  0.3479  0.0519
 8555TIP3    H247157   6.084   1.882  14.908 -0.7301  0.6289  0.1629
 8556TIP3   OH247158   6.103   5.729  11.872 -0.1035  0.0796 -0.1265
 8556TIP3    H147159   6.063   5.816  11.873  0.6853  0.4577  0.7205
 8556TIP3    H247160   6.148   5.722  11.957 -1.5978 -1.8637  0.5732
 8557TIP3   OH247161   6.150   3.477   0.123  0.0451  0.3510  0.1594
 8557TIP3    H147162   6.218   3.421   0.086 -0.8796 -0.6901 -0.0186
 8557TIP3    H247163   6.190   3.515   0.201  0.8169 -0.2735  0.0761
 8558TIP3   OH247164   4.197   4.302   0.733 -0.4588  0.4607  0.0013
 8558TIP3    H147165   4.128   4.239   0.713  1.0651 -2.9140  3.8903
 8558TIP3    H247166   4.156   4.364   0.793 -0.8538  0.2152 -0.0106
 8559TIP3   OH247167   3.490   3.852  11.060  0.3354  0.7000 -0.1661
 8559TIP3    H147168   3.503   3.779  11.000  1.6321  0.6044  0.1940
 8559TIP3    H247169   3.442   3.813  11.134 -2.3785  1.0845 -1.5888
 8560TIP3   OH247170   0.131   2.648  16.810 -0.3833 -0.4273 -0.1292
 8560TIP3    H147171   0.063   2.707  16.777 -0.0583 -0.3103 -0.5941
 8560TIP3    H247172   0.083   2.583  16.862 -0.7719  0.0798  0.1568
 8561TIP3   OH247173   2.910   2.677   1.012  0.3759  0.2292 -0.9451
 8561TIP3    H147174   2.924   2.608   0.948  2.6068  0.4918 -0.8372
 8561TIP3    H247175   2.969   2.655   1.084  1.2698  2.2913 -0.9853
 8562TIP3   OH247176   2.828   6.379   0.676 -0.4554 -0.0630  0.0758
 8562TIP3    H147177   2.901   6.343   0.728  0.2857  0.2792 -0.7046
 8562TIP3    H247178   2.808   6.310   0.613  2.1134  1.3709 -2.5746
 8563TIP3   OH247179   4.362   3.837  14.924 -0.6483  0.2010  0.0505
 8563TIP3    H147180   4.331   3.892  14.996 -0.5797 -1.6968  1.6224
 8563TIP3    H247181   4.298   3.767  14.917  0.9545 -1.3865  0.4242
 8564TIP3   OH247182   1.269   1.402   1.678 -0.3524  0.5473  0.1562
 8564TIP3    H147183   1.336   1.380   1.743  0.5538  0.6041 -0.7373
 8564TIP3    H247184   1.253   1.495   1.691 -0.8752  0.3609  0.9213
 8565TIP3   OH247185   3.787   4.115  12.900 -0.1122  0.3735 -0.4290
 8565TIP3    H147186   3.843   4.120  12.823  0.5613 -0.2437 -0.0023
 8565TIP3    H247187   3.718   4.053  12.876  0.3847 -0.2095 -0.3712
 8566TIP3   OH247188   5.829   0.127   4.724 -0.1348  0.0711 -0.1581
 8566TIP3    H147189   5.848   0.044   4.681 -0.5352 -0.2536  0.2970
 8566TIP3    H247190   5.734   0.133   4.725 -0.1572  1.6531 -2.3516
 8567TIP3   OH247191   2.351   1.607   5.766 -0.3761 -0.2779  0.0002
 8567TIP3    H147192   2.297   1.575   5.839 -0.4527 -0.6584 -0.2212
 8567TIP3    H247193   2.435   1.627   5.807 -0.5021 -0.2400  0.2443
 8568TIP3   OH247194   4.527   3.883  13.421 -0.5740  0.3940  0.1131
 8568TIP3    H147195   4.536   3.789  13.401 -1.4236  0.4262 -0.4244
 8568TIP3    H247196   4.433   3.897  13.430 -0.4988  1.3427 -0.5156
 8569TIP3   OH247197   4.004   4.388  13.777 -0.0483  0.7486 -0.2058
 8569TIP3    H147198   4.007   4.379  13.872  1.5303  2.6107 -0.0268
 8569TIP3    H247199   3.949   4.465  13.762  0.2854  0.8857 -0.7671
 8570TIP3   OH247200   1.502   5.629   3.514  0.3237 -0.1835  0.1660
 8570TIP3    H147201   1.583   5.643   3.465 -0.3399  0.2932 -0.8371
 8570TIP3    H247202   1.527   5.638   3.606  1.4213 -0.1366 -0.1232
 8571TIP3   OH247203   1.030   2.784  16.259 -0.2057  0.0017  0.3069
 8571TIP3    H147204   0.975   2.770  16.336  0.4369 -1.6694  0.5066
 8571TIP3    H247205   1.108   2.732  16.276  0.7778  1.1170 -0.6527
 8572TIP3   OH247206   5.153   3.738  13.740  0.7559 -0.1865 -0.0146
 8572TIP3    H147207   5.175   3.829  13.718  0.3678  0.2583  1.3426
 8572TIP3    H247208   5.092   3.745  13.813 -0.6549 -1.5113 -1.0060
 8573TIP3   OH247209   3.541   5.736   6.146  0.7541 -0.4680 -0.2433
 8573TIP3    H147210   3.596   5.755   6.222  0.0774  3.4511 -0.5033
 8573TIP3    H247211   3.452   5.744   6.178  0.4440  2.4466 -1.5188
 8574TIP3   OH247212   3.797   6.096  11.278 -0.4069 -0.3859 -0.4508
 8574TIP3    H147213   3.789   6.005  11.307 -0.5054 -0.5552 -0.9826
 8574TIP3    H247214   3.797   6.090  11.182 -1.8344  0.2836 -0.5195
 8575TIP3   OH247215   5.327   0.075  15.900 -0.1296  0.1880  0.1118
 8575TIP3    H147216   5.247   0.069  15.846  0.3318 -3.9095 -0.4681
 8575TIP3    H247217   5.357   0.165  15.887 -1.9139  0.4785 -3.7948
 8576TIP3   OH247218   4.015   0.918   1.128  0.2158 -0.7730  0.1228
 8576TIP3    H147219   4.057   0.982   1.070 -1.2142  1.3874  1.3621
 8576TIP3    H247220   4.039   0.946   1.217 -1.1736 -1.4259  0.7382
 8577TIP3   OH247221   5.756   0.860   0.153  0.3391  0.1976  0.5270
 8577TIP3    H147222   5.721   0.949   0.142 -0.6735 -0.2069  0.4157
 8577TIP3    H247223   5.799   0.840   0.070 -1.2529 -0.1987 -0.2410
 8578TIP3   OH247224   2.956   0.132   1.242  0.1585 -0.8552  0.1489
 8578TIP3    H147225   2.925   0.185   1.315  0.7368 -0.3136  0.0087
 8578TIP3    H247226   2.997   0.056   1.282 -0.2656 -0.9729  0.3629
 8579TIP3   OH247227   2.014   3.793   0.319  0.8142 -0.3774  0.6789
 8579TIP3    H147228   1.997   3.735   0.245 -1.0716  1.1665 -0.1729
 8579TIP3    H247229   2.084   3.851   0.289  0.4611 -0.1364  0.3123
 8580TIP3   OH247230   0.538   3.258   3.449 -0.2534 -0.0437 -0.4625
 8580TIP3    H147231   0.622   3.257   3.403 -0.1676 -1.7306 -0.3490
 8580TIP3    H247232   0.479   3.306   3.390 -0.1389 -2.0899 -2.3841
 8581TIP3   OH247233   3.265   5.646   1.823  0.5553  0.5412 -0.3309
 8581TIP3    H147234   3.355   5.616   1.813  0.9970  1.4237  0.8860
 8581TIP3    H247235   3.217   5.567   1.851  0.7164 -0.1678 -1.9149
 8582TIP3   OH247236   4.874   1.275   4.308  0.8685 -0.0158  0.1597
 8582TIP3    H147237   4.965   1.301   4.324  0.7040  0.1208  0.9160
 8582TIP3    H247238   4.872   1.249   4.216  1.8644 -0.7966  0.3447
 8583TIP3   OH247239   5.744   6.139  13.987  0.0268  0.2361  0.5336
 8583TIP3    H147240   5.737   6.100  13.900  0.1050 -2.4687  1.6134
 8583TIP3    H247241   5.756   6.232  13.972 -0.1689 -0.1285 -2.3237
 8584TIP3   OH247242   6.180   1.697   1.353  0.2114 -0.3477 -0.1851
 8584TIP3    H147243   6.129   1.774   1.378 -0.0551  0.1040 -1.9814
 8584TIP3    H247244   6.258   1.701   1.409  0.7321  1.8565 -0.9824
 8585TIP3   OH247245   3.552   6.030   6.523  0.1206  0.5423  0.6763
 8585TIP3    H147246   3.470   6.055   6.564 -1.3252  0.7093 -2.1403
 8585TIP3    H247247   3.583   6.108   6.478  0.8232 -0.0249  0.1282
 8586TIP3   OH247248   2.834   0.906  17.082  0.1514  0.3441  0.3101
 8586TIP3    H147249   2.847   0.856  17.001  1.0151 -0.0103  0.6495
 8586TIP3    H247250   2.742   0.894  17.103  0.2068 -0.6199  0.0527
 8587TIP3   OH247251   2.691   2.126   1.363 -0.4875 -0.0566 -0.2612
 8587TIP3    H147252   2.638   2.201   1.336 -1.3352 -1.0773 -1.5314
 8587TIP3    H247253   2.645   2.050   1.328  1.8314 -1.0007 -1.4942
 8588TIP3   OH247254   3.228   5.733  13.967  0.0740  0.3930 -0.2935
 8588TIP3    H147255   3.174   5.809  13.990 -2.3312 -1.1647 -0.4303
 8588TIP3    H247256   3.249   5.692  14.051 -0.6020 -0.0148 -0.3085
 8589TIP3   OH247257   6.333   5.337   1.439  0.2628 -0.1752  0.1521
 8589TIP3    H147258   6.289   5.417   1.468  1.0263  0.4091 -0.2530
 8589TIP3    H247259   6.354   5.290   1.519  1.4984  0.9561  0.5379
 8590TIP3   OH247260   1.994   3.970   5.863  0.5357 -1.0169  0.4705
 8590TIP3    H147261   1.990   3.878   5.838 -0.2604 -0.6734 -0.7508
 8590TIP3    H247262   2.039   3.970   5.947 -0.2626 -2.6022  0.9392
 8591TIP3   OH247263   0.763   3.435  13.377  0.7130  0.2843 -0.5776
 8591TIP3    H147264   0.755   3.403  13.467  0.3961  0.0861 -0.6765
 8591TIP3    H247265   0.745   3.359  13.323 -1.2158  0.8643 -0.8309
 8592TIP3   OH247266   0.633   5.133   5.090 -0.2707 -0.0310  0.3368
 8592TIP3    H147267   0.619   5.062   5.028  1.9359  0.5749 -0.9435
 8592TIP3    H247268   0.660   5.207   5.036 -1.3049  1.4634  1.7525
 8593TIP3   OH247269   4.943   6.053  11.953 -0.3732 -0.1791 -0.6695
 8593TIP3    H147270   4.934   5.973  12.005 -1.2108  0.9779  1.0458
 8593TIP3    H247271   4.913   6.027  11.866  0.6662 -2.0690 -0.5237
 8594TIP3   OH247272   3.015   0.111   1.730 -0.1360  0.0246  0.1510
 8594TIP3    H147273   3.030   0.055   1.806  0.8386 -0.5863 -0.4710
 8594TIP3    H247274   2.931   0.154   1.748 -0.5528 -1.0878  0.9756
 8595TIP3   OH247275   4.598   5.158  15.457  0.3025  0.1773  0.1827
 8595TIP3    H147276   4.568   5.196  15.375 -0.9387  1.9298  1.3804
 8595TIP3    H247277   4.535   5.087  15.475  1.3489 -1.0902 -0.9828
 8596TIP3   OH247278   2.041   4.878   3.764  0.5110 -0.1455  0.0048
 8596TIP3    H147279   1.979   4.861   3.835  0.6865 -1.9431 -0.2243
 8596TIP3    H247280   2.091   4.954   3.794  0.0899 -0.4094  1.4752
 8597TIP3   OH247281   1.908   4.966   5.804  0.8618  0.9235  0.1521
 8597TIP3    H147282   1.957   4.909   5.744 -0.4365 -1.1902  0.9631
 8597TIP3    H247283   1.971   4.991   5.871  1.5190  0.5805 -0.3191
 8598TIP3   OH247284   1.796   3.991  11.013 -0.1667 -0.3465 -0.4701
 8598TIP3    H147285   1.865   4.026  11.070  0.0141 -1.7366  0.2163
 8598TIP3    H247286   1.843   3.954  10.938 -0.4136  1.5979 -1.6512
 8599TIP3   OH247287   0.931   1.449  13.926 -0.6999  0.1253 -0.4225
 8599TIP3    H147288   0.937   1.358  13.954  1.7029  0.1549 -0.6342
 8599TIP3    H247289   0.894   1.495  14.001  1.8157 -0.4370  1.3059
 8600TIP3   OH247290   4.703   4.511   2.238 -0.4417 -0.5078  0.2514
 8600TIP3    H147291   4.677   4.599   2.209 -0.6202 -0.8665 -0.6914
 8600TIP3    H247292   4.667   4.452   2.172  1.1334 -1.1620 -0.0627
 8601TIP3   OH247293   2.571   2.281  14.843  0.0711 -0.1141  0.6431
 8601TIP3    H147294   2.628   2.344  14.798  1.6914 -3.0732 -1.9095
 8601TIP3    H247295   2.483   2.309  14.820  0.7341  0.9550 -0.8224
 8602TIP3   OH247296   0.018   6.739   0.507 -0.3040 -0.2275  0.1108
 8602TIP3    H147297   0.113   6.755   0.510 -0.1444 -0.2017 -2.4431
 8602TIP3    H247298   0.007   6.653   0.546  1.1336 -1.2448 -1.5452
 8603TIP3   OH247299   5.045   5.136  14.259 -0.3402 -0.6957  0.1393
 8603TIP3    H147300   5.131   5.179  14.255 -0.4682 -0.4467  0.0694
 8603TIP3    H247301   5.013   5.137  14.169 -1.4364  1.2891  0.5035
 8604TIP3   OH247302   0.196   6.331   0.054  0.3041 -0.2677 -0.3029
 8604TIP3    H147303   0.202   6.407   0.111 -2.4815  0.1536 -0.4325
 8604TIP3    H247304   0.105   6.303   0.061  1.0136 -3.0294 -1.0154
 8605TIP3   OH247305   5.470   4.569  15.271 -0.3207 -0.4465 -0.0508
 8605TIP3    H147306   5.391   4.537  15.313 -0.9724  2.1860  0.8923
 8605TIP3    H247307   5.445   4.585  15.180 -0.8590  0.3043  0.2264
 8606TIP3   OH247308   2.842   5.806  11.442  0.4168  0.6043 -0.2928
 8606TIP3    H147309   2.840   5.853  11.525  3.0173  0.1818  0.1078
 8606TIP3    H247310   2.893   5.863  11.384  0.6673 -0.1790 -0.8578
 8607TIP3   OH247311   0.186   0.378   3.948  0.1846 -0.3049 -0.4314
 8607TIP3    H147312   0.097   0.379   3.983  0.0300  0.8253 -0.8004
 8607TIP3    H247313   0.177   0.411   3.859  1.1210  1.1304 -0.0348
 8608TIP3   OH247314   2.596   6.449  14.742  0.4244  0.4416  0.3078
 8608TIP3    H147315   2.506   6.480  14.732  0.7639  1.3194 -0.1091
 8608TIP3    H247316   2.617   6.409  14.658  0.6670  0.8855  0.1561
 8609TIP3   OH247317   6.061   5.464   1.016 -0.3103  0.0178 -0.5891
 8609TIP3    H147318   6.092   5.431   0.932  0.2637 -0.2311 -0.2833
 8609TIP3    H247319   6.020   5.389   1.059  0.7644 -0.2530 -0.0043
 8610TIP3   OH247320   4.762   0.644   2.353  0.1421 -0.1885 -0.2628
 8610TIP3    H147321   4.830   0.711   2.353  0.2161 -0.2508  0.6451
 8610TIP3    H247322   4.680   0.694   2.345  0.0233  0.2656  2.6062
 8611TIP3   OH247323   2.873   4.756   3.685  0.2562 -0.0252  0.0664
 8611TIP3    H147324   2.897   4.725   3.773  0.6764 -0.6516 -0.2612
 8611TIP3    H247325   2.778   4.767   3.690  0.2502 -0.2389  0.5470
 8612TIP3   OH247326   4.070   3.346  14.018  0.1465  0.2384 -0.7835
 8612TIP3    H147327   4.090   3.278  13.953 -0.7647 -1.8569  1.0103
 8612TIP3    H247328   4.144   3.407  14.011  2.1012 -2.0054 -1.1039
 8613TIP3   OH247329   0.655   3.963  13.220  0.2213  0.2969 -0.1193
 8613TIP3    H147330   0.719   4.033  13.204  0.2017  0.5280  0.7830
 8613TIP3    H247331   0.708   3.883  13.225  0.1873  0.1514 -1.7181
 8614TIP3   OH247332   3.273   6.090   6.632  0.1941  0.0603 -0.2433
 8614TIP3    H147333   3.202   6.154   6.638  1.7536  1.7703  1.9482
 8614TIP3    H247334   3.253   6.026   6.700  1.5427  1.5794  1.7287
 8615TIP3   OH247335   1.172   4.145  11.207 -0.1394 -0.8196  0.3346
 8615TIP3    H147336   1.149   4.156  11.115  0.4478 -0.9084  0.1717
 8615TIP3    H247337   1.088   4.133  11.251 -0.4227 -0.8605 -0.1989
 8616TIP3   OH247338   2.573   0.662   4.371 -0.3233  0.1452  0.0939
 8616TIP3    H147339   2.544   0.750   4.396 -1.3215  0.8519 -3.0079
 8616TIP3    H247340   2.560   0.660   4.276 -1.8896 -3.9403  0.2304
 8617TIP3   OH247341   0.634   3.121  16.773 -0.0452  0.3375 -0.6928
 8617TIP3    H147342   0.614   3.034  16.739  0.7556  0.6366 -1.9833
 8617TIP3    H247343   0.676   3.105  16.858 -1.2863 -0.4542 -0.2051
 8618TIP3   OH247344   4.126   2.518  12.618  0.0360  0.1270  0.6449
 8618TIP3    H147345   4.084   2.434  12.604  2.6165 -1.1050 -0.2273
 8618TIP3    H247346   4.142   2.552  12.530  0.8310  0.5612  0.9480
 8619TIP3   OH247347   2.785   6.118  11.920  0.1668 -0.3264 -0.0259
 8619TIP3    H147348   2.733   6.147  11.845 -0.8767  1.2117  1.2108
 8619TIP3    H247349   2.872   6.154  11.904 -0.1938  0.4747 -0.2489
 8620TIP3   OH247350   3.137   3.801  14.425 -0.5480 -0.1741  0.0240
 8620TIP3    H147351   3.219   3.829  14.465 -0.2034  0.4616 -1.0871
 8620TIP3    H247352   3.084   3.881  14.420 -0.9495 -0.4325  0.0387
 8621TIP3   OH247353   3.541   0.324   0.864  0.3030  0.2385  0.0200
 8621TIP3    H147354   3.521   0.359   0.950 -1.0515  0.5167 -0.3866
 8621TIP3    H247355   3.493   0.381   0.803 -1.5031 -1.8929 -0.7007
 8622TIP3   OH247356   5.652   2.653  16.520 -0.3669  0.1110 -0.3764
 8622TIP3    H147357   5.711   2.579  16.527  0.0371  0.1873 -2.2891
 8622TIP3    H247358   5.574   2.627  16.570 -0.6416 -2.0483 -1.7964
 8623TIP3   OH247359   4.625   5.333  16.332 -0.0008  0.3653 -0.7408
 8623TIP3    H147360   4.626   5.349  16.238 -0.6499  1.2947 -0.6018
 8623TIP3    H247361   4.532   5.330  16.354  0.0654 -2.4070 -0.5257
 8624TIP3   OH247362   3.386   1.772   5.386 -0.5185  0.2789 -0.2222
 8624TIP3    H147363   3.383   1.828   5.464 -1.7076 -1.0848  0.7720
 8624TIP3    H247364   3.299   1.781   5.348 -0.9687 -1.3889  0.3531
 8625TIP3   OH247365   3.868   5.016  12.048 -0.7336 -0.3507  0.1373
 8625TIP3    H147366   3.842   5.108  12.041 -3.0504 -0.9652  0.1834
 8625TIP3    H247367   3.955   5.013  12.006 -2.0363  1.2661 -3.0254
 8626TIP3   OH247368   0.185   3.679   4.451  0.4473 -0.0421  0.3178
 8626TIP3    H147369   0.262   3.706   4.402  0.3382  0.9146  0.6589
 8626TIP3    H247370   0.122   3.750   4.439 -0.2419 -0.6396  0.3533
 8627TIP3   OH247371   4.836   4.836  12.892 -0.1517  0.0357 -0.1642
 8627TIP3    H147372   4.782   4.886  12.953  0.9695  0.1998  0.7224
 8627TIP3    H247373   4.830   4.746  12.923  2.4230  0.4374  1.8253
 8628TIP3   OH247374   3.058   4.986   4.708  0.3332 -0.4106  0.1534
 8628TIP3    H147375   3.121   5.050   4.742  0.0207  0.4468 -0.8218
 8628TIP3    H247376   3.108   4.935   4.644  0.3683 -0.5925  0.3251
 8629TIP3   OH247377   4.706   2.532  17.031  0.1354 -0.4690  0.2570
 8629TIP3    H147378   4.794   2.571  17.035 -0.0220 -0.1793  1.3363
 8629TIP3    H247379   4.677   2.548  16.942  1.5751 -1.4577 -0.4252
 8630TIP3   OH247380   3.561   4.038  14.661 -0.4347  0.6054  0.3666
 8630TIP3    H147381   3.607   4.096  14.601 -1.2827  1.3993  0.4475
 8630TIP3    H247382   3.593   4.062  14.748 -0.5908  0.7834  0.3773
 8631TIP3   OH247383   5.952   3.510   2.252  0.0672  0.0865  0.1360
 8631TIP3    H147384   5.933   3.560   2.172  0.6351  0.3481  0.1614
 8631TIP3    H247385   5.930   3.569   2.323  0.7956  0.3313  0.1659
 8632TIP3   OH247386   2.820   5.167   5.237  0.0729 -0.3815 -0.0981
 8632TIP3    H147387   2.844   5.208   5.154 -3.1599 -0.5989 -1.2924
 8632TIP3    H247388   2.817   5.074   5.217  2.0441 -0.7635  1.1242
 8633TIP3   OH247389   2.444   2.304   3.807  0.3439  0.0555  0.4202
 8633TIP3    H147390   2.366   2.314   3.753 -0.8870 -1.6416  1.7786
 8633TIP3    H247391   2.517   2.315   3.745 -0.9645 -3.3914 -2.0317
 8634TIP3   OH247392   5.246   5.060   0.074 -0.5100 -0.3942  0.2905
 8634TIP3    H147393   5.198   5.065   0.156  0.6954 -2.6937  1.2238
 8634TIP3    H247394   5.198   4.996   0.022 -1.0542  0.7744 -0.7026
 8635TIP3   OH247395   3.648   3.109  12.174 -0.7705  0.1303 -0.3142
 8635TIP3    H147396   3.616   3.059  12.249 -0.3757 -2.9936 -2.0516
 8635TIP3    H247397   3.743   3.108  12.184 -0.7767  1.4987  0.1296
 8636TIP3   OH247398   4.581   4.804   3.132 -0.6999 -0.1486 -0.4938
 8636TIP3    H147399   4.552   4.751   3.206 -2.4778  0.6731 -0.5741
 8636TIP3    H247400   4.624   4.742   3.073  0.5151 -0.8533  1.0762
 8637TIP3   OH247401   6.164   6.443  12.281  0.0465  0.8304 -0.6090
 8637TIP3    H147402   6.174   6.503  12.355 -1.6665 -0.8320  1.0717
 8637TIP3    H247403   6.235   6.380  12.292 -0.6898  0.1055  0.1551
 8638TIP3   OH247404   6.326   4.448   4.399 -0.4668  0.6115 -0.2640
 8638TIP3    H147405   6.241   4.435   4.442  0.3521 -0.8929  1.0071
 8638TIP3    H247406   6.368   4.518   4.449  0.4129 -1.0158  1.4044
 8639TIP3   OH247407   4.269   1.455   1.420  0.1131  0.0795  0.3220
 8639TIP3    H147408   4.196   1.515   1.402  0.7571  0.9377  0.4935
 8639TIP3    H247409   4.347   1.510   1.415  0.7337 -0.7680  0.4219
 8640TIP3   OH247410   4.796   3.310  14.873  0.3030 -0.3198  0.0808
 8640TIP3    H147411   4.800   3.226  14.826  0.2849 -0.7106  0.7672
 8640TIP3    H247412   4.888   3.338  14.880  0.3956 -0.7537  0.6759
 8641TIP3   OH247413   2.666   3.454   1.891  0.3366  0.3236 -0.0955
 8641TIP3    H147414   2.678   3.461   1.796 -0.5501  1.7967 -0.1457
 8641TIP3    H247415   2.571   3.446   1.902  0.5455 -2.0018  0.6094
 8642TIP3   OH247416   5.881   6.040   4.267 -0.5962 -0.0147  0.0054
 8642TIP3    H147417   5.946   6.081   4.324  0.9461 -1.9376 -0.2816
 8642TIP3    H247418   5.838   5.974   4.322 -1.2516  0.1967 -0.2357
 8643TIP3   OH247419   1.292   4.238  12.811 -0.1531  0.4290  0.0643
 8643TIP3    H147420   1.238   4.163  12.837  1.7432 -1.2145 -0.5401
 8643TIP3    H247421   1.318   4.219  12.721  0.3427  1.8624 -0.1226
 8644TIP3   OH247422   5.402   1.455  12.188 -0.4998  0.1733 -0.4894
 8644TIP3    H147423   5.428   1.385  12.248  0.1930  0.5328 -0.3560
 8644TIP3    H247424   5.306   1.451  12.187 -0.4777 -0.6172 -0.3022
 8645TIP3   OH247425   1.337   1.444   2.146  0.9416 -0.3427  0.4755
 8645TIP3    H147426   1.401   1.515   2.147  0.2159  0.3240  1.7081
 8645TIP3    H247427   1.265   1.477   2.093  1.5406 -1.0774 -0.8739
 8646TIP3   OH247428   3.579   2.287  12.580 -1.0405 -0.1172  0.2077
 8646TIP3    H147429   3.495   2.275  12.536 -0.0744 -0.2724 -1.7231
 8646TIP3    H247430   3.602   2.200  12.612 -1.6380 -0.0606  0.7994
 8647TIP3   OH247431   0.405   0.393   2.013 -0.6011  0.0090 -0.5690
 8647TIP3    H147432   0.353   0.313   2.004  0.2665 -0.6318 -0.1274
 8647TIP3    H247433   0.474   0.369   2.076 -0.0301  0.9503 -0.8184
 8648TIP3   OH247434   4.576   1.340   1.341  0.1621 -0.3435  0.1302
 8648TIP3    H147435   4.501   1.328   1.282  0.0270 -0.8941  0.4000
 8648TIP3    H247436   4.575   1.262   1.396 -0.1852  0.5267  1.3893
 8649TIP3   OH247437   5.982   3.392  15.186  0.0801  0.3977 -0.0865
 8649TIP3    H147438   5.913   3.407  15.120  0.8055 -0.0968 -0.9743
 8649TIP3    H247439   5.942   3.420  15.268 -1.0114  0.5972 -0.6607
 8650TIP3   OH247440   3.540   2.596   5.014  0.4213 -0.0122 -0.1109
 8650TIP3    H147441   3.520   2.689   5.021 -0.2671  0.1256 -2.8722
 8650TIP3    H247442   3.635   2.592   5.018  0.4672  0.8241 -0.1774
 8651TIP3   OH247443   1.764   3.441  15.641 -0.9062  0.2936 -0.1993
 8651TIP3    H147444   1.780   3.353  15.606  3.3788  0.7677  0.0132
 8651TIP3    H247445   1.724   3.425  15.727  0.7975 -1.6093  0.3314
 8652TIP3   OH247446   5.876   5.843   3.014 -0.3368  0.1951  0.0822
 8652TIP3    H147447   5.888   5.801   2.929  0.3849 -0.4237  0.4751
 8652TIP3    H247448   5.795   5.893   3.006 -0.5861 -0.3434 -0.7724
 8653TIP3   OH247449   5.773   3.336  12.567  0.1887  0.3678 -0.2399
 8653TIP3    H147450   5.834   3.308  12.499 -2.4450 -2.1628 -1.7734
 8653TIP3    H247451   5.740   3.420  12.537  0.5958  0.2567 -1.0217
 8654TIP3   OH247452   0.755   5.200   5.701 -0.3171  0.7340 -0.4342
 8654TIP3    H147453   0.797   5.208   5.616  1.3820  2.2197  0.4530
 8654TIP3    H247454   0.661   5.202   5.683  0.0165  1.1681 -2.2539
 8655TIP3   OH247455   2.166   3.818   5.507  0.1234 -0.0265 -0.3768
 8655TIP3    H147456   2.087   3.778   5.472  0.0773 -0.7233  0.4982
 8655TIP3    H247457   2.201   3.754   5.569  1.0544  0.5178 -0.3108
 8656TIP3   OH247458   3.414   2.072  13.227  0.4519 -0.5228 -0.1764
 8656TIP3    H147459   3.486   2.121  13.266  0.3684 -1.0425  0.6607
 8656TIP3    H247460   3.445   2.048  13.140  0.8849  0.1294 -0.2112
 8657TIP3   OH247461   5.239   3.998   1.485  0.2642  0.1273  0.5350
 8657TIP3    H147462   5.301   3.947   1.433 -0.2008  1.2111 -1.1764
 8657TIP3    H247463   5.179   3.933   1.520 -1.6732 -0.5329 -3.4098
 8658TIP3   OH247464   1.860   0.744  11.466  1.2813 -0.3685 -0.3561
 8658TIP3    H147465   1.790   0.691  11.428  1.2352  0.2087 -1.0995
 8658TIP3    H247466   1.934   0.684  11.474  1.5497 -0.3208 -2.1612
 8659TIP3   OH247467   0.350   0.207  11.129 -0.5652  0.5810  0.3175
 8659TIP3    H147468   0.269   0.215  11.080 -1.2789  2.5382  1.6672
 8659TIP3    H247469   0.389   0.295  11.125  0.9557 -0.0338  0.6062
 8660TIP3   OH247470   2.598   4.331  14.103 -0.0664 -0.1114  0.7810
 8660TIP3    H147471   2.593   4.421  14.134 -1.8810  0.2427 -0.3541
 8660TIP3    H247472   2.526   4.323  14.040  0.9260 -1.9420 -0.2294
 8661TIP3   OH247473   4.950   0.495   1.237  0.5149 -0.2664 -0.0476
 8661TIP3    H147474   4.880   0.536   1.288  1.0880  1.1307 -0.3612
 8661TIP3    H247475   4.947   0.539   1.152  0.9942 -1.0539 -0.4889
 8662TIP3   OH247476   4.757   3.563   2.777  0.3572 -0.5567 -0.1285
 8662TIP3    H147477   4.682   3.576   2.835  0.4653  0.1935 -0.1455
 8662TIP3    H247478   4.722   3.579   2.690  0.9171  1.5626  0.0028
 8663TIP3   OH247479   5.328   1.910   4.178  0.0515  0.0203  0.2376
 8663TIP3    H147480   5.384   1.966   4.232  0.7015 -2.7262  2.7100
 8663TIP3    H247481   5.380   1.831   4.165 -1.0641 -0.3645 -2.5198
 8664TIP3   OH247482   6.380   0.536  15.628 -0.0344  0.1624  0.2988
 8664TIP3    H147483   6.352   0.595  15.698  0.3531 -0.9787  1.4565
 8664TIP3    H247484   6.299   0.512  15.583 -0.5032 -0.2983  1.3541
 8665TIP3   OH247485   3.856   6.663  16.309  0.0298 -0.1334 -0.5049
 8665TIP3    H147486   3.793   6.716  16.261  0.5712  1.1132  0.1312
 8665TIP3    H247487   3.938   6.711  16.303  0.4808 -0.7712  0.2872
 8666TIP3   OH247488   4.082   5.669   1.867  0.1040 -0.3754 -0.6216
 8666TIP3    H147489   4.157   5.617   1.839  0.1416 -0.1916 -0.8715
 8666TIP3    H247490   4.113   5.760   1.863  0.6005 -0.3974  1.4718
 8667TIP3   OH247491   5.990   4.916   3.438  0.4276 -0.3460 -0.1267
 8667TIP3    H147492   6.077   4.880   3.421  1.0658  0.5091  1.2631
 8667TIP3    H247493   5.941   4.842   3.474  2.0479  0.2637  3.7724
 8668TIP3   OH247494   3.659   2.413  11.316 -0.2409  0.4790  0.2649
 8668TIP3    H147495   3.581   2.376  11.276  0.4589  0.4575 -1.1206
 8668TIP3    H247496   3.729   2.399  11.252  0.9802  0.2307  1.5918
 8669TIP3   OH247497   1.246   6.689  12.560  0.1118  0.1504  0.3154
 8669TIP3    H147498   1.211   6.677  12.471 -1.6193  1.9861  0.6601
 8669TIP3    H247499   1.318   6.626  12.567  1.2710  0.9242 -2.8926
 8670TIP3   OH247500   2.086   1.348  15.658  0.5323  0.4470 -0.0888
 8670TIP3    H147501   1.999   1.387  15.653  0.0403 -0.6770 -0.6089
 8670TIP3    H247502   2.141   1.406  15.605 -0.3581  0.0281 -1.5347
 8671TIP3   OH247503   6.584   1.905  16.928  0.5509 -0.3970  0.0336
 8671TIP3    H147504   6.565   1.854  17.006  1.5867  1.8782  1.8925
 8671TIP3    H247505   6.664   1.953  16.949  0.8442  0.3609 -2.4267
 8672TIP3   OH247506   1.302   2.817  12.316  0.0525 -0.1384 -0.2037
 8672TIP3    H147507   1.224   2.830  12.371  0.6512 -0.0242  0.6292
 8672TIP3    H247508   1.291   2.730  12.279  1.3186 -1.7816  2.9295
 8673TIP3   OH247509   5.161   2.912  15.845  0.1421 -0.1968  0.1311
 8673TIP3    H147510   5.097   2.964  15.893 -1.0090  0.2580 -1.7773
 8673TIP3    H247511   5.147   2.822  15.876  0.6874  0.2790  1.8895
 8674TIP3   OH247512   4.261   4.648  17.212  0.2973 -0.1423 -0.4172
 8674TIP3    H147513   4.247   4.699  17.292  1.8140 -0.4363  0.0735
 8674TIP3    H247514   4.218   4.564  17.229  1.2289 -0.4831  0.4348
 8675TIP3   OH247515   4.100   0.402  12.426  0.1996  0.5680  0.5310
 8675TIP3    H147516   4.156   0.466  12.470 -0.5045  0.4026  1.7219
 8675TIP3    H247517   4.055   0.357  12.497 -0.2862 -0.3659 -0.3410
 8676TIP3   OH247518   1.937   1.366   2.077 -0.3228 -0.5839  0.1410
 8676TIP3    H147519   1.929   1.450   2.032  0.1543 -1.1229 -0.9901
 8676TIP3    H247520   1.863   1.365   2.138 -0.2594  0.7061  0.2764
 8677TIP3   OH247521   6.473   5.347   1.839 -0.5389  0.0986 -0.7285
 8677TIP3    H147522   6.416   5.297   1.781 -1.4133  1.1354 -0.7985
 8677TIP3    H247523   6.523   5.404   1.780 -0.8750  0.6099 -0.5188
 8678TIP3   OH247524   2.268   1.430  10.534 -0.3001  0.2649  0.5940
 8678TIP3    H147525   2.212   1.439  10.457  1.3793 -0.2873 -0.7530
 8678TIP3    H247526   2.223   1.367  10.589 -0.6619 -0.7667 -0.8244
 8679TIP3   OH247527   5.881   5.526  14.749 -0.7574  0.1293  0.9818
 8679TIP3    H147528   5.858   5.457  14.688 -1.8485  0.8110  0.5861
 8679TIP3    H247529   5.802   5.539  14.802 -0.6125  1.1394  0.9680
 8680TIP3   OH247530   0.405   2.336  13.476 -0.0604 -0.1421 -0.6915
 8680TIP3    H147531   0.478   2.397  13.485  1.3056 -1.7590 -0.3500
 8680TIP3    H247532   0.445   2.254  13.446 -1.4506 -1.6429  1.2924
 8681TIP3   OH247533   1.400   3.398  12.101  0.4206 -0.6581  0.1385
 8681TIP3    H147534   1.357   3.361  12.024 -0.1232 -0.3915  0.3065
 8681TIP3    H247535   1.405   3.326  12.163  0.5587 -0.7867 -0.0211
 8682TIP3   OH247536   0.327   3.023   4.161  0.2471 -0.3928  0.1531
 8682TIP3    H147537   0.384   3.050   4.233  1.3605 -1.7783 -0.1688
 8682TIP3    H247538   0.306   2.932   4.179 -0.3310 -0.4459 -0.7183
 8683TIP3   OH247539   0.135   1.722   5.685  0.0939 -0.1461  0.1622
 8683TIP3    H147540   0.223   1.760   5.687 -0.3975  1.1152 -0.8256
 8683TIP3    H247541   0.087   1.769   5.753 -0.2077  0.2370 -0.3062
 8684TIP3   OH247542   4.141   1.053   1.389  0.3223  0.4684 -0.4648
 8684TIP3    H147543   4.078   1.115   1.426 -0.1666 -0.3668  0.1417
 8684TIP3    H247544   4.223   1.103   1.382 -0.3457  1.5219 -1.1034
 8685TIP3   OH247545   2.904   2.640   5.822  0.0080  0.3687  0.5845
 8685TIP3    H147546   2.856   2.567   5.783 -1.4774  1.3839  0.4263
 8685TIP3    H247547   2.992   2.635   5.783 -1.2044  0.9925 -2.5414
 8686TIP3   OH247548   4.229   4.362  14.014 -0.6599  0.2167  0.5399
 8686TIP3    H147549   4.158   4.416  14.049 -1.3559 -0.2619 -0.1020
 8686TIP3    H247550   4.255   4.407  13.933 -0.3798  0.2732  0.6610
 8687TIP3   OH247551   3.861   1.389  16.852 -0.4766 -0.1838  0.1722
 8687TIP3    H147552   3.907   1.444  16.915  1.2983 -0.8457 -0.4960
 8687TIP3    H247553   3.891   1.300  16.870 -3.0856 -0.9703  1.0437
 8688TIP3   OH247554   6.146   4.461  15.574 -0.0941  0.3532 -0.1859
 8688TIP3    H147555   6.148   4.557  15.582  0.7172  0.2280  1.4843
 8688TIP3    H247556   6.237   4.434  15.580  0.0642 -0.3930 -3.7363
 8689TIP3   OH247557   4.744   6.233   4.403 -0.6272  1.2386  0.3132
 8689TIP3    H147558   4.690   6.254   4.480 -1.4603 -1.2115  0.4809
 8689TIP3    H247559   4.802   6.163   4.433 -0.7826  0.4332 -1.2144
 8690TIP3   OH247560   2.768   0.049  14.157 -0.6370  0.1495 -0.1529
 8690TIP3    H147561   2.862   0.061  14.172 -0.2842 -0.9341 -1.3082
 8690TIP3    H247562   2.731   0.043  14.245  0.5582 -0.5512  0.3391
 8691TIP3   OH247563   4.434   6.666  17.218 -0.1725 -0.4248  0.1241
 8691TIP3    H147564   4.343   6.689  17.198  0.1575 -0.3014 -1.4277
 8691TIP3    H247565   4.449   6.584  17.170  0.2407 -0.9992  1.2105
 8692TIP3   OH247566   1.099   2.890  13.897  0.4972  0.1937  0.1451
 8692TIP3    H147567   1.014   2.868  13.859  0.1940  1.9782 -0.3292
 8692TIP3    H247568   1.143   2.806  13.911 -0.6604 -0.6651 -1.1847
 8693TIP3   OH247569   4.100   5.853  12.659  0.3787  0.2041  0.1047
 8693TIP3    H147570   4.134   5.808  12.581  0.9453  1.6858 -0.5626
 8693TIP3    H247571   4.005   5.848  12.650  0.4279  0.9267 -1.0754
 8694TIP3   OH247572   5.060   1.051  13.446 -0.0866  0.1405  0.0873
 8694TIP3    H147573   4.990   0.989  13.423  1.0708 -1.8747  1.6852
 8694TIP3    H247574   5.041   1.075  13.536  0.8177  0.2056  0.2658
 8695TIP3   OH247575   3.515   6.719  16.878 -0.1253 -0.3319 -0.4838
 8695TIP3    H147576   3.529   6.636  16.924 -1.1350 -0.7238 -0.8532
 8695TIP3    H247577   3.421   6.721  16.860 -0.1462  1.0014 -0.3010
 8696TIP3   OH247578   0.281   3.992  16.709  0.2558 -0.2969  0.3774
 8696TIP3    H147579   0.319   4.033  16.786 -0.0354  2.0093 -0.5996
 8696TIP3    H247580   0.186   3.996  16.724  0.2173 -0.4104  0.1718
 8697TIP3   OH247581   3.561   1.292  14.629 -0.0092  0.1412  0.2905
 8697TIP3    H147582   3.556   1.362  14.694  0.2652  0.3262  0.1111
 8697TIP3    H247583   3.647   1.303  14.588 -0.6159  0.6984 -0.8761
 8698TIP3   OH247584   2.766   4.830  12.889 -0.3604 -0.0184 -0.5526
 8698TIP3    H147585   2.716   4.776  12.950 -3.0020  2.0247 -0.7409
 8698TIP3    H247586   2.840   4.774  12.863 -1.4464 -2.4908  1.2409
 8699TIP3   OH247587   6.305   4.756  13.260  0.1636  0.0149  0.1887
 8699TIP3    H147588   6.272   4.769  13.349  0.1572  0.2726  0.1476
 8699TIP3    H247589   6.343   4.668  13.262 -1.4431 -0.7233 -0.0320
 8700TIP3   OH247590   3.807   2.392  12.483 -0.1926 -0.2050  0.5227
 8700TIP3    H147591   3.724   2.349  12.506 -0.9282  1.3437  0.8484
 8700TIP3    H247592   3.861   2.321  12.448 -1.5838 -1.2898  0.4735
 8701TIP3   OH247593   5.504   3.872  11.475  0.2709  0.1612 -0.4408
 8701TIP3    H147594   5.504   3.794  11.419  1.6069 -0.8012  0.8294
 8701TIP3    H247595   5.581   3.920  11.449 -0.0455  0.5920 -0.5891
 8702TIP3   OH247596   1.331   3.065  15.685 -0.4033  0.3770  0.6249
 8702TIP3    H147597   1.388   2.988  15.687 -1.2752 -0.2602  1.2923
 8702TIP3    H247598   1.386   3.134  15.646  1.0475 -0.0201  1.8859
 8703TIP3   OH247599   1.806   3.185  15.557  0.1218 -0.1410 -0.2252
 8703TIP3    H147600   1.791   3.096  15.587  2.6177 -0.7353 -0.5383
 8703TIP3    H247601   1.763   3.189  15.472 -1.7917 -0.3431  0.6881
 8704TIP3   OH247602   6.194   4.608   6.062  0.0669 -0.0002 -0.3864
 8704TIP3    H147603   6.208   4.546   5.991 -0.2775 -2.2232  1.3710
 8704TIP3    H247604   6.267   4.592   6.122 -0.3306  0.9191  0.3693
 8705TIP3   OH247605   0.754   0.924  13.408 -0.4749 -0.4692  0.0285
 8705TIP3    H147606   0.776   0.929  13.315 -0.8827  0.4240 -0.0295
 8705TIP3    H247607   0.832   0.958  13.453 -1.5030  2.4097 -0.1619
 8706TIP3   OH247608   0.776   6.672  16.907 -0.2681 -0.0481  0.0044
 8706TIP3    H147609   0.771   6.593  16.855  0.3840 -0.9910  1.3202
 8706TIP3    H247610   0.712   6.659  16.977  0.8879 -0.1198  1.0974
 8707TIP3   OH247611   2.914   5.807   1.110  0.5129 -0.3405  0.2265
 8707TIP3    H147612   2.966   5.763   1.177  0.1327 -1.9343 -0.4800
 8707TIP3    H247613   2.900   5.740   1.043  1.6677  1.4445 -1.9253
 8708TIP3   OH247614   2.379   3.102  12.017 -0.3239 -0.3793  0.2715
 8708TIP3    H147615   2.381   3.120  11.923  3.1255  0.0330  0.3250
 8708TIP3    H247616   2.388   3.007  12.023  0.7722 -0.2909  0.1692
 8709TIP3   OH247617   4.644   1.110  15.159 -0.2870  0.5139  0.1321
 8709TIP3    H147618   4.725   1.144  15.120 -0.3253  1.1263  0.5734
 8709TIP3    H247619   4.578   1.120  15.090 -0.4243  1.8847  0.4422
 8710TIP3   OH247620   4.498   0.594  14.113  0.1423 -0.6768 -0.7824
 8710TIP3    H147621   4.582   0.614  14.073 -0.9864  0.7637 -2.6241
 8710TIP3    H247622   4.445   0.673  14.099 -1.6072 -1.6468  0.0124
 8711TIP3   OH247623   6.405   6.101  15.097 -0.2729  0.1575  0.7141
 8711TIP3    H147624   6.447   6.101  15.183  0.6464  0.6954  0.2785
 8711TIP3    H247625   6.455   6.164  15.046 -1.7638  0.9932  0.2306
 8712TIP3   OH247626   5.611   1.545   5.500 -0.1874 -0.4902 -0.3459
 8712TIP3    H147627   5.694   1.585   5.527  0.1513  0.2520 -2.2646
 8712TIP3    H247628   5.546   1.614   5.512 -0.1638 -0.4033 -0.7062
 8713TIP3   OH247629   3.850   6.477  14.386 -0.1868 -0.1144 -0.4312
 8713TIP3    H147630   3.796   6.509  14.458 -1.4158 -0.4127 -1.1957
 8713TIP3    H247631   3.924   6.538  14.383 -0.4234  0.2412  0.6981
 8714TIP3   OH247632   0.204   3.910   1.328 -0.1574 -0.4680 -0.1797
 8714TIP3    H147633   0.281   3.922   1.383  0.3450  1.5188 -1.2380
 8714TIP3    H247634   0.176   3.820   1.346  1.7927 -0.9047  0.9803
 8715TIP3   OH247635   4.798   0.824  16.346  0.1271  0.1917 -0.0035
 8715TIP3    H147636   4.837   0.907  16.373  0.6105  0.6891 -2.0769
 8715TIP3    H247637   4.840   0.758  16.402  1.4969  1.0884  0.0702
 8716TIP3   OH247638   5.440   2.677   5.320 -0.4768 -0.4636 -0.3511
 8716TIP3    H147639   5.417   2.592   5.356  2.0261 -1.2294 -0.3705
 8716TIP3    H247640   5.510   2.710   5.377 -1.5316  1.7313 -0.1920
 8717TIP3   OH247641   1.522   1.044  13.622  0.2998 -0.8381 -0.6781
 8717TIP3    H147642   1.465   1.115  13.592  0.6464 -0.8456 -1.3809
 8717TIP3    H247643   1.538   0.992  13.543  0.8207 -1.1566 -0.3655
 8718TIP3   OH247644   3.850   6.533   3.652  0.4505 -0.1162  0.7535
 8718TIP3    H147645   3.946   6.534   3.660  0.5643 -1.6875  0.0239
 8718TIP3    H247646   3.824   6.451   3.694 -0.4937 -0.1025  0.2216
 8719TIP3   OH247647   5.306   6.202   5.179 -0.4433  0.2797  0.2338
 8719TIP3    H147648   5.287   6.157   5.097 -0.7265 -0.6472  0.7873
 8719TIP3    H247649   5.338   6.133   5.238  2.6509  1.3877  0.0357
 8720TIP3   OH247650   0.675   4.937  14.921 -0.0406  0.7840 -0.1053
 8720TIP3    H147651   0.717   4.852  14.931 -0.4509  0.5752 -0.1777
 8720TIP3    H247652   0.719   4.977  14.846 -1.6830 -0.4744 -1.8160
 8721TIP3   OH247653   6.228   0.333   0.829  0.9186 -0.0992 -0.1573
 8721TIP3    H147654   6.311   0.357   0.788  0.1766  0.2219 -1.5115
 8721TIP3    H247655   6.231   0.237   0.835 -0.4091 -0.5696 -4.3307
 8722TIP3   OH247656   2.392   4.199  15.725  0.4036 -0.3333  0.2945
 8722TIP3    H147657   2.416   4.170  15.637 -0.3919 -1.2849  0.3585
 8722TIP3    H247658   2.426   4.287  15.733 -1.8884  0.8995 -2.0224
 8723TIP3   OH247659   0.934   4.992  11.771 -0.2775  0.2674 -0.2295
 8723TIP3    H147660   0.850   4.949  11.786  0.1430 -0.1478  1.0157
 8723TIP3    H247661   1.000   4.928  11.797  0.3760  1.2672  0.6984
 8724TIP3   OH247662   0.592   6.333  12.732 -0.1708  0.1071  0.2391
 8724TIP3    H147663   0.602   6.251  12.683  1.0162 -0.6995  1.7645
 8724TIP3    H247664   0.529   6.384  12.680  0.3164 -1.0731 -1.6178
 8725TIP3   OH247665   6.263   5.414  17.177  0.0625 -0.0671  0.0353
 8725TIP3    H147666   6.171   5.396  17.157 -0.1121  0.9233 -0.0665
 8725TIP3    H247667   6.304   5.428  17.091  0.3157 -0.4953  0.0816
 8726TIP3   OH247668   2.797   2.540   1.510  0.3652 -0.1702 -0.5023
 8726TIP3    H147669   2.891   2.520   1.509  0.4704  0.1759  0.5815
 8726TIP3    H247670   2.783   2.595   1.434  1.1883  0.3491 -0.2917
 8727TIP3   OH247671   2.306   2.066   2.433  0.2291  0.1233  0.1059
 8727TIP3    H147672   2.301   2.051   2.527  1.2484  0.5781  0.2357
 8727TIP3    H247673   2.239   2.132   2.416  0.9722  1.0492  0.7273
 8728TIP3   OH247674   6.663   0.416  12.944 -0.4509 -0.4507  0.1729
 8728TIP3    H147675   6.580   0.368  12.938 -1.2731  1.0172 -1.1738
 8728TIP3    H247676   6.671   0.459  12.859  1.0850  0.4270  0.7331
 8729TIP3   OH247677   0.590   6.537   3.067 -0.1975 -0.1075 -0.0476
 8729TIP3    H147678   0.637   6.514   2.987 -0.6730  1.2514 -0.7641
 8729TIP3    H247679   0.507   6.574   3.036  0.3948  2.2700  0.9200
 8730TIP3   OH247680   2.394   5.034  11.468 -0.2689  0.3967  0.0784
 8730TIP3    H147681   2.453   4.993  11.406 -2.8499 -3.1563 -0.3197
 8730TIP3    H247682   2.446   5.046  11.547  1.5674 -0.3748 -0.9561
 8731TIP3   OH247683   1.297   6.097   6.002  0.8072  0.2825 -0.1272
 8731TIP3    H147684   1.309   6.184   6.040 -0.8572  1.4006 -1.9548
 8731TIP3    H247685   1.246   6.048   6.066  0.7693  1.0392  0.4246
 8732TIP3   OH247686   1.529   4.519   1.580 -0.1225  0.4210  0.2235
 8732TIP3    H147687   1.607   4.549   1.627 -0.8348 -0.3923  2.0343
 8732TIP3    H247688   1.556   4.439   1.537 -0.3427 -0.8520  2.3115
 8733TIP3   OH247689   2.190   2.043  11.986  0.4789  0.2549  0.5923
 8733TIP3    H147690   2.271   2.093  11.979 -0.2394  1.5331  1.0289
 8733TIP3    H247691   2.182   2.022  12.079  0.7603 -0.6723  0.4167
 8734TIP3   OH247692   1.895   5.222   3.323  0.4962 -0.3599 -0.2044
 8734TIP3    H147693   1.821   5.201   3.379 -0.3821 -0.0471 -1.2239
 8734TIP3    H247694   1.951   5.278   3.377  1.0194 -2.1987  1.2630
 8735TIP3   OH247695   4.029   5.938  13.952 -0.5689 -0.2850  0.0900
 8735TIP3    H147696   4.105   5.934  13.894  0.1002 -0.3869  0.9419
 8735TIP3    H247697   4.006   5.847  13.969  0.7065 -0.3524  1.7971
 8736TIP3   OH247698   6.409   6.372   5.437  0.1745  0.3864  0.3106
 8736TIP3    H147699   6.474   6.440   5.418 -2.9261  3.0910 -1.8678
 8736TIP3    H247700   6.376   6.393   5.524  0.9001  0.1502  0.6456
 8737TIP3   OH247701   0.690   4.056   0.917 -0.0314 -0.1762  0.1239
 8737TIP3    H147702   0.780   4.024   0.929  1.0184  2.4009 -0.3460
 8737TIP3    H247703   0.683   4.074   0.824 -0.7187  0.5167  0.3019
 8738TIP3   OH247704   0.958   0.989  13.568  0.4297  1.0044 -0.3873
 8738TIP3    H147705   1.024   0.929  13.533  1.0018  2.0726 -1.2145
 8738TIP3    H247706   1.009   1.064  13.599 -0.1919  0.7075  1.4692
 8739TIP3   OH247707   2.012   1.229   6.516  0.1684 -0.3422 -0.0616
 8739TIP3    H147708   1.925   1.267   6.526  0.3548  0.4936 -1.3140
 8739TIP3    H247709   2.072   1.300   6.541  0.5038 -0.5924 -0.1503
 8740TIP3   OH247710   6.476   3.232  14.027  0.1255 -0.0129 -0.4312
 8740TIP3    H147711   6.564   3.262  14.049 -0.3052  1.2149 -0.2932
 8740TIP3    H247712   6.451   3.175  14.100  1.2847 -1.4539 -1.1158
 8741TIP3   OH247713   2.300   1.597  16.196 -0.1471  0.6509 -0.1791
 8741TIP3    H147714   2.390   1.593  16.228  0.8236  0.0446 -2.7313
 8741TIP3    H247715   2.300   1.541  16.118 -2.2904  1.9981 -1.2367
 8742TIP3   OH247716   1.806   5.301   4.143  0.0532 -1.2892  0.3941
 8742TIP3    H147717   1.887   5.285   4.191  0.9049 -1.3237 -0.9964
 8742TIP3    H247718   1.819   5.258   4.059 -0.6028  0.3521 -0.5943
 8743TIP3   OH247719   4.530   2.851   4.352 -0.6169 -0.1979 -0.3972
 8743TIP3    H147720   4.505   2.777   4.297 -0.5692 -0.0380 -0.6352
 8743TIP3    H247721   4.625   2.843   4.362 -0.5070  0.2556 -1.0476
 8744TIP3   OH247722   3.005   3.847  13.597 -0.2062 -0.1031  0.9026
 8744TIP3    H147723   3.101   3.838  13.592 -0.3001 -0.4250 -0.9941
 8744TIP3    H247724   2.989   3.940  13.583 -0.1593  0.0427  1.7691
 8745TIP3   OH247725   5.297   0.324  11.673  0.1998 -0.0155  0.0225
 8745TIP3    H147726   5.354   0.399  11.657 -1.5339  1.7153  1.4721
 8745TIP3    H247727   5.225   0.334  11.610  0.7462 -1.4189 -0.8819
 8746TIP3   OH247728   3.220   3.164  16.233 -0.2252 -0.0278 -0.3589
 8746TIP3    H147729   3.170   3.167  16.152  0.6587  0.1165 -0.9076
 8746TIP3    H247730   3.293   3.224  16.219  0.0993 -0.2176  0.4380
 8747TIP3   OH247731   3.542   6.511  17.092 -0.1259  0.3483  0.0930
 8747TIP3    H147732   3.514   6.531  17.181  1.1083  0.7549  0.4058
 8747TIP3    H247733   3.637   6.520  17.094 -0.1769  1.8951 -1.6366
 8748TIP3   OH247734   4.975   0.857  15.452  0.0275  0.2858  0.1837
 8748TIP3    H147735   4.927   0.939  15.452  1.4388  1.3662 -4.0440
 8748TIP3    H247736   4.909   0.790  15.434 -0.7748  0.8115  1.1094
 8749TIP3   OH247737   0.467   1.029  16.315 -0.1703 -0.8349 -0.1529
 8749TIP3    H147738   0.448   1.029  16.222 -2.7206  0.0945  0.3087
 8749TIP3    H247739   0.514   1.111  16.330 -0.4268 -0.6252 -0.4881
 8750TIP3   OH247740   4.651   3.989  13.158 -0.3701  0.0370  0.6796
 8750TIP3    H147741   4.575   3.963  13.209 -1.0261 -1.1760 -0.8515
 8750TIP3    H247742   4.726   3.955  13.207 -1.0797 -2.6139  0.0657
 8751TIP3   OH247743   3.183   3.267   3.278  0.6332 -0.0571 -0.1189
 8751TIP3    H147744   3.160   3.346   3.327 -1.0029 -0.5533 -0.0293
 8751TIP3    H247745   3.240   3.217   3.336  1.8458  1.1176 -0.2493
 8752TIP3   OH247746   4.783   3.349  16.382 -0.2803 -0.0687  0.2302
 8752TIP3    H147747   4.825   3.304  16.455 -1.5827  1.4544  2.0170
 8752TIP3    H247748   4.847   3.415  16.354  1.1633 -2.1213 -1.6406
 8753TIP3   OH247749   2.511   1.046   5.676 -0.3905  0.2571  0.4143
 8753TIP3    H147750   2.519   0.956   5.643  1.4867  0.1662  1.0020
 8753TIP3    H247751   2.419   1.053   5.702 -0.6916 -1.3407 -0.0667
 8754TIP3   OH247752   5.176   2.231  12.485  0.5222  0.0107 -0.2423
 8754TIP3    H147753   5.167   2.136  12.489 -0.2696  0.1165  0.6156
 8754TIP3    H247754   5.250   2.245  12.425  2.0521 -1.1946  1.2655
 8755TIP3   OH247755   1.046   4.010  14.027 -0.2364  0.2431  0.0075
 8755TIP3    H147756   1.056   4.066  13.950  1.3176 -1.1244 -0.8395
 8755TIP3    H247757   1.035   3.922  13.992  2.2238 -0.6808  1.2849
 8756TIP3   OH247758   0.667   3.283  12.472  0.1006  0.3130 -0.1318
 8756TIP3    H147759   0.622   3.214  12.424  0.6570 -1.3811  1.6334
 8756TIP3    H247760   0.759   3.257  12.470  0.1348  0.1409  1.8317
 8757TIP3   OH247761   2.784   2.559   5.492  0.1663  0.3121 -0.4893
 8757TIP3    H147762   2.875   2.530   5.481 -0.1449 -0.9535  0.0775
 8757TIP3    H247763   2.756   2.519   5.574 -1.0501  0.2998 -0.8946
 8758TIP3   OH247764   1.720   4.185   2.832  0.3390  0.6592  0.0708
 8758TIP3    H147765   1.807   4.208   2.865  0.2795 -0.3408  0.9850
 8758TIP3    H247766   1.687   4.266   2.793  0.3506  2.0090  2.6172
 8759TIP3   OH247767   3.392   0.482  11.114 -0.1655 -0.5876 -0.4857
 8759TIP3    H147768   3.314   0.506  11.064  1.0552  0.3654 -2.0256
 8759TIP3    H247769   3.379   0.389  11.136 -1.9670 -0.2846 -0.2076
 8760TIP3   OH247770   5.511   5.572   5.999 -0.1439  0.9945 -0.2517
 8760TIP3    H147771   5.441   5.507   6.007  0.5015  0.1720 -1.1564
 8760TIP3    H247772   5.471   5.653   6.032 -0.9104  0.1344  1.0666
 8761TIP3   OH247773   3.410   1.026   1.998 -0.6727  0.2717  0.2015
 8761TIP3    H147774   3.468   0.952   1.978 -0.8266  0.2700 -0.2413
 8761TIP3    H247775   3.389   1.064   1.913  0.0980  1.3689  0.4818
 8762TIP3   OH247776   2.377   3.674  13.140 -0.3534  0.1755  0.2675
 8762TIP3    H147777   2.409   3.600  13.191 -0.7449  0.6393  1.2109
 8762TIP3    H247778   2.456   3.712  13.100  0.0899  0.3910  1.3286
 8763TIP3   OH247779   4.440   0.974  12.265 -0.6892 -0.6542 -0.4002
 8763TIP3    H147780   4.467   0.889  12.301 -0.1496 -0.6867 -0.8746
 8763TIP3    H247781   4.514   1.032  12.281 -0.3062 -0.7444 -1.7278
 8764TIP3   OH247782   2.148   1.579   5.226  0.2830  0.5863 -0.6266
 8764TIP3    H147783   2.219   1.557   5.285 -0.3299 -0.4414 -0.2488
 8764TIP3    H247784   2.097   1.498   5.219 -1.6577  1.6738  0.2486
 8765TIP3   OH247785   3.114   5.951  14.302  0.2550 -0.1141  0.9389
 8765TIP3    H147786   3.056   6.023  14.327 -2.0652 -0.8642 -1.7222
 8765TIP3    H247787   3.091   5.880  14.362 -1.8346 -0.4361 -0.1324
 8766TIP3   OH247788   5.212   1.302  10.825 -0.2896  0.2971 -0.0873
 8766TIP3    H147789   5.301   1.333  10.810  0.6236 -1.8998  0.3259
 8766TIP3    H247790   5.216   1.208  10.806 -2.4171  0.0658  0.3751
 8767TIP3   OH247791   0.142   1.580  15.374 -0.0709  0.4639 -0.0720
 8767TIP3    H147792   0.104   1.513  15.317  0.0915 -1.0689  1.5250
 8767TIP3    H247793   0.195   1.530  15.437 -1.5512  1.8574  2.4535
 8768TIP3   OH247794   6.126   3.614  13.663  0.3379  0.4465  0.3412
 8768TIP3    H147795   6.075   3.684  13.622 -0.9841  0.3380  1.7322
 8768TIP3    H247796   6.076   3.590  13.740  0.1535 -2.8602 -0.6822
 8769TIP3   OH247797   0.567   4.111   1.770 -0.1970 -0.3855  0.4662
 8769TIP3    H147798   0.506   4.184   1.761 -0.7273 -0.7285  1.1870
 8769TIP3    H247799   0.610   4.105   1.684 -0.4888  0.4630  0.2541
 8770TIP3   OH247800   1.955   4.158  16.850 -0.0542 -0.1373  0.1641
 8770TIP3    H147801   1.908   4.241  16.847  1.5054  0.8094  0.3828
 8770TIP3    H247802   1.949   4.123  16.761  1.0652  1.2974 -0.5087
 8771TIP3   OH247803   0.689   6.646  13.368 -0.5460  0.8489  0.2037
 8771TIP3    H147804   0.698   6.722  13.425 -2.8228  0.5220  1.1242
 8771TIP3    H247805   0.615   6.668  13.311 -1.0958 -0.5583  0.3424
 8772TIP3   OH247806   5.410   0.249  13.069  0.9670 -0.0568 -0.4542
 8772TIP3    H147807   5.347   0.314  13.039 -1.7262 -1.5661  1.4765
 8772TIP3    H247808   5.447   0.285  13.149 -1.9332 -1.4749  1.6894
 8773TIP3   OH247809   2.697   4.354  16.312  0.1588 -0.6108  0.3415
 8773TIP3    H147810   2.666   4.374  16.224 -0.6133  0.4353  0.8263
 8773TIP3    H247811   2.789   4.329  16.300  0.2876  0.2707 -0.6816
 8774TIP3   OH247812   1.602   1.769   5.764 -0.1648  0.2472  0.1824
 8774TIP3    H147813   1.578   1.676   5.760  1.5410 -0.1924 -0.6019
 8774TIP3    H247814   1.557   1.802   5.842  1.4178 -1.9086  2.1334
 8775TIP3   OH247815   5.680   4.333  17.206 -0.4857 -0.7630  0.4387
 8775TIP3    H147816   5.599   4.341  17.255 -1.6438 -1.4758 -1.2497
 8775TIP3    H247817   5.746   4.375  17.261 -2.0214  0.0198  1.7618
 8776TIP3   OH247818   4.014   4.006   0.012  0.3213  0.1719  0.0676
 8776TIP3    H147819   4.091   4.061   0.027 -0.1028  1.8169 -2.9560
 8776TIP3    H247820   4.046   3.917   0.018  2.0502  0.7966  0.6108
 8777TIP3   OH247821   1.825   1.212  15.984 -0.1437 -0.3703  0.2818
 8777TIP3    H147822   1.871   1.134  15.953  1.0865 -0.0469  1.2249
 8777TIP3    H247823   1.890   1.282  15.977 -0.4615  0.0889  1.6923
 8778TIP3   OH247824   2.146   5.962  15.835  0.5289 -0.0818 -0.1039
 8778TIP3    H147825   2.205   5.889  15.852  1.3386  0.7368  0.7469
 8778TIP3    H247826   2.059   5.929  15.857  0.8598 -0.8349  0.0878
 8779TIP3   OH247827   5.576   3.824  11.210  0.3134  0.1698 -0.0759
 8779TIP3    H147828   5.655   3.779  11.179 -0.5075 -1.3566 -0.0845
 8779TIP3    H247829   5.505   3.788  11.156 -0.4915  0.9442  0.4389
 8780TIP3   OH247830   6.261   0.249   5.906  0.0583 -0.4827 -1.0332
 8780TIP3    H147831   6.342   0.217   5.866  1.0705  0.9280 -0.2315
 8780TIP3    H247832   6.286   0.333   5.944 -1.6993 -0.2263 -0.3824
 8781TIP3   OH247833   4.957   2.622  14.319  0.2886 -0.1470  0.2528
 8781TIP3    H147834   5.000   2.673  14.387 -0.5307 -0.9418  1.4175
 8781TIP3    H247835   4.975   2.531  14.343  0.2983 -0.4495 -0.8256
 8782TIP3   OH247836   3.087   0.563  12.332 -0.3545 -0.2558 -0.5410
 8782TIP3    H147837   3.125   0.633  12.280 -0.9958  0.2206 -0.3775
 8782TIP3    H247838   3.009   0.602  12.371 -0.0171 -0.6729  0.5837
 8783TIP3   OH247839   1.809   6.743  14.478 -0.2104 -0.2060  0.0816
 8783TIP3    H147840   1.899   6.720  14.502 -0.3805  0.0069  0.9540
 8783TIP3    H247841   1.756   6.714  14.552 -0.8071  0.0888 -0.2233
 8784TIP3   OH247842   4.241   6.214   2.813  0.2398 -0.1903 -0.2583
 8784TIP3    H147843   4.222   6.244   2.724  0.0392  0.4049 -0.0173
 8784TIP3    H247844   4.246   6.294   2.865 -1.5658 -0.6258  0.6562
 8785TIP3   OH247845   1.666   2.388   0.578  0.2431  0.4334  0.1121
 8785TIP3    H147846   1.697   2.394   0.669  1.4631  1.3393 -0.3286
 8785TIP3    H247847   1.581   2.431   0.579  0.0879  0.1403  0.8767
 8786TIP3   OH247848   6.354   2.766   5.206  0.2050  0.0112 -0.0293
 8786TIP3    H147849   6.292   2.826   5.165 -0.0195  0.3681  0.8100
 8786TIP3    H247850   6.343   2.684   5.158 -0.8352  0.1022  0.0170
 8787TIP3   OH247851   6.648   4.732  17.250 -0.4896 -0.5190  0.2955
 8787TIP3    H147852   6.731   4.757  17.291 -0.8019 -0.0341  0.6329
 8787TIP3    H247853   6.673   4.706  17.161 -0.1748  1.2266 -0.1666
 8788TIP3   OH247854   6.119   5.780   1.001 -0.1875  0.3311 -0.7195
 8788TIP3    H147855   6.030   5.754   1.021  0.0938  0.3223  0.5836
 8788TIP3    H247856   6.148   5.717   0.935 -0.0939 -1.6717  1.1200
 8789TIP3   OH247857   2.976   4.016  16.477 -0.1961  0.1721 -0.2469
 8789TIP3    H147858   2.941   4.104  16.490 -0.6388 -0.1368  0.7938
 8789TIP3    H247859   2.934   3.964  16.545 -0.0685 -0.8867 -0.9657
 8790TIP3   OH247860   1.669   4.157  13.374 -0.0409  0.1331 -0.1681
 8790TIP3    H147861   1.605   4.099  13.333  1.1696 -1.3780 -0.0357
 8790TIP3    H247862   1.675   4.126  13.464  2.0780 -0.9247 -0.5992
 8791TIP3   OH247863   2.642   1.075  14.328 -0.7094 -0.0802  0.0791
 8791TIP3    H147864   2.713   1.127  14.365 -1.5671  1.3004 -0.1220
 8791TIP3    H247865   2.577   1.140  14.301 -1.1054 -1.1668 -1.7372
 8792TIP3   OH247866   3.057   5.619  16.587 -0.4053 -0.4504 -0.3216
 8792TIP3    H147867   3.074   5.527  16.608 -0.2578 -0.7173 -1.5408
 8792TIP3    H247868   3.090   5.630  16.498 -0.6942  0.7135 -0.3034
 8793TIP3   OH247869   4.544   6.438  17.069  0.2839 -0.5579  0.1502
 8793TIP3    H147870   4.584   6.354  17.091  0.0738 -0.0393  2.7605
 8793TIP3    H247871   4.616   6.502  17.076  0.1283 -0.3096 -0.4192
 8794TIP3   OH247872   2.010   2.511  12.524 -0.2474  0.3584 -0.0937
 8794TIP3    H147873   2.081   2.571  12.546 -1.1101  1.3598 -0.0073
 8794TIP3    H247874   2.025   2.435  12.580 -0.3136  1.3449  1.2908
 8795TIP3   OH247875   6.355   5.156   4.687 -0.0202 -0.0497  0.3982
 8795TIP3    H147876   6.409   5.128   4.761 -0.4011 -1.7826  0.0731
 8795TIP3    H247877   6.266   5.129   4.711  0.0004 -1.6760 -1.1028
 8796TIP3   OH247878   6.438   5.399  15.818 -0.0995 -0.7707  0.4291
 8796TIP3    H147879   6.346   5.412  15.841 -0.7290 -1.9040 -1.2188
 8796TIP3    H247880   6.458   5.471  15.759  0.2866 -0.1669  1.2771
 8797TIP3   OH247881   1.399   2.527  17.047 -0.1519 -0.2928  0.0953
 8797TIP3    H147882   1.378   2.458  16.984  0.1801 -0.2870 -0.0229
 8797TIP3    H247883   1.471   2.575  17.007  0.9415 -1.0785  1.0424
 8798TIP3   OH247884   1.309   4.484  14.715  0.0926  0.2626 -0.0911
 8798TIP3    H147885   1.305   4.547  14.643 -0.2391 -0.3835 -0.6500
 8798TIP3    H247886   1.220   4.482  14.750 -0.0438 -0.3367 -0.4643
 8799TIP3   OH247887   3.994   4.061  15.885 -0.2674  0.2396 -0.4170
 8799TIP3    H147888   3.967   4.098  15.801 -1.3345  2.3602  0.7967
 8799TIP3    H247889   3.912   4.044  15.931  0.3217 -0.0163  0.5710
 8800TIP3   OH247890   4.322   2.515  11.255  0.0531 -0.0671  0.3805
 8800TIP3    H147891   4.231   2.497  11.278  0.2521 -1.2615  0.2965
 8800TIP3    H247892   4.317   2.583  11.188 -0.7095  0.6880  1.1751
 8801TIP3   OH247893   6.270   5.075  12.357  0.4223  0.1990 -0.4938
 8801TIP3    H147894   6.306   5.137  12.294  1.3376  1.9624  1.6495
 8801TIP3    H247895   6.182   5.110  12.376  1.0040  0.9954  0.8429
 8802TIP3   OH247896   3.147   6.595   5.691  0.2195  0.0289 -0.6084
 8802TIP3    H147897   3.160   6.530   5.621 -0.1157 -2.3014  1.3543
 8802TIP3    H247898   3.236   6.622   5.715  0.4123 -0.3445 -0.8816
 8803TIP3   OH247899   6.811   6.587   0.761 -0.3388 -0.6701  0.0225
 8803TIP3    H147900   6.775   6.560   0.846  0.5183  0.0963  0.6509
 8803TIP3    H247901   6.897   6.624   0.782  0.2749 -1.2814 -1.2960
 8804TIP3   OH247902   6.210   1.927  11.235 -0.0579 -0.5109 -0.3273
 8804TIP3    H147903   6.141   1.861  11.229 -1.7848  1.0979  0.7909
 8804TIP3    H247904   6.205   1.959  11.325  0.2133  1.6451 -1.0203
 8805TIP3   OH247905   2.772   2.856   3.282 -0.4822  0.1499  0.2069
 8805TIP3    H147906   2.763   2.932   3.340 -2.6405 -0.4905  0.7683
 8805TIP3    H247907   2.865   2.832   3.290 -0.4554  0.7606  2.5491
 8806TIP3   OH247908   2.337   2.345   5.504  0.1370 -0.1116 -0.3159
 8806TIP3    H147909   2.325   2.315   5.414 -0.6032  0.0333 -0.2765
 8806TIP3    H247910   2.282   2.286   5.556  0.4291 -0.0888  0.0232
 8807TIP3   OH247911   6.294   0.916   3.452 -0.4398  0.4474  0.1968
 8807TIP3    H147912   6.255   1.000   3.429 -1.9352 -0.2921 -0.0930
 8807TIP3    H247913   6.230   0.851   3.424  1.1772 -0.8739 -0.6534
 8808TIP3   OH247914   5.970   3.588  13.249 -0.0109  0.3006  0.2058
 8808TIP3    H147915   6.034   3.526  13.284  1.5857  0.8845 -1.4978
 8808TIP3    H247916   6.016   3.673  13.252 -1.9521  1.3629  2.0268
 8809TIP3   OH247917   2.411   5.261   4.587 -0.1665  0.0145  0.0013
 8809TIP3    H147918   2.332   5.220   4.552  1.2472 -0.7514 -2.4826
 8809TIP3    H247919   2.416   5.228   4.677 -1.7438 -1.2687 -0.3219
 8810TIP3   OH247920   6.191   6.289   3.577 -0.8009 -0.2346  0.6603
 8810TIP3    H147921   6.212   6.227   3.647 -0.4450 -0.7320  0.1257
 8810TIP3    H247922   6.239   6.369   3.601  0.5598 -0.8852  0.2232
 8811TIP3   OH247923   5.389   1.415   1.141  0.0882 -0.1013  0.7227
 8811TIP3    H147924   5.397   1.323   1.163  1.3231 -0.4078 -0.8063
 8811TIP3    H247925   5.443   1.461   1.205  1.2642 -0.6818  0.1802
 8812TIP3   OH247926   4.886   3.590  11.350 -0.0191 -0.3132 -0.1289
 8812TIP3    H147927   4.894   3.601  11.255 -0.4862 -0.0274 -0.1364
 8812TIP3    H247928   4.799   3.623  11.371  0.6996  1.1808  0.6453
 8813TIP3   OH247929   6.263   3.613   3.171 -0.2280  0.1676  0.1688
 8813TIP3    H147930   6.169   3.631   3.174 -0.3461 -0.1761 -0.8742
 8813TIP3    H247931   6.272   3.526   3.210 -0.1069  0.8887  1.8466
 8814TIP3   OH247932   5.743   2.543   2.631 -0.4993 -0.0114 -0.0181
 8814TIP3    H147933   5.732   2.483   2.557 -1.4290  0.6368 -0.4263
 8814TIP3    H247934   5.837   2.541   2.651 -0.0540  0.5618 -1.8628
 8815TIP3   OH247935   4.696   1.325   3.808 -0.6500  0.6983 -0.1599
 8815TIP3    H147936   4.644   1.352   3.884 -0.1525  1.0186  0.0754
 8815TIP3    H247937   4.634   1.280   3.751 -0.9617  0.1242  0.6069
 8816TIP3   OH247938   3.422   1.218  12.086  0.0051  0.1462 -0.3391
 8816TIP3    H147939   3.496   1.216  12.147 -0.0361  0.0524 -0.2922
 8816TIP3    H247940   3.363   1.284  12.122  0.6536  1.1536 -1.0673
 8817TIP3   OH247941   1.895   3.516   5.342  0.0222 -0.3177  0.2118
 8817TIP3    H147942   1.990   3.521   5.354  0.0464 -0.8173  0.2459
 8817TIP3    H247943   1.866   3.448   5.403  0.0317 -2.3113 -1.8403
 8818TIP3   OH247944   5.177   2.041   0.857  0.0972  0.0886  0.2761
 8818TIP3    H147945   5.217   1.997   0.782 -0.4823  0.5250 -0.3103
 8818TIP3    H247946   5.168   1.973   0.923 -0.5460 -0.6221 -0.5175
 8819TIP3   OH247947   5.588   2.934   0.122  0.6428  0.0025  0.5032
 8819TIP3    H147948   5.569   2.862   0.062 -1.8057  0.8151  0.1976
 8819TIP3    H247949   5.584   2.894   0.209  1.0270 -0.5640  0.2665
 8820TIP3   OH247950   5.000   2.080  12.124  0.0928 -0.3071  0.2217
 8820TIP3    H147951   4.917   2.049  12.161 -0.5241  0.7869 -0.2174
 8820TIP3    H247952   5.023   2.156  12.176 -0.4189  0.8255 -1.1587
 8821TIP3   OH247953   1.387   1.670   0.475 -0.4705 -0.2413  0.3821
 8821TIP3    H147954   1.374   1.706   0.563 -3.9361 -0.8995  0.2770
 8821TIP3    H247955   1.356   1.580   0.482 -2.5697  0.2206 -1.8673
 8822TIP3   OH247956   4.468   3.158   0.813 -0.2870 -0.1066 -0.4289
 8822TIP3    H147957   4.384   3.202   0.798 -0.6425 -1.4065 -2.6021
 8822TIP3    H247958   4.532   3.229   0.814 -1.1187  0.6804 -1.4409
 8823TIP3   OH247959   0.156   0.731   1.881  0.6294  0.3556 -0.5745
 8823TIP3    H147960   0.116   0.815   1.859 -0.5282 -0.1930 -0.6107
 8823TIP3    H247961   0.164   0.685   1.798  0.0880 -0.0616 -0.4045
 8824TIP3   OH247962   5.071   5.300  16.095 -0.0182  0.0111 -0.6563
 8824TIP3    H147963   5.059   5.332  16.006  1.0456  0.9433 -0.4946
 8824TIP3    H247964   5.163   5.274  16.100  0.0094  0.2271  0.2347
 8825TIP3   OH247965   0.623   4.711   0.450 -0.1960 -0.3979 -0.5239
 8825TIP3    H147966   0.532   4.694   0.426  0.0659 -1.2572 -0.9465
 8825TIP3    H247967   0.674   4.674   0.378  0.5214 -0.7988  0.1719
 8826TIP3   OH247968   6.755   1.597  12.674  0.3987  0.1379  0.0703
 8826TIP3    H147969   6.742   1.511  12.633  2.5915 -0.3230  0.2045
 8826TIP3    H247970   6.704   1.657  12.619 -0.2260 -1.0785 -0.7350
 8827TIP3   OH247971   5.366   4.980   5.758 -0.0381 -0.5299  0.3949
 8827TIP3    H147972   5.380   4.923   5.681 -1.5825  0.0651 -0.3868
 8827TIP3    H247973   5.314   4.925   5.818 -0.6479 -0.3079  0.0815
 8828TIP3   OH247974   3.777   3.763   3.621 -0.0174 -0.1019  0.1515
 8828TIP3    H147975   3.760   3.830   3.688 -0.7716  0.6779 -0.7739
 8828TIP3    H247976   3.730   3.795   3.544  0.1288 -1.4057 -0.5015
 8829TIP3   OH247977   1.785   6.649  12.413 -0.3180  0.0842 -0.0819
 8829TIP3    H147978   1.859   6.683  12.463  1.0252 -0.5142 -1.5822
 8829TIP3    H247979   1.719   6.718  12.417 -0.8326 -0.3947  3.5053
 8830TIP3   OH247980   1.960   0.058  10.904 -0.1587  0.6709  0.1292
 8830TIP3    H147981   1.882   0.082  10.954 -0.6695  0.2295 -0.4321
 8830TIP3    H247982   1.957   0.113  10.827 -0.3940  0.0477 -0.3153
 8831TIP3   OH247983   0.034   3.155  16.556 -0.3988  0.0935  0.1134
 8831TIP3    H147984  -0.052   3.125  16.526  0.8596 -1.6110 -2.1129
 8831TIP3    H247985   0.024   3.250  16.568 -2.2010  0.1707 -1.5516
 8832TIP3   OH247986   0.642   5.652   3.642 -0.4014  0.2355  0.2684
 8832TIP3    H147987   0.717   5.661   3.701 -0.5261  2.0415  0.2136
 8832TIP3    H247988   0.679   5.625   3.558  0.3170  1.9892 -0.0016
 8833TIP3   OH247989   0.102   2.133  12.506 -0.9857 -0.8432 -0.1184
 8833TIP3    H147990   0.078   2.226  12.496 -0.9017 -0.7176  0.7667
 8833TIP3    H247991   0.020   2.086  12.497 -1.0670 -0.6639 -0.3270
 8834TIP3   OH247992   2.359   0.594  11.507 -0.2219  0.3280  0.5806
 8834TIP3    H147993   2.362   0.645  11.426 -0.1362  0.3131  0.5739
 8834TIP3    H247994   2.348   0.658  11.577 -3.5535  0.1767  0.3559
 8835TIP3   OH247995   3.575   5.487   3.609  0.1278 -0.5190  0.5833
 8835TIP3    H147996   3.507   5.479   3.542  1.4817 -0.0381 -0.9179
 8835TIP3    H247997   3.622   5.567   3.585  1.0176 -0.6673  1.7770
 8836TIP3   OH247998   4.181   5.100  12.589 -0.3262 -0.0223 -0.4024
 8836TIP3    H147999   4.151   5.021  12.543 -0.6527 -0.5239  0.6324
 8836TIP3    H248000   4.106   5.126  12.643  0.4943 -0.2849  0.9152
 8837TIP3   OH248001   0.435   0.443   0.996 -0.3018  0.0649 -0.1014
 8837TIP3    H148002   0.459   0.370   1.053  2.1383  1.5156  0.8932
 8837TIP3    H248003   0.345   0.425   0.970 -0.4088 -2.3097  1.6226
 8838TIP3   OH248004   0.127   5.282  15.893 -0.9917  0.1139 -0.5634
 8838TIP3    H148005   0.052   5.294  15.834 -0.7372  1.4459 -0.6394
 8838TIP3    H248006   0.164   5.370  15.903 -1.1077 -0.0479  1.6972
 8839TIP3   OH248007   3.997   6.157  15.002 -0.0926 -0.7845  0.0825
 8839TIP3    H148008   4.027   6.078  15.046 -1.0425  0.1440  2.5892
 8839TIP3    H248009   4.049   6.227  15.041 -0.7154  0.0543 -0.5526
 8840TIP3   OH248010   1.475   1.894  17.210  0.5897 -0.0410 -0.3951
 8840TIP3    H148011   1.556   1.845  17.225  1.0938  0.9576  0.2638
 8840TIP3    H248012   1.458   1.883  17.117  0.9157 -1.1132 -0.3435
 8841TIP3   OH248013   2.641   0.863   3.835 -0.0341 -0.0169  0.0947
 8841TIP3    H148014   2.605   0.785   3.791  1.0764 -0.4259 -0.1234
 8841TIP3    H248015   2.668   0.920   3.763  2.7685 -1.1331  0.1298
 8842TIP3   OH248016   4.583   4.394   5.554  0.1328 -0.1029 -0.2714
 8842TIP3    H148017   4.580   4.317   5.497 -0.0172  0.5449 -1.1522
 8842TIP3    H248018   4.665   4.438   5.531 -0.8602  1.2305 -1.4470
 8843TIP3   OH248019   3.906   2.176   6.609 -0.1765 -0.3366 -0.5101
 8843TIP3    H148020   3.815   2.150   6.628  0.0549 -1.0164 -0.2887
 8843TIP3    H248021   3.939   2.106   6.553  0.6890 -0.9201  0.6670
 8844TIP3   OH248022   1.366   0.517  12.167 -0.0588 -0.6933 -0.8238
 8844TIP3    H148023   1.409   0.432  12.160  1.0342 -0.1169 -1.2980
 8844TIP3    H248024   1.413   0.573  12.105  0.3022  0.6750  0.6071
 8845TIP3   OH248025   0.480   5.806   0.090  0.1496 -0.2935 -0.4781
 8845TIP3    H148026   0.400   5.791   0.141 -0.6016 -1.3412 -1.8607
 8845TIP3    H248027   0.448   5.821   0.001  1.3371  2.5912 -0.5315
 8846TIP3   OH248028   5.554   4.389  15.998 -0.7417 -0.0944  0.3880
 8846TIP3    H148029   5.547   4.357  15.908 -1.7376 -1.8125  1.0165
 8846TIP3    H248030   5.475   4.355  16.040  0.9285 -1.5717  2.5459
 8847TIP3   OH248031   1.355   2.725  14.754  0.2568  0.3897 -0.0836
 8847TIP3    H148032   1.398   2.810  14.768 -1.4766  1.4747 -0.9339
 8847TIP3    H248033   1.415   2.661  14.791  1.4662  2.0239  0.9095
 8848TIP3   OH248034   1.194   4.737  16.485  0.7096 -0.0137 -0.2311
 8848TIP3    H148035   1.262   4.715  16.422  1.2698 -0.7279  0.6054
 8848TIP3    H248036   1.113   4.738  16.434  1.1403 -0.6710 -0.9399
 8849TIP3   OH248037   0.659   0.142   5.855 -0.0563 -0.0585  1.1116
 8849TIP3    H148038   0.738   0.157   5.907 -0.3147  1.8481  1.0304
 8849TIP3    H248039   0.595   0.203   5.891 -1.1894 -0.8605  0.5154
 8850TIP3   OH248040   5.377   6.282  10.584 -0.4117  0.5831 -0.0363
 8850TIP3    H148041   5.405   6.214  10.522  0.1281  0.9250 -0.1721
 8850TIP3    H248042   5.375   6.238  10.669  3.0539  1.0976  0.4718
 8851TIP3   OH248043   1.116   1.141   5.884  0.1298  0.0639 -0.3269
 8851TIP3    H148044   1.025   1.153   5.911  0.0167 -1.6623  0.1306
 8851TIP3    H248045   1.126   1.201   5.810 -1.2148  0.6552 -0.0718
 8852TIP3   OH248046   5.607   2.746   2.514  0.4210 -0.3619 -0.1832
 8852TIP3    H148047   5.558   2.800   2.577 -1.9423 -1.0655 -1.2821
 8852TIP3    H248048   5.652   2.681   2.567 -2.6433 -1.8502  0.8453
 8853TIP3   OH248049   5.666   4.234  11.619  0.0225  0.3838 -0.1300
 8853TIP3    H148050   5.684   4.323  11.649  0.3588 -0.3898  2.1850
 8853TIP3    H248051   5.574   4.235  11.593 -0.4732  0.9965  1.5651
 8854TIP3   OH248052   5.484   2.817   5.054  0.0851 -0.3409  0.5239
 8854TIP3    H148053   5.462   2.752   5.121  1.8193  0.0033  1.4856
 8854TIP3    H248054   5.567   2.788   5.018  0.2272  0.6341  0.0386
 8855TIP3   OH248055   6.014   6.771  12.477  0.4210  0.0982 -0.0939
 8855TIP3    H148056   5.961   6.691  12.485 -0.9268  0.9799  0.2394
 8855TIP3    H248057   6.083   6.760  12.543 -0.4699 -0.2679  0.8121
 8856TIP3   OH248058   6.399   3.079   2.926 -0.1450  0.7047 -0.0096
 8856TIP3    H148059   6.349   3.125   2.859 -0.6169 -0.1495 -0.2631
 8856TIP3    H248060   6.445   3.148   2.973 -1.2750  1.4831 -0.0077
 8857TIP3   OH248061   5.274   1.203   6.749 -0.2030  0.3598 -0.2716
 8857TIP3    H148062   5.342   1.180   6.685 -0.3228  0.7454 -0.5398
 8857TIP3    H248063   5.321   1.219   6.830 -0.0439 -0.0876 -0.2714
 8858TIP3   OH248064   6.329   3.204   1.283  0.3310  0.4568  0.0133
 8858TIP3    H148065   6.400   3.152   1.245  0.3977  0.2014  0.4783
 8858TIP3    H248066   6.349   3.294   1.258 -0.4852  0.1517 -1.9251
 8859TIP3   OH248067   4.465   6.568  12.589  0.3198  0.7345 -0.1530
 8859TIP3    H148068   4.439   6.644  12.537  0.7353  0.0287 -1.4576
 8859TIP3    H248069   4.382   6.526  12.614  0.1152  0.6195 -0.9908
 8860TIP3   OH248070   5.020   6.071   5.052  0.5219  0.9937  0.4220
 8860TIP3    H148071   5.015   6.005   5.120 -0.2919  1.0628  0.4308
 8860TIP3    H248072   5.107   6.059   5.014 -1.1777 -3.4571 -2.9472
 8861TIP3   OH248073   3.730   2.542  10.319  0.3423  0.3294 -0.0214
 8861TIP3    H148074   3.741   2.458  10.362 -0.4537  0.6157  0.7624
 8861TIP3    H248075   3.636   2.553  10.309  0.3760  1.5461  0.7472
 8862TIP3   OH248076   2.231   5.598  10.831 -0.2129  0.5773  0.2047
 8862TIP3    H148077   2.263   5.523  10.781  0.0818  0.6763  0.2434
 8862TIP3    H248078   2.215   5.666  10.766  1.2430  1.0853  0.3518
 8863TIP3   OH248079   2.890   4.602  16.751 -0.2807 -0.1481 -0.2636
 8863TIP3    H148080   2.824   4.542  16.717 -0.7595 -0.3359  0.9569
 8863TIP3    H248081   2.870   4.687  16.710 -1.7566 -0.0232  0.6750
 8864TIP3   OH248082   3.388   6.315   3.156 -0.4634 -0.4050 -0.2381
 8864TIP3    H148083   3.451   6.350   3.093 -0.8942  0.8352 -0.0069
 8864TIP3    H248084   3.321   6.273   3.102 -0.1695 -0.4830 -0.5458
 8865TIP3   OH248085   1.253   5.291  16.232  0.5056 -0.6152  0.4140
 8865TIP3    H148086   1.278   5.370  16.185 -1.0354  0.3839  1.1758
 8865TIP3    H248087   1.335   5.242  16.244  1.3263  0.3784 -0.9223
 8866TIP3   OH248088   1.358   2.201  10.609  0.0376 -0.1107  0.3797
 8866TIP3    H148089   1.408   2.122  10.630 -0.7931 -0.5643  0.6896
 8866TIP3    H248090   1.270   2.169  10.591  0.2986  0.4500 -2.1971
 8867TIP3   OH248091   5.021   1.572  15.867 -0.3706 -0.1051 -0.1158
 8867TIP3    H148092   4.941   1.597  15.820  0.3960 -0.4169 -1.6554
 8867TIP3    H248093   5.065   1.655  15.884 -1.2651  0.1142  1.2330
 8868TIP3   OH248094   1.662   0.642  15.563 -0.3654  0.1760  0.7138
 8868TIP3    H148095   1.714   0.658  15.642 -0.9192  0.7225  0.9883
 8868TIP3    H248096   1.593   0.582  15.592 -0.7367  0.5997  0.7284
 8869TIP3   OH248097   2.446   5.859   1.718  0.8391 -0.0672  0.1139
 8869TIP3    H148098   2.498   5.796   1.768  0.2092 -0.2104  0.6037
 8869TIP3    H248099   2.356   5.844   1.747  0.2327 -1.1549 -2.1313
 8870TIP3   OH248100   0.952   1.804   2.815 -0.5338  0.4372 -0.0044
 8870TIP3    H148101   0.977   1.855   2.738  1.3335 -0.0892  0.1961
 8870TIP3    H248102   1.010   1.727   2.813 -0.4162  0.4190  1.9119
 8871TIP3   OH248103   6.689   5.382   6.060 -0.0872  0.0855 -0.3502
 8871TIP3    H148104   6.774   5.406   6.098 -0.1212 -1.0414  0.4886
 8871TIP3    H248105   6.710   5.320   5.991 -0.0920  1.4693 -1.6351
 8872TIP3   OH248106   3.194   4.989  12.463 -0.4475  0.1236  0.3192
 8872TIP3    H148107   3.164   4.914  12.411  0.5428 -0.7004  0.9184
 8872TIP3    H248108   3.199   4.956  12.552  1.4807  0.4243  0.3706
 8873TIP3   OH248109   3.818   6.381   4.336  0.6963  0.6816 -0.7860
 8873TIP3    H148110   3.856   6.391   4.248 -1.8849  1.0370 -1.9589
 8873TIP3    H248111   3.730   6.417   4.328  0.0893 -0.0575  1.7556
 8874TIP3   OH248112   1.667   0.217  13.191  0.2621 -0.5678  0.2026
 8874TIP3    H148113   1.638   0.288  13.247  0.2320 -0.3904 -0.0363
 8874TIP3    H248114   1.703   0.260  13.113 -1.9399 -0.8164 -1.0483
 8875TIP3   OH248115   5.637   2.433  12.999 -0.3405 -0.1239  0.1693
 8875TIP3    H148116   5.724   2.400  13.022  0.4576  1.8639  0.2387
 8875TIP3    H248117   5.580   2.403  13.070  0.4584 -0.7238  0.5711
 8876TIP3   OH248118   0.564   4.039  15.937 -0.1207 -0.4340 -0.5545
 8876TIP3    H148119   0.547   4.123  15.980  1.0739 -0.1059 -0.6931
 8876TIP3    H248120   0.649   4.050  15.895 -0.5042 -1.3199 -1.5981
 8877TIP3   OH248121   4.115   2.067  16.012 -0.6586  0.0624  0.0690
 8877TIP3    H148122   4.144   1.980  16.041 -1.7318  0.1019  1.3621
 8877TIP3    H248123   4.040   2.050  15.954 -0.1701  0.0918 -0.5802
 8878TIP3   OH248124   0.577   5.847  16.683 -0.1830 -0.5313  0.1407
 8878TIP3    H148125   0.602   5.914  16.620 -0.7700 -1.0125 -0.6210
 8878TIP3    H248126   0.528   5.894  16.750 -0.6353 -0.1996 -0.4153
 8879TIP3   OH248127   0.126   0.344  15.787  0.3780 -0.5658  0.0819
 8879TIP3    H148128   0.110   0.270  15.729 -0.7303 -1.0291  0.9202
 8879TIP3    H248129   0.122   0.306  15.875 -0.9269  0.5903  0.5535
 8880TIP3   OH248130   6.144   3.516  11.437  0.2466  0.5584  0.2356
 8880TIP3    H148131   6.083   3.443  11.428 -1.3127  1.9479 -1.2240
 8880TIP3    H248132   6.230   3.478  11.415 -0.3247 -1.0636  0.6688
 8881TIP3   OH248133   4.020   3.772  10.169 -0.1895  0.3454  0.0955
 8881TIP3    H148134   4.101   3.732  10.199 -0.2831  0.7113  0.8521
 8881TIP3    H248135   3.955   3.750  10.235  0.1786  3.2879  1.6123
 8882TIP3   OH248136   1.138   3.182   3.983  0.1068 -0.2263 -0.2367
 8882TIP3    H148137   1.070   3.116   3.965 -0.1957 -0.3824  1.3494
 8882TIP3    H248138   1.212   3.155   3.929 -0.2981 -1.4108 -0.2314
 8883TIP3   OH248139   4.982   0.425   4.017  0.1010  0.5093 -0.1989
 8883TIP3    H148140   4.886   0.416   4.020  0.1534  0.2426  1.7775
 8883TIP3    H248141   4.996   0.519   4.024  0.0011  0.4174  1.4891
 8884TIP3   OH248142   5.630   0.790  15.641  0.2614 -0.5381 -0.4246
 8884TIP3    H148143   5.701   0.725  15.640  0.5742 -0.2071 -0.0866
 8884TIP3    H248144   5.647   0.844  15.564 -0.3676 -1.2354 -1.0744
 8885TIP3   OH248145   5.064   6.169   1.494 -0.1599  0.2173 -0.0760
 8885TIP3    H148146   4.976   6.160   1.533 -0.7333 -0.2013 -1.3938
 8885TIP3    H248147   5.084   6.081   1.462  0.8575  0.2601  0.4197
 8886TIP3   OH248148   3.756   6.579   4.074 -0.2765  0.0135  0.1174
 8886TIP3    H148149   3.705   6.571   3.994  0.1067  1.3563 -0.2761
 8886TIP3    H248150   3.701   6.538   4.141 -0.1070 -2.1562 -0.9962
 8887TIP3   OH248151   2.001   2.498  10.811 -0.1513 -0.0667 -0.3726
 8887TIP3    H148152   1.935   2.565  10.796  0.5197  0.4710 -0.9701
 8887TIP3    H248153   1.951   2.421  10.839 -1.0059  0.4088 -0.5683
 8888TIP3   OH248154   1.911   2.185   5.401 -0.5396  0.4343 -0.3896
 8888TIP3    H148155   1.849   2.113   5.388 -0.5498  0.3995 -0.1382
 8888TIP3    H248156   1.985   2.162   5.345 -0.7483  0.4751 -0.6911
 8889TIP3   OH248157   2.686   6.731  16.311  0.1716 -0.0751 -0.4110
 8889TIP3    H148158   2.747   6.801  16.337 -2.2403  1.5057  1.3940
 8889TIP3    H248159   2.710   6.711  16.220  2.4174  1.4542 -0.2439
 8890TIP3   OH248160   1.590   3.889  11.930 -0.1333  0.1785  0.2396
 8890TIP3    H148161   1.640   3.886  11.849 -1.5112  1.8186 -0.7483
 8890TIP3    H248162   1.625   3.965  11.977  0.8700 -0.9443  1.3788
 8891TIP3   OH248163   3.660   0.717   3.561 -0.6330  0.6245  0.1480
 8891TIP3    H148164   3.650   0.790   3.621 -1.9693  0.0878  0.6198
 8891TIP3    H248165   3.593   0.732   3.494 -2.1093 -0.9604  1.1492
 8892TIP3   OH248166   5.374   4.234   5.432 -0.1964 -0.0379  0.0758
 8892TIP3    H148167   5.413   4.228   5.345  0.6141  2.0185  0.2457
 8892TIP3    H248168   5.352   4.143   5.454 -0.1769 -0.6390 -2.1320
 8893TIP3   OH248169   5.449   0.696  14.355  0.0764 -0.1967  0.2229
 8893TIP3    H148170   5.374   0.742  14.393  1.0012 -0.2027  2.1779
 8893TIP3    H248171   5.497   0.763  14.307  0.4182  0.4933  1.4921
 8894TIP3   OH248172   1.047   2.567  14.206  0.1497  0.6064 -0.3350
 8894TIP3    H148173   1.083   2.599  14.124  1.6972 -0.4990 -0.1212
 8894TIP3    H248174   1.045   2.472  14.196 -1.5872  0.5408  0.1544
 8895TIP3   OH248175   6.625   1.804   2.225 -0.5449 -0.0584 -0.2000
 8895TIP3    H148176   6.583   1.890   2.224 -0.0959  0.2015  1.3275
 8895TIP3    H248177   6.597   1.763   2.143 -1.0026  1.4213 -0.8153
 8896TIP3   OH248178   4.118   0.200   4.166  0.1777 -0.6497  0.3346
 8896TIP3    H148179   4.037   0.183   4.213  0.0412 -0.1768  0.2689
 8896TIP3    H248180   4.092   0.202   4.074 -0.0607  1.2633  0.4020
 8897TIP3   OH248181   0.336   2.412   3.458  0.2898 -0.1048  0.3081
 8897TIP3    H148182   0.297   2.469   3.391 -0.1141 -0.4244  0.2706
 8897TIP3    H248183   0.366   2.335   3.410  1.5153  0.3908  0.2439
 8898TIP3   OH248184   5.198   2.621   6.295  0.3154  0.2660  0.5442
 8898TIP3    H148185   5.288   2.635   6.264  0.2983 -1.6459 -0.4629
 8898TIP3    H248186   5.203   2.542   6.349 -0.8565 -0.1903  0.0074
 8899TIP3   OH248187   0.409   6.644  14.899  0.0929  0.0404 -0.7149
 8899TIP3    H148188   0.393   6.727  14.945  1.1926  0.2807 -0.7232
 8899TIP3    H248189   0.329   6.594  14.911 -0.3949  0.8978 -0.2507
 8900TIP3   OH248190   0.106   6.233  13.386 -0.2420 -0.3563  0.4686
 8900TIP3    H148191   0.017   6.206  13.364 -1.0128 -0.0259  2.9613
 8900TIP3    H248192   0.152   6.151  13.404  1.1035 -0.9010 -4.0997
 8901TIP3   OH248193   3.212   0.200   5.952  1.3352  0.1448  0.8498
 8901TIP3    H148194   3.262   0.148   6.016  0.3348 -1.5013  0.3567
 8901TIP3    H248195   3.125   0.208   5.991  0.8212 -0.5623 -0.1100
 8902TIP3   OH248196   6.313   2.925  15.845 -0.0293  0.1593 -0.2236
 8902TIP3    H148197   6.254   2.865  15.891  0.4300 -0.8760 -0.9491
 8902TIP3    H248198   6.260   3.003  15.829 -1.6296 -1.1971 -1.9128
 8903TIP3   OH248199   4.625   1.928  12.416 -0.3737 -0.4231 -0.9479
 8903TIP3    H148200   4.586   2.012  12.394 -1.6490 -0.6371  0.3341
 8903TIP3    H248201   4.609   1.873  12.339 -1.1814 -0.0166 -1.0780
 8904TIP3   OH248202   6.399   5.604  10.786 -0.5490  0.0154 -0.4761
 8904TIP3    H148203   6.371   5.626  10.697 -1.4161  0.1016 -0.1928
 8904TIP3    H248204   6.374   5.680  10.839 -1.0474 -0.4896  0.0299
 8905TIP3   OH248205   5.442   3.497  11.485 -0.4538 -0.2508 -0.0683
 8905TIP3    H148206   5.377   3.542  11.431  0.2020  0.2572 -0.4495
 8905TIP3    H248207   5.526   3.528  11.452 -0.0315  0.4738  1.6082
 8906TIP3   OH248208   5.392   5.502  13.463 -0.4063  0.7835  0.5203
 8906TIP3    H148209   5.442   5.575  13.501 -1.2302  0.9937  1.2306
 8906TIP3    H248210   5.314   5.543  13.425  0.0147  0.4771 -0.7314
 8907TIP3   OH248211   0.254   6.614   4.987 -0.0803 -0.2422 -0.2206
 8907TIP3    H148212   0.246   6.566   5.070 -0.5340 -0.1587 -0.2165
 8907TIP3    H248213   0.193   6.570   4.928 -0.0530 -0.0452 -0.3958
 8908TIP3   OH248214   6.720   2.888  11.699 -0.0473  0.0303 -0.1621
 8908TIP3    H148215   6.630   2.865  11.678 -0.5573  0.6274  1.2566
 8908TIP3    H248216   6.760   2.908  11.614 -0.5357 -2.5414 -1.0855
 8909TIP3   OH248217   6.779   5.553   4.784 -0.3704  0.1226  0.0078
 8909TIP3    H148218   6.767   5.568   4.690 -2.7374  2.3419  0.5269
 8909TIP3    H248219   6.818   5.634   4.817  1.1422 -0.9052  0.8933
 8910TIP3   OH248220   0.002   1.218   0.901 -0.0729  0.7267  0.0953
 8910TIP3    H148221   0.043   1.143   0.945  0.3922  0.3463 -0.9590
 8910TIP3    H248222  -0.025   1.275   0.973  1.4051  0.5125  0.8716
 8911TIP3   OH248223   2.421   0.647  14.659 -0.0238  0.5867 -0.2157
 8911TIP3    H148224   2.370   0.726  14.642 -0.2639  0.5618  0.3696
 8911TIP3    H248225   2.512   0.676  14.654 -0.1052  0.8085 -0.4302
 8912TIP3   OH248226   5.407   4.654   1.405  0.1687 -0.1428  0.2270
 8912TIP3    H148227   5.321   4.651   1.447 -0.8427 -0.4715 -1.7345
 8912TIP3    H248228   5.469   4.657   1.477 -1.4476 -0.9944  1.7276
 8913TIP3   OH248229   3.152   3.616  12.606  0.0141 -0.4572  0.4445
 8913TIP3    H148230   3.173   3.694  12.555  0.2091  0.7159  2.2290
 8913TIP3    H248231   3.193   3.631  12.691 -1.6297 -1.5964  1.5032
 8914TIP3   OH248232   4.804   4.541  14.715 -0.3693 -0.1615  0.0682
 8914TIP3    H148233   4.802   4.630  14.680 -0.4705  0.4115  1.4826
 8914TIP3    H248234   4.897   4.521  14.725 -0.3421 -0.2957 -0.4195
 8915TIP3   OH248235   3.782   5.044   2.132 -0.3806  0.2254  0.0692
 8915TIP3    H148236   3.744   5.088   2.056 -0.3883  2.1594  1.1457
 8915TIP3    H248237   3.782   4.951   2.108 -0.9932  0.7162 -2.0089
 8916TIP3   OH248238   0.310   0.288  12.155 -0.0512  0.9439 -0.2085
 8916TIP3    H148239   0.384   0.234  12.183 -1.4759 -0.3042  1.3503
 8916TIP3    H248240   0.308   0.360  12.218  1.3960  2.4865 -1.8445
 8917TIP3   OH248241   5.933   5.447  13.046  0.1119 -0.3853 -0.1355
 8917TIP3    H148242   5.882   5.517  13.005  2.4983  1.6028  0.0529
 8917TIP3    H248243   5.891   5.366  13.017 -2.5574  1.0813 -0.6583
 8918TIP3   OH248244   0.010   1.461   4.327  0.1370 -0.6731  0.2213
 8918TIP3    H148245  -0.001   1.554   4.310  1.6036 -0.7228 -1.2257
 8918TIP3    H248246  -0.054   1.441   4.395 -1.3712  1.0343 -0.6136
 8919TIP3   OH248247   4.317   4.293  15.635 -0.1278  0.7760 -0.1401
 8919TIP3    H148248   4.236   4.326  15.596 -0.9480 -0.4374  0.4584
 8919TIP3    H248249   4.352   4.367  15.684 -1.1875  1.1531  0.0783
 8920TIP3   OH248250   2.502   5.980   0.342 -0.3559  0.2355  0.3815
 8920TIP3    H148251   2.442   5.981   0.267  0.5856 -2.0223 -0.5068
 8920TIP3    H248252   2.514   6.072   0.364 -5.8743  0.8710  2.1611
 8921TIP3   OH248253   0.122   0.982   1.754  0.2286 -1.4481  0.3456
 8921TIP3    H148254   0.212   1.011   1.771 -0.2403 -0.0343  0.6213
 8921TIP3    H248255   0.123   0.952   1.664  0.7147 -0.2209 -0.0791
 8922TIP3   OH248256   0.992   4.853   1.469  0.1062  0.1580 -0.0027
 8922TIP3    H148257   1.030   4.773   1.507  0.0338 -0.4596 -1.1938
 8922TIP3    H248258   0.937   4.888   1.539 -1.2406 -1.7869  0.0121
 8923TIP3   OH248259   4.737   4.331   4.295  0.6427 -0.3549  0.0622
 8923TIP3    H148260   4.668   4.264   4.293  0.0549  0.1359  2.0884
 8923TIP3    H248261   4.798   4.301   4.362  1.4428  0.1570 -0.4216
 8924TIP3   OH248262   0.137   2.143  15.621  0.2930  0.1241 -0.1882
 8924TIP3    H148263   0.225   2.107  15.633  0.9065  1.0938 -1.5430
 8924TIP3    H248264   0.145   2.234  15.647 -0.9156 -0.3088  1.8849
 8925TIP3   OH248265   5.400   5.057  12.355 -0.1620 -0.4299  0.1089
 8925TIP3    H148266   5.379   5.139  12.400  0.6323 -0.6615  0.9192
 8925TIP3    H248267   5.428   5.084  12.267  1.2980  0.2695  0.7701
 8926TIP3   OH248268   0.570   1.314  16.118 -0.2908 -0.1359 -0.4383
 8926TIP3    H148269   0.560   1.233  16.069  1.5101 -0.1038 -0.9285
 8926TIP3    H248270   0.572   1.382  16.050 -0.2753  0.1651 -0.1375
 8927TIP3   OH248271   3.438   2.854  12.865 -0.9931 -0.8072 -0.6321
 8927TIP3    H148272   3.482   2.936  12.884 -1.8506 -0.3929 -0.4039
 8927TIP3    H248273   3.393   2.831  12.946 -1.4944 -1.0368 -0.9709
 8928TIP3   OH248274   0.773   6.588   6.316  0.3541  0.3678  0.1478
 8928TIP3    H148275   0.762   6.682   6.308  0.4161  0.5641  1.9105
 8928TIP3    H248276   0.686   6.556   6.343  1.0849  0.4201  2.8757
 8929TIP3   OH248277   6.154   5.159  15.436 -0.1573  0.2095 -0.0684
 8929TIP3    H148278   6.212   5.155  15.512  0.9036  0.3347 -0.8611
 8929TIP3    H248279   6.212   5.175  15.362 -1.1601 -0.1033 -0.9404
 8930TIP3   OH248280   1.451   1.471  13.481  0.8126 -0.2319 -0.1368
 8930TIP3    H148281   1.482   1.487  13.392  1.1701  2.7299  0.4034
 8930TIP3    H248282   1.530   1.451  13.531  0.8748  0.0341 -0.1284
 8931TIP3   OH248283   3.446   5.062   0.333  0.0825 -0.2355  0.0190
 8931TIP3    H148284   3.476   5.027   0.417 -1.4495 -2.6874 -0.3506
 8931TIP3    H248285   3.401   4.988   0.291  0.2296  1.0939 -2.6846
 8932TIP3   OH248286   6.021   5.614  12.186  1.0416 -0.4358 -0.1325
 8932TIP3    H148287   6.071   5.566  12.252  0.2040  0.8070  1.4801
 8932TIP3    H248288   6.085   5.672  12.145  1.1764  0.3758  1.1711
 8933TIP3   OH248289   4.562   5.155  13.947 -0.5437 -0.8855  0.2802
 8933TIP3    H148290   4.469   5.177  13.946 -0.3951 -0.2102  0.7394
 8933TIP3    H248291   4.601   5.217  14.008  0.8622  1.4356 -2.7530
 8934TIP3   OH248292   6.578   4.838   0.522 -0.2113 -0.1316 -0.2985
 8934TIP3    H148293   6.565   4.871   0.433 -0.1325 -0.1163 -0.3044
 8934TIP3    H248294   6.569   4.743   0.514  0.0984 -0.1547 -0.3753
 8935TIP3   OH248295   2.936   4.001   5.573  0.1036  0.3232 -0.0539
 8935TIP3    H148296   2.842   3.985   5.565  0.2816 -1.2602  0.7096
 8935TIP3    H248297   2.968   3.998   5.483 -0.7176  2.0784 -0.4506
 8936TIP3   OH248298   6.762   3.023  16.843 -0.0866 -0.3467  0.1601
 8936TIP3    H148299   6.838   3.052  16.895 -0.6437  1.7105 -0.0618
 8936TIP3    H248300   6.799   2.964  16.778  1.3604  0.6316  0.0300
 8937TIP3   OH248301   5.695   2.908  12.559  0.2781 -0.5552 -0.1146
 8937TIP3    H148302   5.662   2.984  12.606  3.8979  2.4778 -1.9245
 8937TIP3    H248303   5.732   2.852  12.627 -0.9087  0.1052  1.1236
 8938TIP3   OH248304   4.526   3.847  14.585 -0.6213  0.3818 -0.0992
 8938TIP3    H148305   4.521   3.914  14.517 -1.5030 -0.7829 -1.2162
 8938TIP3    H248306   4.436   3.835  14.614 -0.3480  0.3337  0.7593
 8939TIP3   OH248307   0.486   2.140  14.614  0.0029 -0.0667  0.0585
 8939TIP3    H148308   0.576   2.173  14.624  0.1119  0.1147 -1.3749
 8939TIP3    H248309   0.457   2.125  14.704  0.3886  2.7964  0.7798
 8940TIP3   OH248310   4.217   1.860   0.506 -0.0577  0.3312  0.1099
 8940TIP3    H148311   4.185   1.782   0.551  0.2494  0.4606  0.5567
 8940TIP3    H248312   4.158   1.870   0.431 -0.8554  0.3710  0.7287
 8941TIP3   OH248313   5.129   6.201   3.042  0.4679 -0.2789  0.7673
 8941TIP3    H148314   5.148   6.148   3.120 -0.7511 -0.1863  1.1509
 8941TIP3    H248315   5.132   6.138   2.970  2.1550 -0.2651  0.7897
 8942TIP3   OH248316   6.378   0.481   5.163 -0.0230  0.4190  0.3467
 8942TIP3    H148317   6.309   0.436   5.115  0.9011  1.3551 -2.0552
 8942TIP3    H248318   6.344   0.569   5.178  0.4906  0.8102 -0.6367
 8943TIP3   OH248319   6.337   6.358   2.896 -0.1612 -1.2140 -0.2317
 8943TIP3    H148320   6.322   6.447   2.927  1.3659 -1.0746  0.1905
 8943TIP3    H248321   6.291   6.354   2.812  0.0498  0.1023 -0.4305
 8944TIP3   OH248322   2.331   4.633  16.553 -0.8251  0.0918  0.2267
 8944TIP3    H148323   2.393   4.566  16.524 -1.2211 -0.6235  0.9775
 8944TIP3    H248324   2.269   4.642  16.481 -1.1750 -0.8751  0.3939
 8945TIP3   OH248325   6.805   0.842   6.861  0.0844  0.4076  0.2308
 8945TIP3    H148326   6.898   0.820   6.871  0.2378  0.9645  0.0667
 8945TIP3    H248327   6.799   0.879   6.773 -0.2154  0.7509  0.3938
 8946TIP3   OH248328   2.320   5.380   2.793 -0.0016  0.1812  0.1433
 8946TIP3    H148329   2.328   5.475   2.787 -0.1444  0.1358 -1.0161
 8946TIP3    H248330   2.261   5.356   2.722  0.0826 -0.7810  0.3777
 8947TIP3   OH248331   3.319   2.341   5.849 -0.2319  0.4197  0.2011
 8947TIP3    H148332   3.396   2.333   5.793  0.0901  0.1715  0.6649
 8947TIP3    H248333   3.247   2.361   5.790  0.0125 -0.3048 -0.3446
 8948TIP3   OH248334   2.927   3.876  11.358 -0.8956  0.2254  0.2447
 8948TIP3    H148335   2.920   3.786  11.326  1.0117  0.6352 -1.5104
 8948TIP3    H248336   2.892   3.929  11.287  0.9535  1.0209 -0.1128
 8949TIP3   OH248337   2.038   1.326   4.377  0.2095  0.2182 -0.0881
 8949TIP3    H148338   2.054   1.416   4.349  2.1041 -0.6326 -1.9580
 8949TIP3    H248339   2.032   1.332   4.473  1.6053  2.1535 -0.0598
 8950TIP3   OH248340   3.041   0.911   4.516 -0.1174  0.1373 -0.0195
 8950TIP3    H148341   2.976   0.879   4.454  0.4345  0.0420 -0.5596
 8950TIP3    H248342   3.122   0.915   4.466  0.5649 -0.9044  0.9592
 8951TIP3   OH248343   4.170   4.370   0.184  0.0195 -0.3681  0.4551
 8951TIP3    H148344   4.205   4.347   0.270  1.5313  0.4950  0.1038
 8951TIP3    H248345   4.123   4.452   0.199 -0.2863 -0.5592  0.5667
 8952TIP3   OH248346   6.318   4.216   4.032  0.1807  0.7321  0.1221
 8952TIP3    H148347   6.236   4.198   4.077 -0.0519  0.5698 -0.3547
 8952TIP3    H248348   6.339   4.306   4.055 -0.7526  1.1721 -0.6825
 8953TIP3   OH248349   4.445   1.926   4.309 -0.2541  0.3724  0.2144
 8953TIP3    H148350   4.486   1.967   4.385  0.2047 -0.2235  0.2926
 8953TIP3    H248351   4.439   1.996   4.244  1.3709  0.3469  0.0089
 8954TIP3   OH248352   6.564   4.260  14.575  0.0958  0.1676  0.2958
 8954TIP3    H148353   6.482   4.309  14.577 -0.4510 -0.7112  2.0110
 8954TIP3    H248354   6.613   4.296  14.502 -1.3841  1.4384 -0.1036
 8955TIP3   OH248355   2.375   6.259  11.505 -0.2329  0.5138 -0.1407
 8955TIP3    H148356   2.438   6.188  11.517  2.2849  2.7680  1.1806
 8955TIP3    H248357   2.344   6.250  11.415  0.2808 -1.9656 -0.1242
 8956TIP3   OH248358   5.006   1.737  16.695 -0.1231  0.1283 -0.7339
 8956TIP3    H148359   5.048   1.808  16.744  0.1332 -0.2579 -0.3857
 8956TIP3    H248360   4.913   1.758  16.696 -0.0394  0.4936 -0.6897
 8957TIP3   OH248361   0.979   1.677   1.418  0.0646  0.0757 -0.0331
 8957TIP3    H148362   0.995   1.611   1.351  2.0362 -0.5442  0.9752
 8957TIP3    H248363   0.888   1.664   1.444 -0.7688  0.3451 -2.5447
 8958TIP3   OH248364   2.019   6.594  14.949  0.1874  0.2729 -0.7795
 8958TIP3    H148365   1.928   6.624  14.945  0.0192 -0.1112 -0.0575
 8958TIP3    H248366   2.063   6.656  15.006  0.6020  0.9640 -1.8168
 8959TIP3   OH248367   4.129   5.875   0.963 -0.2867 -0.7214  0.5087
 8959TIP3    H148368   4.035   5.880   0.944  0.3036 -0.4526 -2.9843
 8959TIP3    H248369   4.152   5.784   0.944 -0.0169 -1.2287  2.9132
 8960TIP3   OH248370   0.963   1.412  14.718 -0.1308 -0.5303 -0.3366
 8960TIP3    H148371   1.010   1.485  14.757 -0.8338 -0.7222  0.9326
 8960TIP3    H248372   0.898   1.452  14.661 -2.1950  0.0406  2.2128
 8961TIP3   OH248373   5.496   6.202   1.749 -0.0532 -0.6778  0.1448
 8961TIP3    H148374   5.441   6.255   1.691  0.9176 -0.3188 -0.4820
 8961TIP3    H248375   5.445   6.192   1.829 -0.9629 -0.2469 -0.3655
 8962TIP3   OH248376   6.564   5.733   2.465  0.1526 -0.1890 -0.3403
 8962TIP3    H148377   6.496   5.721   2.399 -0.0904 -2.2160  0.2214
 8962TIP3    H248378   6.638   5.683   2.432 -0.0760 -1.4907  1.0239
 8963TIP3   OH248379   3.585   4.741   1.627  0.6508 -0.0169  0.5009
 8963TIP3    H148380   3.643   4.756   1.553  0.1474  0.9942  0.2953
 8963TIP3    H248381   3.534   4.664   1.603  0.0327  0.6803 -0.5121
 8964TIP3   OH248382   2.934   1.233   5.849 -0.0298 -0.0896 -0.1650
 8964TIP3    H148383   2.946   1.173   5.923 -0.3786 -2.3851 -1.8465
 8964TIP3    H248384   2.847   1.213   5.815  0.0550  1.0099 -1.1126
 8965TIP3   OH248385   5.275   2.741  16.685  0.0218  0.7512  0.0848
 8965TIP3    H148386   5.321   2.798  16.746  0.2401  1.1145 -0.4140
 8965TIP3    H248387   5.327   2.661  16.682  0.0396  0.7522  0.3282
 8966TIP3   OH248388   4.692   5.802   1.686 -0.0640  0.1808  0.4549
 8966TIP3    H148389   4.604   5.770   1.667  0.5930 -0.4840 -1.8050
 8966TIP3    H248390   4.750   5.734   1.652  1.3318  0.9791  1.1649
 8967TIP3   OH248391   0.390   0.999  15.752 -0.0822  0.1128 -0.4951
 8967TIP3    H148392   0.446   1.001  15.674  1.7472  0.1038  0.7664
 8967TIP3    H248393   0.328   0.928  15.734  0.9077 -0.5245 -1.5558
 8968TIP3   OH248394   4.879   5.478  14.380  0.1776  0.3168  0.7694
 8968TIP3    H148395   4.842   5.515  14.300  1.4913 -0.1364 -0.0871
 8968TIP3    H248396   4.961   5.525  14.394  0.7727 -0.7194  0.9123
 8969TIP3   OH248397   6.239   0.629   2.786 -0.0537 -0.2039 -0.5973
 8969TIP3    H148398   6.151   0.605   2.814  0.9035 -1.6434  1.3508
 8969TIP3    H248399   6.239   0.725   2.789 -1.3926 -0.1935 -0.1344
 8970TIP3   OH248400   2.432   5.619   5.932  0.5135  0.6337  0.2364
 8970TIP3    H148401   2.365   5.616   6.000 -0.6078  0.3242 -0.8377
 8970TIP3    H248402   2.459   5.528   5.921  0.0602  0.5539 -0.3046
 8971TIP3   OH248403   0.767   2.397  17.183  0.6998  0.1966  0.6247
 8971TIP3    H148404   0.830   2.389  17.111 -0.8642 -0.5002 -0.7387
 8971TIP3    H248405   0.807   2.350  17.256  2.4856  1.2290  0.3465
 8972TIP3   OH248406   5.476   6.720   1.964  0.0947  0.6638 -0.2808
 8972TIP3    H148407   5.416   6.725   1.889 -0.3865 -1.1892 -0.0820
 8972TIP3    H248408   5.419   6.698   2.038  1.0114 -1.5071 -0.1500
 8973TIP3   OH248409   2.822   4.728  12.483 -0.1187 -0.4420  0.2085
 8973TIP3    H148410   2.786   4.805  12.439 -2.0803 -0.0942  2.2123
 8973TIP3    H248411   2.908   4.715  12.443  0.5406  3.1059  0.1238
 8974TIP3   OH248412   5.912   2.507  16.459 -0.3597  0.8835  0.0294
 8974TIP3    H148413   5.930   2.464  16.543 -0.0199  0.1773 -0.3901
 8974TIP3    H248414   5.939   2.598  16.472 -0.6972  0.8869  0.8086
 8975TIP3   OH248415   0.331   2.842   2.558  0.0154  0.3653 -0.3517
 8975TIP3    H148416   0.397   2.802   2.614 -1.2442  0.2441  1.0906
 8975TIP3    H248417   0.368   2.835   2.469  1.7752  0.0304  0.3666
 8976TIP3   OH248418   4.841   1.546   4.869  0.1764 -0.0508  0.5599
 8976TIP3    H148419   4.783   1.619   4.849 -0.8410 -0.6808  1.1565
 8976TIP3    H248420   4.822   1.523   4.960  0.6578 -0.9009  0.4649
 8977TIP3   OH248421   3.856   2.854  12.043  0.0156 -0.3459  0.1394
 8977TIP3    H148422   3.931   2.822  12.093  0.7429 -0.1877 -0.8224
 8977TIP3    H248423   3.781   2.840  12.100  0.9102  0.5941  1.6114
 8978TIP3   OH248424   2.095   3.183   6.294 -0.2773 -0.1616  0.5514
 8978TIP3    H148425   2.047   3.143   6.366 -0.8024  1.8265  1.3791
 8978TIP3    H248426   2.028   3.228   6.242  0.1333 -1.2726 -1.0222
 8979TIP3   OH248427   2.970   3.131  11.648  0.5365 -1.1039  0.2038
 8979TIP3    H148428   2.937   3.056  11.597 -0.3925 -1.3030  1.0594
 8979TIP3    H248429   2.943   3.112  11.738  1.5373 -0.4177  0.6647
 8980TIP3   OH248430   0.778   5.907   4.831  0.0337 -0.0627  0.1694
 8980TIP3    H148431   0.815   5.963   4.762  0.8682 -0.9108 -0.0921
 8980TIP3    H248432   0.690   5.885   4.799 -0.2911  1.0173  0.2475
 8981TIP3   OH248433   5.477   6.309   0.954 -0.1159 -0.0779 -0.0056
 8981TIP3    H148434   5.527   6.376   0.999 -0.2898  0.6828 -0.9119
 8981TIP3    H248435   5.426   6.357   0.889  0.5389 -1.1853 -1.3906
 8982TIP3   OH248436   0.478   1.069   6.209 -0.2551  0.9365  0.0886
 8982TIP3    H148437   0.447   1.156   6.232 -1.2098  0.4496  0.7146
 8982TIP3    H248438   0.399   1.015   6.207  0.2337  0.2245 -0.9765
 8983TIP3   OH248439   2.625   5.739  16.429 -0.0072  0.1947  0.9340
 8983TIP3    H148440   2.714   5.748  16.462 -0.2614 -1.6948  2.2909
 8983TIP3    H248441   2.575   5.705  16.503 -1.7928  0.8622  0.0923
 8984TIP3   OH248442   5.172   3.221   4.582 -0.3068 -0.6265  0.2158
 8984TIP3    H148443   5.191   3.217   4.489  0.9259 -0.9799  0.4653
 8984TIP3    H248444   5.244   3.175   4.624 -1.4997 -1.6234  1.2728
 8985TIP3   OH248445   5.356   5.022   4.764  1.0089  0.1240  0.4673
 8985TIP3    H148446   5.284   5.051   4.708  1.8036 -1.0058 -1.2383
 8985TIP3    H248447   5.314   5.000   4.847 -1.0542 -2.3885 -1.0614
 8986TIP3   OH248448   3.276   3.025   2.264  0.0051  0.0295  0.0296
 8986TIP3    H148449   3.322   2.993   2.341  2.0363  0.0283 -1.1111
 8986TIP3    H248450   3.269   3.120   2.277 -0.9893 -0.1465  0.8613
 8987TIP3   OH248451   2.162   3.193   4.797  0.2564 -0.1166  0.4449
 8987TIP3    H148452   2.082   3.182   4.848 -0.6149  1.2280 -0.5417
 8987TIP3    H248453   2.223   3.238   4.856  0.5456 -1.7072  1.4094
 8988TIP3   OH248454   6.199   6.745  12.694 -0.3331 -0.7610  0.2416
 8988TIP3    H148455   6.165   6.789  12.772  2.4636 -0.5912  1.4809
 8988TIP3    H248456   6.288   6.779  12.685  1.1428 -4.3526 -0.1393
 8989TIP3   OH248457   3.054   1.240  16.927 -0.5389  0.3093 -0.3167
 8989TIP3    H148458   3.007   1.240  17.011  0.4142  1.1588  0.2456
 8989TIP3    H248459   3.083   1.149  16.916 -0.5608  0.2143  0.3494
 8990TIP3   OH248460   5.145   0.380   0.295 -0.4884 -0.2012  0.0682
 8990TIP3    H148461   5.091   0.348   0.367 -1.9716 -1.3105 -1.4447
 8990TIP3    H248462   5.083   0.421   0.235  0.5325 -0.3375 -1.1276
 8991TIP3   OH248463   5.252   3.689  12.601 -0.2080 -0.0332 -0.1999
 8991TIP3    H148464   5.210   3.618  12.648 -0.7009 -0.7331 -1.6286
 8991TIP3    H248465   5.335   3.704  12.647 -0.6125 -0.7456  0.7858
 8992TIP3   OH248466   3.216   3.114  12.445  0.2133 -0.2257 -0.0314
 8992TIP3    H148467   3.207   3.208  12.430 -0.4407 -0.3506 -0.5071
 8992TIP3    H248468   3.137   3.077  12.405 -0.3627 -0.8327  1.5742
 8993TIP3   OH248469   4.151   2.342   2.216 -0.0655  0.3559 -0.2900
 8993TIP3    H148470   4.144   2.276   2.285  0.0111  0.6104 -0.0296
 8993TIP3    H248471   4.215   2.306   2.155  1.0093  0.7685  0.5480
 8994TIP3   OH248472   0.900   2.752   1.109 -0.5190  0.2333 -0.2705
 8994TIP3    H148473   0.882   2.757   1.203  0.5290  1.8959 -0.1246
 8994TIP3    H248474   0.817   2.723   1.070 -1.0298 -0.2768  1.1191
 8995TIP3   OH248475   3.803   5.713  15.612  0.2620  0.6439  0.0479
 8995TIP3    H148476   3.771   5.629  15.645  1.1231  0.6393  0.9174
 8995TIP3    H248477   3.726   5.754  15.573 -0.6402  0.3007  1.3826
 8996TIP3   OH248478   6.763   4.808  13.122 -0.1789 -0.2938 -0.0724
 8996TIP3    H148479   6.733   4.808  13.212  0.7729  1.2658  0.2888
 8996TIP3    H248480   6.846   4.761  13.124  0.9143  1.5454  0.3201
 8997TIP3   OH248481   2.325   6.392  13.810  0.3451 -0.1599  0.2784
 8997TIP3    H148482   2.269   6.337  13.754 -1.4215  1.1496  0.6708
 8997TIP3    H248483   2.305   6.364  13.899 -1.2604  1.6314  0.5447
 8998TIP3   OH248484   5.796   3.349   1.622  0.2291 -0.3801  0.1532
 8998TIP3    H148485   5.853   3.277   1.595  0.7307 -0.3815  1.1650
 8998TIP3    H248486   5.845   3.428   1.598 -0.7780 -0.3160 -1.9292
 8999TIP3   OH248487   6.318   4.795   2.671  0.2660 -0.0957 -0.1115
 8999TIP3    H148488   6.384   4.726   2.662  0.0829 -0.1331 -1.2389
 8999TIP3    H248489   6.338   4.836   2.755  0.2085 -1.6951  0.7358
 9000TIP3   OH248490   4.939   5.677  11.703  0.1138  0.2606 -0.5559
 9000TIP3    H148491   5.022   5.629  11.716  0.0762 -0.0870 -1.5116
 9000TIP3    H248492   4.903   5.640  11.622 -1.8113 -0.7895  0.6931
 9001TIP3   OH248493   1.211   0.351  15.277  0.1255  0.0131 -0.2414
 9001TIP3    H148494   1.164   0.383  15.354  1.0406 -0.4452  0.5253
 9001TIP3    H248495   1.145   0.299  15.229 -0.7381  1.1575 -0.3339
 9002TIP3   OH248496   4.182   4.223  16.330  0.0386  0.2685 -0.5283
 9002TIP3    H148497   4.261   4.239  16.382 -0.6180  0.2891  0.4802
 9002TIP3    H248498   4.147   4.310  16.313  1.1122  0.3920 -2.4328
 9003TIP3   OH248499   6.308   3.779   2.458 -0.3240  0.3147 -0.5953
 9003TIP3    H148500   6.241   3.713   2.474  0.1264 -0.4917 -1.8900
 9003TIP3    H248501   6.259   3.855   2.425 -0.4987 -1.4405 -5.1486
 9004TIP3   OH248502   6.427   0.481  14.254  0.2721  0.1150  0.8099
 9004TIP3    H148503   6.371   0.492  14.177 -0.2943 -0.2356  1.1655
 9004TIP3    H248504   6.482   0.406  14.234  0.9965  0.7824  0.2395
 9005TIP3   OH248505   2.102   1.471   4.906 -0.5295 -0.1530 -1.1133
 9005TIP3    H148506   2.178   1.468   4.964 -1.3047  0.7109 -0.0036
 9005TIP3    H248507   2.030   1.498   4.963 -1.2038  1.3047 -2.5875
 9006TIP3   OH248508   1.889   2.540   5.018 -0.2457  0.1872 -0.2930
 9006TIP3    H148509   1.900   2.464   4.961 -0.0904  0.5522 -0.7522
 9006TIP3    H248510   1.844   2.505   5.095 -0.8682 -0.2269 -0.8269
 9007TIP3   OH248511   0.829   2.524   0.221  0.2739  0.0158 -0.2306
 9007TIP3    H148512   0.903   2.556   0.169  0.4217 -1.3010 -0.8569
 9007TIP3    H248513   0.830   2.429   0.210 -1.9931  0.0117 -0.9040
 9008TIP3   OH248514   3.082   4.517  16.919  0.0415  0.3272 -0.0734
 9008TIP3    H148515   3.176   4.519  16.901 -0.0545 -0.5797 -0.7184
 9008TIP3    H248516   3.042   4.555  16.841 -0.1668 -0.0941 -0.1771
 9009TIP3   OH248517   4.702   3.174   2.038 -0.0728 -0.3539 -0.7062
 9009TIP3    H148518   4.620   3.224   2.032 -0.1981 -0.3996  0.4051
 9009TIP3    H248519   4.679   3.086   2.007 -0.2872 -0.2048 -0.9813
 9010TIP3   OH248520   3.768   0.930   0.465 -0.1977  0.3666  0.6015
 9010TIP3    H148521   3.743   0.994   0.397  0.0287 -0.4604 -0.2764
 9010TIP3    H248522   3.692   0.872   0.472  0.4147 -0.5491 -0.1550
 9011TIP3   OH248523   3.853   5.924   1.785  0.2580 -0.6116  0.0755
 9011TIP3    H148524   3.782   5.874   1.824  0.3923 -0.8442  0.0220
 9011TIP3    H248525   3.890   5.866   1.718 -0.5863  0.1403 -1.0725
 9012TIP3   OH248526   1.386   2.472   4.937 -0.8923 -0.6747 -0.6543
 9012TIP3    H148527   1.442   2.419   4.880  0.1804  0.3899 -0.6299
 9012TIP3    H248528   1.447   2.510   5.001 -1.6413  0.5564 -0.6561
 9013TIP3   OH248529   1.287   2.523   3.880 -0.2942 -0.4392  0.1878
 9013TIP3    H148530   1.285   2.596   3.818 -1.5829 -0.2099  0.4841
 9013TIP3    H248531   1.371   2.533   3.925  1.3450 -1.4304 -2.4313
 9014TIP3   OH248532   1.888   6.520  15.797 -0.1345 -0.3177 -0.1582
 9014TIP3    H148533   1.831   6.537  15.721 -2.5470 -1.8015  1.1949
 9014TIP3    H248534   1.958   6.465  15.763 -0.2625  0.3619 -1.6020
 9015TIP3   OH248535   5.390   3.256   3.496 -0.1042 -0.1626 -0.2672
 9015TIP3    H148536   5.392   3.350   3.514 -1.4665 -0.1628  0.0437
 9015TIP3    H248537   5.430   3.216   3.573  1.4758  0.2002 -0.8795
 9016TIP3   OH248538   2.096   2.588  16.209 -0.3137 -0.1924  0.0574
 9016TIP3    H148539   2.022   2.629  16.253 -0.0874  0.3922 -0.1067
 9016TIP3    H248540   2.057   2.520  16.154 -0.6843 -0.2045  0.3350
 9017TIP3   OH248541   5.634   3.262  11.824  0.2656 -0.1091  0.4669
 9017TIP3    H148542   5.677   3.325  11.882  1.4669  0.0677 -0.5699
 9017TIP3    H248543   5.676   3.276  11.739  0.5310 -2.2571  0.1951
 9018TIP3   OH248544   2.176   3.790   2.433 -0.2883 -0.6690 -0.6332
 9018TIP3    H148545   2.208   3.791   2.523  0.5209 -0.3904 -0.9151
 9018TIP3    H248546   2.093   3.837   2.437  1.0264  1.8531 -0.4710
 9019TIP3   OH248547   3.873   4.802  12.863 -0.1138  0.5019  0.2920
 9019TIP3    H148548   3.914   4.827  12.780  0.7182 -0.4535  0.3950
 9019TIP3    H248549   3.779   4.801  12.845 -0.0247  1.4631 -0.3046
 9020TIP3   OH248550   3.094   1.921   0.591 -0.6770 -0.2189  0.4712
 9020TIP3    H148551   3.040   1.881   0.658  1.2875 -1.7286  1.2850
 9020TIP3    H248552   3.150   1.983   0.638 -0.8548  0.4191 -0.1425
 9021TIP3   OH248553   3.353   4.804  11.469 -0.5281 -0.0329  0.2177
 9021TIP3    H148554   3.428   4.815  11.526  1.3186  2.0170 -2.3738
 9021TIP3    H248555   3.343   4.888  11.424 -2.5877 -1.1181 -1.6191
 9022TIP3   OH248556   5.654   1.882  13.026  0.0079 -0.1739 -0.2053
 9022TIP3    H148557   5.590   1.935  13.072  0.0234 -0.7922  0.5424
 9022TIP3    H248558   5.602   1.816  12.979  0.0796 -0.5235  0.2041
 9023TIP3   OH248559   0.048   2.005   6.465 -0.0455  0.3960  0.4154
 9023TIP3    H148560   0.118   1.951   6.503  0.0410 -0.6242 -1.0978
 9023TIP3    H248561   0.094   2.079   6.425  0.1929 -0.2096 -0.4695
 9024TIP3   OH248562   5.286   6.553  12.824  0.2459 -0.8356 -0.2413
 9024TIP3    H148563   5.258   6.483  12.766 -1.4196 -0.3200 -0.0980
 9024TIP3    H248564   5.346   6.511  12.886  0.8411 -1.6936 -1.3803
 9025TIP3   OH248565   4.383   3.578   5.346  0.0817 -0.4416  0.0803
 9025TIP3    H148566   4.395   3.637   5.421  0.6714  1.3031 -1.3270
 9025TIP3    H248567   4.355   3.635   5.275  2.6355 -1.4919 -1.9237
 9026TIP3   OH248568   0.683   1.917  13.097  0.1768  0.0772  0.1032
 9026TIP3    H148569   0.620   1.879  13.159 -0.1572 -0.8793 -0.8067
 9026TIP3    H248570   0.763   1.929  13.149 -0.3903  0.2356  0.9713
 9027TIP3   OH248571   6.612   1.784  13.769  0.3955  0.1138  0.0749
 9027TIP3    H148572   6.648   1.750  13.687 -0.9997  1.1671 -1.0128
 9027TIP3    H248573   6.539   1.839  13.743 -0.0391  0.5549  2.0379
 9028TIP3   OH248574   5.891   3.058  16.591 -0.9494 -0.7568 -0.1313
 9028TIP3    H148575   5.965   3.113  16.616 -0.5584 -1.5429  0.4707
 9028TIP3    H248576   5.856   3.100  16.512  0.3777 -0.5947 -0.6633
 9029TIP3   OH248577   6.065   5.927  15.805  0.0984 -0.2816 -0.6063
 9029TIP3    H148578   5.982   5.973  15.820 -0.7061 -1.5693 -0.9141
 9029TIP3    H248579   6.085   5.885  15.888  1.2769  1.2660 -0.0724
 9030TIP3   OH248580   0.157   4.316   2.479 -0.3156  0.9263 -0.0339
 9030TIP3    H148581   0.212   4.394   2.473  1.2931 -0.0382  1.0789
 9030TIP3    H248582   0.217   4.244   2.455 -0.1324 -0.4966  4.0325
 9031TIP3   OH248583   6.724   4.224   2.030 -0.3669  0.4077 -0.5502
 9031TIP3    H148584   6.805   4.188   2.066  0.6412  1.8842 -1.2221
 9031TIP3    H248585   6.749   4.256   1.943 -0.9459  3.2629  0.2163
 9032TIP3   OH248586   0.792   4.830  10.872  0.6106  0.0492 -0.2485
 9032TIP3    H148587   0.774   4.906  10.817  1.1280  0.9078  0.7368
 9032TIP3    H248588   0.706   4.804  10.906  0.2751 -0.5488 -1.5007
 9033TIP3   OH248589   1.401   5.241  15.868 -0.1779  0.3487 -0.1483
 9033TIP3    H148590   1.483   5.193  15.885 -0.2592  0.2093 -0.1518
 9033TIP3    H248591   1.343   5.176  15.828 -0.0287  0.6523 -0.8640
 9034TIP3   OH248592   4.753   1.534   1.287 -0.8428  0.2095  0.2535
 9034TIP3    H148593   4.712   1.595   1.226 -0.1527 -0.3553 -0.8016
 9034TIP3    H248594   4.681   1.477   1.316 -1.3152  0.9477  0.5624
 9035TIP3   OH248595   3.594   4.181   1.690  0.0496  0.0523  0.0335
 9035TIP3    H148596   3.517   4.163   1.636 -0.5685 -0.0143  0.9121
 9035TIP3    H248597   3.641   4.097   1.694  1.3356  0.6019 -2.2500
 9036TIP3   OH248598   4.219   2.919   2.855 -0.0943  0.1789  0.1972
 9036TIP3    H148599   4.129   2.935   2.826  0.0139  0.6569  0.1137
 9036TIP3    H248600   4.209   2.864   2.933 -0.4498  0.0737  0.0829
 9037TIP3   OH248601   4.621   1.003   0.494 -0.0980  0.2056 -0.3531
 9037TIP3    H148602   4.598   1.095   0.506 -0.3044  0.1225 -0.1051
 9037TIP3    H248603   4.544   0.955   0.522 -0.7592  0.0013 -2.3786
 9038TIP3   OH248604   5.201   0.986  12.798  0.1014 -0.2999  0.0187
 9038TIP3    H148605   5.291   0.994  12.765  0.1420 -1.2477 -0.1136
 9038TIP3    H248606   5.208   1.002  12.892  0.1136  1.5420 -0.2478
 9039TIP3   OH248607   4.601   3.045  14.498  0.4948 -0.3630  0.1447
 9039TIP3    H148608   4.517   3.000  14.495 -0.5099  1.4678 -0.7958
 9039TIP3    H248609   4.645   3.020  14.417  2.2974 -3.7042  1.9003
 9040TIP3   OH248610   1.874   1.700  11.902  0.6739 -0.0096  0.6134
 9040TIP3    H148611   1.909   1.763  11.840  1.4876 -0.1442  0.9232
 9040TIP3    H248612   1.884   1.742  11.987 -1.0825  0.4714  0.6187
 9041TIP3   OH248613   4.089   0.075   1.827  0.1518 -0.1004 -0.1762
 9041TIP3    H148614   4.019   0.026   1.784 -1.3541 -0.2086  2.2490
 9041TIP3    H248615   4.128   0.012   1.888  0.4865  0.7314  0.4977
 9042TIP3   OH248616   4.556   0.969   2.818  0.2837 -0.4583 -0.1285
 9042TIP3    H148617   4.610   0.901   2.777 -1.0173 -0.2215 -2.4458
 9042TIP3    H248618   4.565   1.044   2.760  1.1248  1.1932  2.0078
 9043TIP3   OH248619   6.099   2.815   1.402  0.0620 -0.4273 -0.4082
 9043TIP3    H148620   6.172   2.753   1.408  0.2655 -0.3287 -1.7475
 9043TIP3    H248621   6.141   2.901   1.406 -0.1242 -0.3595  0.2851
 9044TIP3   OH248622   3.680   4.158   0.421 -0.1258 -0.0924 -0.4212
 9044TIP3    H148623   3.695   4.202   0.505 -0.6430 -0.3829 -0.1712
 9044TIP3    H248624   3.746   4.195   0.363 -0.6772  1.1727 -0.2758
 9045TIP3   OH248625   3.708   0.641   5.186 -0.3123  0.0505  0.0076
 9045TIP3    H148626   3.739   0.632   5.096  0.9964 -0.9227  0.5334
 9045TIP3    H248627   3.704   0.552   5.220  1.3444  0.5169  1.5800
 9046TIP3   OH248628   3.329   5.955   5.302 -0.0592  0.0945  0.2845
 9046TIP3    H148629   3.374   5.881   5.341 -0.6280 -0.5541 -0.2568
 9046TIP3    H248630   3.392   5.993   5.241  0.7048  0.8900  1.5141
 9047TIP3   OH248631   5.190   0.568  13.854 -0.0317 -0.5586 -0.4359
 9047TIP3    H148632   5.251   0.627  13.810 -0.8140  0.2916 -0.3857
 9047TIP3    H248633   5.204   0.584  13.948  1.0850 -1.8204 -0.3443
 9048TIP3   OH248634   3.790   5.863   5.162  0.4352 -0.2390  0.2737
 9048TIP3    H148635   3.783   5.767   5.153  2.5085 -0.4243  0.1258
 9048TIP3    H248636   3.756   5.897   5.079 -2.2002 -0.6748  1.0707
 9049TIP3   OH248637   4.053   3.507  13.170  0.4484 -0.0049 -0.4417
 9049TIP3    H148638   4.074   3.418  13.199 -3.1209 -0.9798 -0.3196
 9049TIP3    H248639   4.051   3.559  13.250 -2.2372 -1.0531  0.2990
 9050TIP3   OH248640   4.697   3.044   1.285  0.2769 -0.1231 -0.0201
 9050TIP3    H148641   4.697   3.118   1.346  1.8430 -0.0410 -0.0858
 9050TIP3    H248642   4.658   3.079   1.205 -0.2637  0.2377  0.3950
 9051TIP3   OH248643   2.960   4.451   0.300  0.1951  0.2117 -0.7578
 9051TIP3    H148644   2.915   4.459   0.384  1.7101  0.9958  0.0035
 9051TIP3    H248645   3.053   4.449   0.321  0.5774 -1.3738 -2.3010
 9052TIP3   OH248646   4.298   0.408  15.770  0.7060  0.0324  0.5927
 9052TIP3    H148647   4.282   0.456  15.850  1.4364  0.4165  0.5115
 9052TIP3    H248648   4.213   0.370  15.748  0.1208  1.2477  0.6734
 9053TIP3   OH248649   3.927   5.025  17.140 -0.3785  0.0088 -0.7246
 9053TIP3    H148650   3.941   5.048  17.232 -2.5116  0.1330 -0.3674
 9053TIP3    H248651   4.002   4.971  17.116  0.2081 -0.0283  1.0975
 9054TIP3   OH248652   5.116   5.361  15.782 -0.0201  0.6066 -0.6830
 9054TIP3    H148653   5.041   5.311  15.749 -0.4635 -0.4184  1.6599
 9054TIP3    H248654   5.191   5.305  15.766 -0.2301  0.1212 -0.0191
 9055TIP3   OH248655   3.626   3.014   3.557  0.3816 -0.6332 -0.3463
 9055TIP3    H148656   3.561   2.949   3.529  1.2189 -0.7746 -2.0775
 9055TIP3    H248657   3.699   2.962   3.591  0.6908 -0.5792 -0.9181
 9056TIP3   OH248658   3.316   2.736   1.919  0.5353  0.0463  0.4168
 9056TIP3    H148659   3.232   2.695   1.936 -0.2046  1.0919 -0.5923
 9056TIP3    H248660   3.380   2.679   1.963 -0.7282 -0.4542  1.6788
 9057TIP3   OH248661   6.054   1.857   2.575  0.2877 -0.2340 -0.5661
 9057TIP3    H148662   6.083   1.935   2.623 -1.0263  1.4497 -2.3620
 9057TIP3    H248663   6.092   1.867   2.488 -1.6011 -0.4575 -1.4735
 9058TIP3   OH248664   4.062   1.943  13.889 -0.0812  0.0620  0.4404
 9058TIP3    H148665   4.145   1.917  13.929 -1.4758 -3.1070  1.5222
 9058TIP3    H248666   4.051   1.883  13.815 -0.1901  2.2849 -1.5059
 9059TIP3   OH248667   1.453   1.485  15.942  0.2339  0.0370 -0.4559
 9059TIP3    H148668   1.442   1.492  15.847 -0.2238 -3.2898 -0.7788
 9059TIP3    H248669   1.364   1.479  15.976  0.4267 -0.2232  0.0115
 9060TIP3   OH248670   3.136   2.499   6.062  0.6740  0.2893 -0.1665
 9060TIP3    H148671   3.054   2.466   6.026  1.4304  0.2601 -1.9766
 9060TIP3    H248672   3.198   2.495   5.989  1.9660  1.4754  0.8019
 9061TIP3   OH248673   1.548   2.323  11.514 -0.6616 -0.3696 -0.2304
 9061TIP3    H148674   1.504   2.365  11.588 -0.4084  0.6514 -0.6491
 9061TIP3    H248675   1.538   2.229  11.531  0.2165 -0.1823  1.6104
 9062TIP3   OH248676   5.757   4.934   0.460  0.1704  0.0094  0.3231
 9062TIP3    H148677   5.672   4.916   0.501  1.4060 -0.6289  2.7775
 9062TIP3    H248678   5.794   5.004   0.513  2.1020 -1.2629  0.7469
 9063TIP3   OH248679   5.433   3.780   5.039  0.5943  0.3624  0.2768
 9063TIP3    H148680   5.396   3.827   4.964  1.4285  1.2935  0.4193
 9063TIP3    H248681   5.484   3.709   5.001 -0.1243 -0.0156  0.0207
 9064TIP3   OH248682   2.115   2.177  15.985  0.2221  0.2923  0.1244
 9064TIP3    H148683   2.198   2.200  16.026 -0.9753  1.7222  1.8743
 9064TIP3    H248684   2.059   2.253  15.999 -0.8560  0.1142 -2.6296
 9065TIP3   OH248685   2.555   5.450   4.229 -0.3343  0.0962  0.4208
 9065TIP3    H148686   2.633   5.405   4.262  0.8219 -0.1409 -2.3117
 9065TIP3    H248687   2.573   5.462   4.136 -3.6466 -0.1015 -0.3674
 9066TIP3   OH248688   6.105   1.265  16.326 -0.0165  0.0824  0.1094
 9066TIP3    H148689   6.056   1.250  16.407 -0.1214  0.4207  0.1107
 9066TIP3    H248690   6.196   1.246  16.349 -0.0650  0.0450  0.2692
 9067TIP3   OH248691   2.342   3.944  13.252  0.1509  0.0326  0.3626
 9067TIP3    H148692   2.432   3.932  13.282  0.1598 -0.6520  0.0657
 9067TIP3    H248693   2.305   3.856  13.252 -1.1817  0.5102  2.5264
 9068TIP3   OH248694   0.094   6.185  11.284 -0.2925  0.0973 -0.1627
 9068TIP3    H148695   0.122   6.119  11.347  0.3742  1.4169  0.9855
 9068TIP3    H248696   0.170   6.199  11.228 -0.6205 -0.4993 -0.7679
 9069TIP3   OH248697   6.509   0.240  16.542 -0.3744  0.0611 -0.4253
 9069TIP3    H148698   6.583   0.300  16.551  1.8959 -2.6716  0.7600
 9069TIP3    H248699   6.469   0.238  16.629 -1.6815  1.2009 -0.9537
 9070TIP3   OH248700   2.952   3.609  15.335  0.4710 -0.4344 -0.0613
 9070TIP3    H148701   2.925   3.530  15.382  1.0659 -0.3541  0.4281
 9070TIP3    H248702   2.888   3.618  15.265  1.2485 -2.2213 -1.0747
 9071TIP3   OH248703   2.986   3.573   1.538 -0.2489  0.2917  0.4429
 9071TIP3    H148704   3.040   3.545   1.464 -1.5417  0.8782 -0.7991
 9071TIP3    H248705   2.979   3.668   1.527 -2.3266  0.1383 -0.0804
 9072TIP3   OH248706   1.066   5.018  15.703  0.3293 -0.3260 -0.5876
 9072TIP3    H148707   1.113   5.074  15.641  2.3653 -2.0372 -0.7076
 9072TIP3    H248708   0.995   4.980  15.652 -2.2204  3.3181 -0.0753
 9073TIP3   OH248709   5.504   1.198   4.669 -0.3935 -0.3178  0.8218
 9073TIP3    H148710   5.497   1.290   4.647 -1.6690 -0.5545  0.1003
 9073TIP3    H248711   5.479   1.193   4.761  0.0274  0.0915  0.9597
 9074TIP3   OH248712   0.600   5.793  15.565 -0.1926 -1.0255 -0.4432
 9074TIP3    H148713   0.604   5.800  15.661 -0.2323 -2.7944 -0.2775
 9074TIP3    H248714   0.686   5.822  15.535 -0.3441  0.0102  0.0740
 9075TIP3   OH248715   0.327   1.890  15.979 -0.1857 -0.3091 -0.2544
 9075TIP3    H148716   0.309   1.881  15.886 -1.1673  1.3678 -0.2763
 9075TIP3    H248717   0.243   1.871  16.022  0.2796 -1.1577  0.2973
 9076TIP3   OH248718   5.159   3.788  14.394 -0.3800  0.7707  0.1179
 9076TIP3    H148719   5.088   3.771  14.456  0.6320  0.0890  1.1196
 9076TIP3    H248720   5.236   3.804  14.449  0.8747 -1.2766 -0.9237
 9077TIP3   OH248721   3.048   5.306  13.984 -0.1037  0.3289  0.0139
 9077TIP3    H148722   2.986   5.240  13.950 -0.4167  0.1253  0.9429
 9077TIP3    H248723   3.021   5.387  13.942 -0.9441  0.2193  0.3091
 9078TIP3   OH248724   2.404   0.889  14.558 -0.5098 -0.2811 -0.3645
 9078TIP3    H148725   2.427   0.977  14.587  1.2416 -1.2731  1.5259
 9078TIP3    H248726   2.309   0.892  14.546 -0.8169  1.3058  1.8129
 9079TIP3   OH248727   5.000   0.231   6.068  0.5071  0.1968 -0.0608
 9079TIP3    H148728   4.980   0.280   6.148  1.8675  0.2756  0.2463
 9079TIP3    H248729   5.063   0.285   6.022 -2.1363  1.4169 -2.5092
 9080TIP3   OH248730   3.673   1.482   2.815 -0.2596 -0.0485  0.1435
 9080TIP3    H148731   3.753   1.475   2.866 -0.2349  0.9004  0.2589
 9080TIP3    H248732   3.639   1.393   2.811  1.3211 -0.6464 -0.7850
 9081TIP3   OH248733   5.060   3.108   2.713  0.3563  0.3916  0.4636
 9081TIP3    H148734   5.155   3.118   2.703  0.6972 -2.1830  0.4444
 9081TIP3    H248735   5.047   3.101   2.808  0.7247 -2.8414  0.3664
 9082TIP3   OH248736   3.377   0.945  11.417  0.1213  0.5553  0.7945
 9082TIP3    H148737   3.438   1.018  11.410  1.3411 -0.1480  3.0403
 9082TIP3    H248738   3.372   0.909  11.329 -0.1203  2.9653 -0.2717
 9083TIP3   OH248739   6.542   2.239   3.845  0.0372 -0.1330  0.2460
 9083TIP3    H148740   6.588   2.203   3.922  0.7707  2.7372  1.2665
 9083TIP3    H248741   6.527   2.331   3.867 -1.3839  0.3381 -2.3527
 9084TIP3   OH248742   0.514   3.783  12.016  0.1237  0.4613  0.5301
 9084TIP3    H148743   0.582   3.840  11.980 -1.4325  1.1590 -1.4769
 9084TIP3    H248744   0.447   3.778  11.948 -0.7200 -2.2356  1.4220
 9085TIP3   OH248745   4.012   4.648   4.934 -0.3065 -0.2784  0.4265
 9085TIP3    H148746   3.926   4.618   4.965  0.0466 -1.1397  0.5959
 9085TIP3    H248747   4.063   4.568   4.923  0.4414  0.2161  0.2077
 9086TIP3   OH248748   5.614   1.337   5.330 -0.1261  0.5134 -0.2229
 9086TIP3    H148749   5.605   1.384   5.247  0.7550  0.5723 -0.2949
 9086TIP3    H248750   5.654   1.401   5.389 -0.0488  0.2337  0.0310
 9087TIP3   OH248751   2.341   2.722  17.158  0.6928 -0.0152  0.1958
 9087TIP3    H148752   2.317   2.776  17.234 -1.5612 -0.4435 -0.1388
 9087TIP3    H248753   2.310   2.773  17.083  1.5586 -0.2844 -0.3542
 9088TIP3   OH248754   1.630   2.228  10.415  0.3851 -0.0682  0.1343
 9088TIP3    H148755   1.703   2.250  10.357 -0.3165 -1.2050 -1.2471
 9088TIP3    H248756   1.651   2.140  10.446  0.0959  0.0099  0.5562
 9089TIP3   OH248757   4.123   5.560  13.818  0.0268 -0.3869 -0.0435
 9089TIP3    H148758   4.216   5.558  13.795 -0.0826  0.7524 -0.6536
 9089TIP3    H248759   4.077   5.549  13.734 -0.3788  0.7624  0.0121
 9090TIP3   OH248760   2.517   3.516   4.918 -0.2382  0.1738  0.5857
 9090TIP3    H148761   2.594   3.466   4.889 -0.7298  0.0408 -0.5427
 9090TIP3    H248762   2.543   3.552   5.003 -0.2134 -2.8157  1.9607
 9091TIP3   OH248763   1.415   5.703  12.742 -0.1981  0.0309 -0.3265
 9091TIP3    H148764   1.475   5.765  12.785  1.6946 -0.8044 -1.6608
 9091TIP3    H248765   1.416   5.626  12.799  2.2781 -1.0604 -1.7050
 9092TIP3   OH248766   5.754   5.900  12.052 -0.3892 -0.0953 -0.0944
 9092TIP3    H148767   5.733   5.922  12.143 -0.4901  0.1263 -0.1692
 9092TIP3    H248768   5.780   5.984  12.013 -2.5271  0.2719 -0.8640
 9093TIP3   OH248769   6.619   5.953  16.873  0.0131  0.3430  0.0559
 9093TIP3    H148770   6.642   5.881  16.814 -1.5919 -1.2403  1.2590
 9093TIP3    H248771   6.665   6.029  16.837  1.4393 -1.1739 -1.5062
 9094TIP3   OH248772   6.077   5.300   1.992  0.7176 -0.8930  0.6662
 9094TIP3    H148773   6.064   5.395   2.000  0.7466 -0.7351 -0.8524
 9094TIP3    H248774   6.020   5.263   2.060 -0.4528  0.1670  0.3178
 9095TIP3   OH248775   5.470   6.079   3.055  0.1387  0.0161 -0.1041
 9095TIP3    H148776   5.375   6.074   3.059  0.2086 -1.3835  0.1564
 9095TIP3    H248777   5.493   6.149   3.117 -0.6677 -0.3138  0.5888
 9096TIP3   OH248778   5.496   6.426   2.122 -0.5526  0.2854 -0.5741
 9096TIP3    H148779   5.404   6.422   2.096 -0.7123  0.0481  0.0154
 9096TIP3    H248780   5.519   6.518   2.115 -0.4611  0.1733 -1.9835
 9097TIP3   OH248781   4.405   3.433  13.797  0.0196 -0.1763  0.3083
 9097TIP3    H148782   4.423   3.525  13.778  1.1168 -0.5474 -0.5609
 9097TIP3    H248783   4.389   3.430  13.892 -1.8300  1.1604  0.0794
 9098TIP3   OH248784   6.157   0.973  13.874  0.0355 -0.0554 -0.2690
 9098TIP3    H148785   6.096   1.014  13.812  1.0114  0.4678 -0.9098
 9098TIP3    H248786   6.234   1.030  13.872  0.5318 -0.6848  0.5594
 9099TIP3   OH248787   2.693   1.719  12.734 -0.2438 -0.0778  0.3980
 9099TIP3    H148788   2.760   1.750  12.795 -0.1393 -0.4996  0.4983
 9099TIP3    H248789   2.727   1.743  12.648 -0.4563  0.6434  0.5103
 9100TIP3   OH248790   0.557   2.962  12.773  0.1310  0.8045  0.2004
 9100TIP3    H148791   0.472   3.005  12.769  0.8411  2.2779  0.5674
 9100TIP3    H248792   0.586   2.974  12.863  0.4095 -0.3677  0.2896
 9101TIP3   OH248793   4.441   3.123  11.408 -0.1479 -0.3804  0.3799
 9101TIP3    H148794   4.410   3.035  11.429 -0.5210 -0.7904 -1.6582
 9101TIP3    H248795   4.487   3.113  11.324 -0.6964  1.4565 -0.1915
 9102TIP3   OH248796   4.123   1.890   1.202 -0.3922  0.0737  0.0262
 9102TIP3    H148797   4.071   1.967   1.228 -0.8489 -0.2856  0.1926
 9102TIP3    H248798   4.101   1.824   1.267 -1.0797 -0.6426 -0.9151
 9103TIP3   OH248799   3.014   3.220   1.190 -0.1369  0.3043  0.0146
 9103TIP3    H148800   2.980   3.215   1.101 -0.1119 -1.0318  0.0640
 9103TIP3    H248801   3.098   3.174   1.187 -0.9599 -1.3717  1.0872
 9104TIP3   OH248802   3.030   0.442  16.484  0.3062  0.3032 -0.2303
 9104TIP3    H148803   3.036   0.403  16.397 -0.2635 -2.0498  0.7231
 9104TIP3    H248804   2.943   0.419  16.516  0.4812  1.1560  0.9600
 9105TIP3   OH248805   1.094   3.449  14.303  0.1594  0.0212 -0.0538
 9105TIP3    H148806   1.039   3.526  14.319  0.9091  0.6961 -0.6561
 9105TIP3    H248807   1.060   3.383  14.363 -0.8270  0.6583  0.1146
 9106TIP3   OH248808   1.628   5.809  15.869  0.0580  0.2170  0.3070
 9106TIP3    H148809   1.597   5.897  15.849 -2.9873 -0.6116  0.9692
 9106TIP3    H248810   1.568   5.777  15.936  1.1495 -2.3297  0.1701
 9107TIP3   OH248811   3.509   1.602   1.291  0.2743  0.0237  0.5583
 9107TIP3    H148812   3.529   1.666   1.223  0.2451  1.4330  1.8191
 9107TIP3    H248813   3.594   1.574   1.325  0.2774 -0.2430  0.3300
 9108TIP3   OH248814   2.019   1.044  14.024 -0.1176 -0.0241  0.3470
 9108TIP3    H148815   2.028   0.950  14.039 -0.0313 -0.4454 -1.9310
 9108TIP3    H248816   1.941   1.053  13.969  0.8100  1.0073 -0.8932
 9109TIP3   OH248817   5.627   5.640  12.980  0.2757  0.3707 -0.5478
 9109TIP3    H148818   5.604   5.566  12.923  0.2240  0.9323 -1.2614
 9109TIP3    H248819   5.637   5.714  12.920 -1.4462  1.3708  0.3385
 9110TIP3   OH248820   3.792   4.007   3.742  0.1900  0.4467  0.3258
 9110TIP3    H148821   3.842   4.028   3.663 -1.9647  0.0037 -1.2289
 9110TIP3    H248822   3.752   4.090   3.767 -0.5122  0.2344 -0.0802
 9111TIP3   OH248823   0.790   3.332   2.574  0.6356  0.0389  0.2632
 9111TIP3    H148824   0.706   3.340   2.528  1.0208 -2.4056 -1.0580
 9111TIP3    H248825   0.772   3.362   2.663 -0.8316  2.4524 -0.7528
 9112TIP3   OH248826   4.313   0.861  15.775  0.0212  0.6538 -0.5036
 9112TIP3    H148827   4.392   0.904  15.742 -0.4455  1.1406 -1.0119
 9112TIP3    H248828   4.346   0.792  15.832  0.8215  2.6161  1.5833
 9113TIP3   OH248829   1.581   4.147  15.875 -0.1453  0.1198  0.1565
 9113TIP3    H148830   1.636   4.185  15.943 -1.0270 -1.5801  1.9576
 9113TIP3    H248831   1.497   4.131  15.919 -0.6391 -1.3716 -1.2145
 9114TIP3   OH248832   0.039   5.130  11.508 -0.1929 -0.2476  0.5350
 9114TIP3    H148833  -0.046   5.165  11.482 -0.2623 -0.2394  0.7750
 9114TIP3    H248834   0.018   5.047  11.552 -0.0381 -0.5381  0.0719
 9115TIP3   OH248835   1.674   3.611  15.923 -0.5080  0.1332  0.7271
 9115TIP3    H148836   1.763   3.626  15.893 -1.1966  0.3245 -1.3670
 9115TIP3    H248837   1.670   3.517  15.939 -0.2787 -0.0986 -0.4841
 9116TIP3   OH248838   6.033   4.237   5.783  0.5435 -0.2311  0.2180
 9116TIP3    H148839   5.984   4.303   5.735  0.4695 -0.1745  0.3696
 9116TIP3    H248840   6.064   4.283   5.861 -1.3435 -0.9298  1.4342
 9117TIP3   OH248841   1.373   6.108   0.126  0.0187 -0.1434 -0.0372
 9117TIP3    H148842   1.327   6.186   0.097 -0.8262 -0.4325  0.4893
 9117TIP3    H248843   1.324   6.035   0.086  1.5835 -0.3740 -1.6256
 9118TIP3   OH248844   1.326   5.165   2.872  0.0882  0.2257 -0.1644
 9118TIP3    H148845   1.317   5.249   2.917  1.5974  1.6756 -2.3723
 9118TIP3    H248846   1.391   5.117   2.924 -0.2069  0.7248  0.6862
 9119TIP3   OH248847   0.812   2.079   6.017  1.0005 -0.0309  0.0189
 9119TIP3    H148848   0.745   2.129   5.971  1.9836  2.1935  0.8880
 9119TIP3    H248849   0.772   1.993   6.032 -1.1720  0.8289 -0.5489
 9120TIP3   OH248850   0.453   3.699  12.723  0.5862 -0.2168 -0.3333
 9120TIP3    H148851   0.443   3.610  12.756  0.5324  0.7817  2.7007
 9120TIP3    H248852   0.530   3.733  12.770 -1.1888  2.2552  1.0055
 9121TIP3   OH248853   5.698   4.502  16.367  0.6935 -0.2124  0.0355
 9121TIP3    H148854   5.621   4.502  16.309  0.9340  0.2281 -0.2885
 9121TIP3    H248855   5.662   4.514  16.455  0.3373 -0.7076 -0.0419
 9122TIP3   OH248856   0.896   2.222  12.991 -0.0666 -0.8468 -0.8260
 9122TIP3    H148857   0.889   2.131  13.018  0.0532 -0.9139 -1.0189
 9122TIP3    H248858   0.964   2.222  12.924 -0.9313 -0.8235 -1.7266
 9123TIP3   OH248859   2.719   3.572   2.638 -0.4028  0.4107 -0.4234
 9123TIP3    H148860   2.794   3.512   2.642  0.0547  0.9403 -0.8769
 9123TIP3    H248861   2.647   3.518   2.605 -1.1283 -0.9539  2.9549
 9124TIP3   OH248862   5.052   0.805  11.860 -0.1171  0.0059  0.1833
 9124TIP3    H148863   5.032   0.717  11.828 -0.0722 -0.2222  0.7708
 9124TIP3    H248864   5.037   0.801  11.954 -1.5978  1.0413  0.0230
 9125TIP3   OH248865   0.092   5.256  11.747 -0.1135  0.4614  0.3719
 9125TIP3    H148866   0.006   5.295  11.763  0.3970  2.4703 -1.2721
 9125TIP3    H248867   0.095   5.244  11.652  1.3536  0.3059  0.4162
 9126TIP3   OH248868   1.114   3.279  15.707 -0.5588 -0.1536  0.0256
 9126TIP3    H148869   1.183   3.220  15.677  0.9595  0.4438  2.1192
 9126TIP3    H248870   1.049   3.277  15.636  0.9974 -1.6901 -1.4809
 9127TIP3   OH248871   5.697   0.575  13.616  0.1995  0.2192 -0.3216
 9127TIP3    H148872   5.748   0.643  13.572  0.2268 -0.1587 -0.8917
 9127TIP3    H248873   5.623   0.560  13.558 -0.9328  1.2061  0.7983
 9128TIP3   OH248874   3.510   0.500  15.606 -0.3155 -0.0300 -0.2348
 9128TIP3    H148875   3.452   0.574  15.590 -0.6625 -0.7985 -3.1076
 9128TIP3    H248876   3.457   0.438  15.655 -0.3375  1.1370  1.3136
 9129TIP3   OH248877   5.086   4.169  13.930 -0.5622  0.2495  0.7395
 9129TIP3    H148878   5.141   4.100  13.892 -0.3244 -0.5639  2.4586
 9129TIP3    H248879   5.137   4.249  13.917 -0.2257 -0.0851 -0.1022
 9130TIP3   OH248880   1.543   6.342  16.683  0.1965 -0.4570  0.5313
 9130TIP3    H148881   1.562   6.320  16.774  0.9794 -1.0548  0.2419
 9130TIP3    H248882   1.617   6.305  16.634  1.1753  2.1224 -0.0998
 9131TIP3   OH248883   4.382   0.032   3.536 -0.2708 -0.4072  0.6328
 9131TIP3    H148884   4.308  -0.009   3.492  0.5481 -2.0136  0.6713
 9131TIP3    H248885   4.383  -0.006   3.623  1.1689 -1.2211  0.3102
 9132TIP3   OH248886   1.992   6.077  13.900  0.4108 -0.1830  0.3755
 9132TIP3    H148887   1.924   6.119  13.953  0.5740  1.9189 -0.9591
 9132TIP3    H248888   1.943   6.028  13.834  0.1857  0.3270  0.1578
 9133TIP3   OH248889   1.090   2.776   1.381  0.7096 -0.7161  0.0505
 9133TIP3    H148890   0.998   2.768   1.406  0.9188 -1.6896  0.5859
 9133TIP3    H248891   1.099   2.718   1.306  0.4659  0.8998 -1.2781
 9134TIP3   OH248892   1.920   1.891  14.654 -0.1243 -0.0601 -0.2764
 9134TIP3    H148893   1.889   1.820  14.711  3.3100 -1.7342 -0.2578
 9134TIP3    H248894   1.939   1.848  14.570  2.8654  0.5374 -0.0057
 9135TIP3   OH248895   3.520   5.376   6.180  0.5371 -0.0425  0.0781
 9135TIP3    H148896   3.430   5.401   6.161 -0.2567 -3.5383 -1.7045
 9135TIP3    H248897   3.567   5.387   6.097  0.6879 -1.8875 -0.1389
 9136TIP3   OH248898   4.622   3.948   2.680 -0.2878  0.1621  0.0120
 9136TIP3    H148899   4.639   3.874   2.622  1.9482  0.3541  0.3319
 9136TIP3    H248900   4.675   3.931   2.757 -0.2854  1.7353  0.3992
 9137TIP3   OH248901   4.042   1.165  16.721 -0.2446  0.2157  0.2124
 9137TIP3    H148902   4.052   1.244  16.667  2.2044  0.2429  0.5785
 9137TIP3    H248903   4.125   1.118  16.709 -2.1254 -3.0829 -1.1336
 9138TIP3   OH248904   0.499   0.839  13.407 -0.6261  0.0258 -0.3595
 9138TIP3    H148905   0.594   0.844  13.416 -0.8157  1.1527  1.5246
 9138TIP3    H248906   0.484   0.760  13.356  1.3084 -0.3854 -0.3621
 9139TIP3   OH248907   2.550   2.269  16.356 -0.0002 -0.1441  0.2273
 9139TIP3    H148908   2.584   2.209  16.290  0.0148 -2.1286  1.9356
 9139TIP3    H248909   2.597   2.245  16.436 -0.3522  1.8578  1.1040
 9140TIP3   OH248910   0.310   4.589  16.189  0.2292  0.0117  0.8301
 9140TIP3    H148911   0.278   4.650  16.122 -0.5516  0.0646  1.2404
 9140TIP3    H248912   0.264   4.614  16.269 -1.2247 -1.9947  0.7165
 9141TIP3   OH248913   4.583   0.507  10.527 -0.3639  0.2952 -0.1218
 9141TIP3    H148914   4.586   0.596  10.561  0.5448  0.3704 -0.3799
 9141TIP3    H248915   4.668   0.494  10.485  0.1354 -1.2118  1.2451
 9142TIP3   OH248916   0.465   0.409  11.671  0.4638  0.4454  0.0946
 9142TIP3    H148917   0.483   0.499  11.643  0.2571  0.0678 -1.3607
 9142TIP3    H248918   0.523   0.395  11.746  0.0437  1.9880  0.7552
 9143TIP3   OH248919   2.424   0.635   1.597  0.3079 -0.2342 -0.0365
 9143TIP3    H148920   2.349   0.603   1.547  1.2327 -0.6665 -1.1780
 9143TIP3    H248921   2.404   0.727   1.614 -0.1893 -0.1726 -0.8987
 9144TIP3   OH248922   3.863   3.655   2.468  0.1981  0.1327  0.2488
 9144TIP3    H148923   3.884   3.573   2.424 -0.8969 -0.2799  0.4657
 9144TIP3    H248924   3.910   3.651   2.551  0.5786 -0.0319  0.0270
 9145TIP3   OH248925   6.282   1.115  12.463  0.1390 -0.0851  0.2773
 9145TIP3    H148926   6.308   1.182  12.400  1.2376 -0.7414  0.0125
 9145TIP3    H248927   6.295   1.155  12.549  0.2583  0.2225  0.1175
 9146TIP3   OH248928   0.272   3.348   1.925 -0.1433 -0.0353  0.3745
 9146TIP3    H148929   0.176   3.346   1.920 -0.1800 -2.2803  0.6784
 9146TIP3    H248930   0.291   3.357   2.019 -0.0649  0.0041  0.3548
 9147TIP3   OH248931   4.232   2.594  12.380 -0.3013 -0.3227 -0.4172
 9147TIP3    H148932   4.164   2.568  12.317 -0.0866 -1.2221 -0.2995
 9147TIP3    H248933   4.247   2.687  12.363 -1.1346 -0.2562 -0.8494
 9148TIP3   OH248934   4.156   1.776  13.667  0.0666 -0.1180  0.0133
 9148TIP3    H148935   4.220   1.712  13.635 -0.3282  0.0438 -1.1584
 9148TIP3    H248936   4.204   1.859  13.664 -0.0652 -0.0552 -0.4928
 9149TIP3   OH248937   4.515   3.212  16.051 -0.5509  0.2397 -0.2274
 9149TIP3    H148938   4.502   3.188  15.959  1.0797 -0.1621 -0.3829
 9149TIP3    H248939   4.462   3.149  16.100 -0.8248 -0.0264 -0.8500
 9150TIP3   OH248940   0.457   0.492   6.393 -0.0181  0.1273  0.1554
 9150TIP3    H148941   0.461   0.435   6.470 -0.0519  0.6829  0.5766
 9150TIP3    H248942   0.512   0.449   6.328  0.3484 -0.1318  0.6336
 9151TIP3   OH248943   2.313   6.684  14.440 -0.0988 -0.0568 -0.4402
 9151TIP3    H148944   2.347   6.597  14.460 -1.2801 -0.3006  0.5663
 9151TIP3    H248945   2.231   6.690  14.487 -1.9813  0.1697 -3.4686
 9152TIP3   OH248946   1.609   6.489  15.679  0.2627  0.1925  0.3239
 9152TIP3    H148947   1.631   6.547  15.606  0.0458 -0.7107 -0.4803
 9152TIP3    H248948   1.557   6.419  15.639 -2.1973  1.0610  1.7564
 9153TIP3   OH248949   0.977   4.102  11.573 -0.2022  0.4535  0.1259
 9153TIP3    H148950   0.890   4.111  11.613 -0.8128  1.5501 -1.3406
 9153TIP3    H248951   0.959   4.079  11.482  1.0889 -0.1632  0.0081
 9154TIP3   OH248952   4.262   0.023   5.479 -0.4763  0.5726 -0.1635
 9154TIP3    H148953   4.287   0.027   5.387 -2.4378  2.0787 -0.7210
 9154TIP3    H248954   4.243   0.114   5.503  0.7608  0.3346  1.9979
 9155TIP3   OH248955   4.558   5.591   4.806 -0.1440  0.2570 -0.7674
 9155TIP3    H148956   4.591   5.551   4.887 -0.6381  1.6703  0.1676
 9155TIP3    H248957   4.627   5.653   4.781 -0.0113 -0.1488 -1.4237
 9156TIP3   OH248958   6.179   1.319   0.811 -0.3443 -0.0055 -0.1192
 9156TIP3    H148959   6.138   1.237   0.783  0.7247 -0.7560  0.4360
 9156TIP3    H248960   6.235   1.344   0.737  0.7580 -0.7922  0.4216
 9157TIP3   OH248961   4.560   1.263   4.568  0.3201 -0.0606  0.1212
 9157TIP3    H148962   4.465   1.272   4.581 -0.0285 -2.9951  0.2679
 9157TIP3    H248963   4.591   1.222   4.649  1.3702 -0.8552 -0.6587
 9158TIP3   OH248964   0.724   6.387  12.964  0.0882  0.0059  0.6464
 9158TIP3    H148965   0.798   6.448  12.957  0.4274 -0.2044  2.1201
 9158TIP3    H248966   0.685   6.387  12.876  1.3274  0.7580  0.0669
 9159TIP3   OH248967   2.688   5.236   4.523 -0.1075 -0.1006  0.4595
 9159TIP3    H148968   2.603   5.265   4.556  0.3237  1.2610  0.4470
 9159TIP3    H248969   2.747   5.310   4.540  0.6040 -0.1910 -1.4196
 9160TIP3   OH248970   4.363   4.494  15.143 -0.3448  0.4931 -0.5260
 9160TIP3    H148971   4.378   4.584  15.113  0.6145 -0.0506 -1.7804
 9160TIP3    H248972   4.368   4.442  15.063 -2.6660 -0.5166 -0.0973
 9161TIP3   OH248973   6.185   4.584  11.110  0.1834 -0.5063 -0.4215
 9161TIP3    H148974   6.149   4.501  11.139  0.3841 -0.6578 -0.6023
 9161TIP3    H248975   6.151   4.596  11.022  0.3316 -0.5047 -0.4796
 9162TIP3   OH248976   3.953   6.799  14.386  0.3005 -0.0585  0.0565
 9162TIP3    H148977   4.045   6.775  14.371  0.3131  0.4731 -0.7769
 9162TIP3    H248978   3.933   6.764  14.473  1.1923 -0.4720  0.1060
 9163TIP3   OH248979   3.148   1.287   1.367 -0.2758  0.3262 -0.2044
 9163TIP3    H148980   3.206   1.342   1.314 -0.7064  1.2361  0.2438
 9163TIP3    H248981   3.178   1.299   1.457 -0.3880 -0.1558 -0.1001
 9164TIP3   OH248982   3.466   6.283  16.754  0.6159  0.2033 -0.4020
 9164TIP3    H148983   3.552   6.253  16.727  1.5561  0.1729  2.2843
 9164TIP3    H248984   3.468   6.279  16.850 -2.8917 -1.3093 -0.2213
 9165TIP3   OH248985   3.550   5.952  16.876 -0.1522 -0.2363 -0.0934
 9165TIP3    H148986   3.555   5.875  16.820  0.0326  0.0287 -0.4411
 9165TIP3    H248987   3.635   5.995  16.866  1.0517 -1.7059  2.6177
 9166TIP3   OH248988   4.093   3.822   0.960  0.4168  0.1871 -0.2396
 9166TIP3    H148989   4.078   3.914   0.940 -1.1262 -0.4039 -2.1567
 9166TIP3    H248990   4.137   3.788   0.882 -0.0796 -0.9343 -0.0510
 9167TIP3   OH248991   5.427   5.807   3.357  0.0462 -0.3644  0.3599
 9167TIP3    H148992   5.405   5.752   3.432 -1.3075  0.7373  0.8132
 9167TIP3    H248993   5.369   5.776   3.287  0.3133 -0.4716  0.1856
 9168TIP3   OH248994   4.900   2.739  12.858 -0.6457 -0.2834  0.0880
 9168TIP3    H148995   4.946   2.751  12.775 -1.8733  1.3360 -0.4019
 9168TIP3    H248996   4.871   2.648  12.856 -1.3813 -0.0443 -1.6738
 9169TIP3   OH248997   2.037   2.818  16.526 -0.1871 -0.3217  0.2646
 9169TIP3    H148998   2.004   2.811  16.616 -0.6507 -1.0907  0.0386
 9169TIP3    H248999   2.052   2.728  16.499 -0.3104 -0.1096 -0.5323
 9170TIP3   OH249000   0.732   6.755   0.072  0.6824  0.8761  0.2381
 9170TIP3    H149001   0.763   6.683   0.017 -1.0888 -1.4888  2.1004
 9170TIP3    H249002   0.656   6.790   0.025 -0.5763 -0.8594  0.8887
 9171TIP3   OH249003   1.822   1.182   0.325  1.2029 -0.1570  0.5604
 9171TIP3    H149004   1.780   1.100   0.298  0.7967  0.2087  0.0541
 9171TIP3    H249005   1.801   1.189   0.418 -2.2010  1.2971 -0.1402
 9172TIP3   OH249006   0.429   2.830   2.278  0.2724 -0.0927 -0.1578
 9172TIP3    H149007   0.475   2.914   2.272  1.5303 -0.7481 -0.1229
 9172TIP3    H249008   0.370   2.829   2.203 -0.6121  1.2927  0.4759
 9173TIP3   OH249009   4.018   5.006  15.004  0.1211  0.0162  0.0838
 9173TIP3    H149010   4.013   4.996  15.099 -1.7330 -1.2521 -0.1029
 9173TIP3    H249011   4.022   4.917  14.970 -0.6552  0.3955 -1.0646
 9174TIP3   OH249012   4.715   4.115  10.759  0.4368  0.1463 -0.0581
 9174TIP3    H149013   4.767   4.043  10.725  0.3731 -0.7833  1.7402
 9174TIP3    H249014   4.765   4.194  10.736  1.0300 -0.5054 -1.0968
 9175TIP3   OH249015   4.217   1.129   4.411  0.4595 -0.1195 -0.1032
 9175TIP3    H149016   4.131   1.168   4.394  0.2183 -0.6206 -0.0619
 9175TIP3    H249017   4.219   1.052   4.355  0.2258 -1.0040  1.0721
 9176TIP3   OH249018   5.576   4.127  13.449 -0.4574  0.0092 -0.3834
 9176TIP3    H149019   5.503   4.168  13.496 -0.7171 -0.5019 -0.3349
 9176TIP3    H249020   5.590   4.184  13.374  0.4211  1.2306  0.6624
 9177TIP3   OH249021   6.237   4.062  11.970 -0.6692 -0.1964  0.9039
 9177TIP3    H149022   6.163   4.010  12.003  0.3111 -1.6463  0.8934
 9177TIP3    H249023   6.307   3.999  11.957  0.4822  1.0991  0.5764
 9178TIP3   OH249024   4.230   1.516  16.047  0.2867 -0.1228  0.5092
 9178TIP3    H149025   4.266   1.532  15.960 -0.7973  0.5731  0.1627
 9178TIP3    H249026   4.247   1.423  16.064  0.6093 -0.2334 -0.3838
 9179TIP3   OH249027   2.686   6.056   3.288 -0.2564 -0.3958 -0.6154
 9179TIP3    H149028   2.730   6.126   3.337 -3.3783  0.9159  0.5804
 9179TIP3    H249029   2.653   6.099   3.209  0.7313 -1.4194 -1.6353
 9180TIP3   OH249030   3.478   6.462  15.683 -1.1173  0.2255  0.3385
 9180TIP3    H149031   3.399   6.415  15.658 -0.9076  0.8122 -1.5880
 9180TIP3    H249032   3.463   6.552  15.654 -0.0536  0.5154  0.6373
 9181TIP3   OH249033   0.646   3.283  16.374  0.1826 -0.3649  0.2451
 9181TIP3    H149034   0.720   3.222  16.379 -0.1095 -0.6162  2.4030
 9181TIP3    H249035   0.570   3.227  16.358  0.0145 -0.5068  1.4849
 9182TIP3   OH249036   3.640   1.921   4.395  0.3753  0.1816  0.1607
 9182TIP3    H149037   3.570   1.970   4.437 -0.1799 -1.4362  1.2079
 9182TIP3    H249038   3.716   1.936   4.451  0.4481  0.5717 -0.0371
 9183TIP3   OH249039   4.693   3.304   6.160  0.4513  0.1523 -0.2561
 9183TIP3    H149040   4.779   3.336   6.189 -0.0968  1.9938 -0.5399
 9183TIP3    H249041   4.692   3.213   6.188  2.4083  0.1374 -0.0359
 9184TIP3   OH249042   4.328   3.059   1.299  0.3653  0.3481  0.8963
 9184TIP3    H149043   4.411   3.107   1.310  0.8453 -0.8812  3.2205
 9184TIP3    H249044   4.353   2.967   1.302 -0.5503 -0.2553 -3.3573
 9185TIP3   OH249045   5.138   2.854   4.435  0.8093  0.4579  0.7071
 9185TIP3    H149046   5.138   2.858   4.340  0.0813 -0.9955  0.6221
 9185TIP3    H249047   5.226   2.882   4.460  1.3150 -0.0613 -0.4363
 9186TIP3   OH249048   4.524   1.527  15.910 -0.0202 -0.8133  0.0131
 9186TIP3    H149049   4.448   1.552  15.858  0.4462  3.0865  0.8957
 9186TIP3    H249050   4.530   1.432  15.900 -3.2232 -0.9197 -2.4230
 9187TIP3   OH249051   3.792   2.699   2.239  0.5285 -0.0151 -0.2275
 9187TIP3    H149052   3.723   2.703   2.305 -0.7750 -0.7884 -1.4854
 9187TIP3    H249053   3.834   2.614   2.254  0.6437  0.0770 -0.0187
 9188TIP3   OH249054   1.281   1.698   2.033  0.1839 -1.0130  0.5119
 9188TIP3    H149055   1.267   1.725   1.942 -0.6124 -1.1301  0.5896
 9188TIP3    H249056   1.322   1.773   2.075  1.2558 -1.2276 -0.1163
 9189TIP3   OH249057   1.969   2.270  17.168 -0.2045 -0.1377 -0.6291
 9189TIP3    H149058   1.919   2.349  17.191  2.1521  1.4317 -0.5915
 9189TIP3    H249059   1.953   2.258  17.074 -0.2010  0.6799 -0.7383
 9190TIP3   OH249060   6.414   5.374  11.070  0.1464  0.4924  0.0371
 9190TIP3    H149061   6.412   5.454  11.122  0.0596  0.0112  0.8053
 9190TIP3    H249062   6.334   5.378  11.017 -0.4100  0.4299  0.8471
 9191TIP3   OH249063   2.238   0.938   2.338  0.1115 -0.1693 -0.3233
 9191TIP3    H149064   2.191   1.017   2.314  1.4605  0.8316  0.2062
 9191TIP3    H249065   2.169   0.872   2.353 -1.5321  2.0923  3.8756
 9192TIP3   OH249066   0.069   2.316  11.225 -0.0676  0.1023  0.1379
 9192TIP3    H149067   0.135   2.288  11.288 -0.4318  1.0211  0.9402
 9192TIP3    H249068   0.118   2.360  11.156  0.3211 -0.8070 -0.1827
 9193TIP3   OH249069   1.349   6.597   4.131 -0.2917  0.2583 -0.0261
 9193TIP3    H149070   1.269   6.637   4.096 -2.0083 -1.7034  1.4629
 9193TIP3    H249071   1.338   6.504   4.115  0.9739 -0.2134  1.6255
 9194TIP3   OH249072   2.155   4.614  16.269 -0.3433 -0.0469  0.4266
 9194TIP3    H149073   2.137   4.637  16.177  0.2132 -1.5215 -0.0784
 9194TIP3    H249074   2.098   4.540  16.287  1.1894 -1.2390  0.5337
 9195TIP3   OH249075   5.265   3.068   1.715 -0.1368 -0.2056  0.0527
 9195TIP3    H149076   5.332   3.000   1.725 -0.4615 -0.4359  0.7843
 9195TIP3    H249077   5.182   3.023   1.735 -0.2069  0.7545  2.2067
 9196TIP3   OH249078   6.166   1.700   2.123  0.4010 -0.3321  0.3950
 9196TIP3    H149079   6.217   1.627   2.088  0.5062 -0.6565  1.2202
 9196TIP3    H249080   6.080   1.690   2.081  0.9702  0.1896 -0.9613
 9197TIP3   OH249081   5.933   5.903   5.175 -0.4929 -0.1048  0.6154
 9197TIP3    H149082   5.848   5.900   5.130  0.2959  0.1204 -0.9926
 9197TIP3    H249083   5.995   5.866   5.111  0.6360 -0.1612  1.7079
 9198TIP3   OH249084   5.229   6.607  15.886 -0.4407 -0.4816  0.7126
 9198TIP3    H149085   5.236   6.597  15.792  2.8020 -3.7883  1.0639
 9198TIP3    H249086   5.233   6.702  15.900  0.1971  0.0587 -2.4092
 9199TIP3   OH249087   5.468   6.796   0.289  0.7375  0.3973 -0.0722
 9199TIP3    H149088   5.438   6.712   0.255  1.3275  0.9673 -2.0767
 9199TIP3    H249089   5.413   6.810   0.367 -1.0796 -0.6922 -1.0761
 9200TIP3   OH249090   0.722   3.615   0.289 -0.3031  0.2478  0.2592
 9200TIP3    H149091   0.703   3.528   0.256  0.9161  0.4242 -1.0146
 9200TIP3    H249092   0.792   3.602   0.353 -0.3584  0.2513  0.3202
 9201TIP3   OH249093   4.021   5.028   6.392 -0.0947  0.4124  0.4844
 9201TIP3    H149094   4.018   5.099   6.456 -0.2649  0.6486  0.2194
 9201TIP3    H249095   4.034   5.072   6.308 -1.0933  0.2108  0.2059
 9202TIP3   OH249096   4.004   2.811  14.420  0.1651  0.6910 -0.1981
 9202TIP3    H149097   4.030   2.847  14.335  0.4051  2.1710  0.4674
 9202TIP3    H249098   3.908   2.808  14.416  0.2012 -0.0939 -0.8292
 9203TIP3   OH249099   6.495   0.492   5.396  0.0818 -0.5371 -0.0492
 9203TIP3    H149100   6.581   0.526   5.373 -0.5796  0.9120 -0.4780
 9203TIP3    H249101   6.452   0.475   5.313 -0.5227 -0.0034  0.1484
 9204TIP3   OH249102   4.529   1.159   3.030  0.3946  0.2978  0.1023
 9204TIP3    H149103   4.539   1.070   2.995  0.3669 -0.8543  2.7750
 9204TIP3    H249104   4.607   1.205   3.001  0.3514 -0.5278 -1.4355
 9205TIP3   OH249105   3.996   0.837   2.281 -0.4506 -0.1954  0.0496
 9205TIP3    H149106   4.057   0.908   2.302 -0.7858  0.1356 -0.0982
 9205TIP3    H249107   3.961   0.809   2.366 -2.0904  1.3926 -0.0445
 9206TIP3   OH249108   3.728   2.771   3.027 -0.0896  0.1086 -0.4351
 9206TIP3    H149109   3.705   2.705   2.962 -1.1137  0.4782 -0.4624
 9206TIP3    H249110   3.658   2.767   3.092  0.5852  0.1859  0.3287
 9207TIP3   OH249111   0.410   4.935  14.881 -0.0152  0.7061  0.1720
 9207TIP3    H149112   0.490   4.926  14.932  0.2573  1.2153 -0.1612
 9207TIP3    H249113   0.411   4.859  14.822  0.2970  0.7847  0.0719
 9208TIP3   OH249114   2.897   2.146  12.899 -0.0848 -0.0194 -0.2747
 9208TIP3    H149115   2.874   2.203  12.827  0.3735  0.0964 -0.3346
 9208TIP3    H249116   2.839   2.172  12.971 -0.7942 -0.3863 -0.7135
 9209TIP3   OH249117   1.099   0.832   0.703  0.0977  0.6453  0.2536
 9209TIP3    H149118   1.030   0.775   0.670 -0.0987  1.0731 -0.0891
 9209TIP3    H249119   1.071   0.920   0.679  0.3303  0.9043  0.8883
 9210TIP3   OH249120   4.294   6.382  14.418 -0.9338  0.1275 -0.1936
 9210TIP3    H149121   4.207   6.411  14.446 -0.2621  0.8205  1.2959
 9210TIP3    H249122   4.277   6.305  14.364 -2.4878  0.4074 -0.1576
 9211TIP3   OH249123   2.403   4.971  13.259  0.3867 -0.1491  0.0978
 9211TIP3    H149124   2.407   4.882  13.226 -0.5835 -1.0559  2.2226
 9211TIP3    H249125   2.489   4.986  13.298  0.3643 -0.3882  0.2422
 9212TIP3   OH249126   5.568   4.371  12.025  0.1103  0.3892 -1.1576
 9212TIP3    H149127   5.498   4.341  11.967 -0.6010  0.2189 -0.2294
 9212TIP3    H249128   5.538   4.350  12.113  1.5795 -0.2007 -0.7570
 9213TIP3   OH249129   2.300   2.284  16.201  0.2768 -0.1000  0.0481
 9213TIP3    H149130   2.364   2.259  16.268 -0.4121 -0.7354  0.4864
 9213TIP3    H249131   2.222   2.308  16.251  0.5062  1.7728 -0.4198
 9214TIP3   OH249132   4.205   0.752  16.793  0.2265 -0.0562  0.2028
 9214TIP3    H149133   4.174   0.788  16.876  1.2506 -0.4216  0.7536
 9214TIP3    H249134   4.139   0.685  16.771  0.5440 -0.7703  1.3227
 9215TIP3   OH249135   0.038   3.309   4.107 -0.0416  0.4798 -0.3545
 9215TIP3    H149136   0.057   3.393   4.067  0.2945 -0.0705 -1.3890
 9215TIP3    H249137   0.086   3.245   4.054 -1.5277 -0.5298 -0.5593
 9216TIP3   OH249138   3.982   2.574  10.490  0.2607 -0.2976  0.0662
 9216TIP3    H149139   3.974   2.479  10.477 -0.4173 -0.3462  0.7686
 9216TIP3    H249140   3.962   2.611  10.404  2.2806 -0.8383 -0.6938
 9217TIP3   OH249141   0.931   1.193  14.012 -0.0268  0.3555  0.0773
 9217TIP3    H149142   0.843   1.155  14.014  0.0508  0.2028  1.0649
 9217TIP3    H249143   0.971   1.167  14.095  0.0304  2.6045  0.8335
 9218TIP3   OH249144   3.220   1.518  15.615 -0.2836  0.0331 -0.0954
 9218TIP3    H149145   3.313   1.534  15.600 -0.2937 -0.0817 -0.2824
 9218TIP3    H249146   3.201   1.563  15.697 -0.4687  1.5869 -0.9538
 9219TIP3   OH249147   6.113   2.369   1.452  0.2852 -0.5013 -0.4348
 9219TIP3    H149148   6.178   2.320   1.502 -0.7484 -1.7819 -0.2915
 9219TIP3    H249149   6.054   2.302   1.417 -0.0631  0.5067 -1.8574
 9220TIP3   OH249150   5.410   2.498   0.783  0.1523  0.0120 -0.0511
 9220TIP3    H149151   5.335   2.526   0.730 -0.2938  1.3166  1.1993
 9220TIP3    H249152   5.482   2.488   0.720 -0.9319 -0.7836 -1.2001
 9221TIP3   OH249153   2.317   1.684   0.434 -0.2725 -0.1421  0.3430
 9221TIP3    H149154   2.355   1.674   0.522 -0.1218  0.2301  0.3212
 9221TIP3    H249155   2.392   1.705   0.378 -0.4984  0.5664  0.2932
 9222TIP3   OH249156   6.082   3.430  16.308 -0.7149  0.2450 -0.5269
 9222TIP3    H149157   6.058   3.522  16.299 -0.3895  0.5730  1.4916
 9222TIP3    H249158   6.013   3.393  16.364 -0.2537 -0.4525 -0.4107
 9223TIP3   OH249159   2.280   6.381  16.591  0.2379 -0.4079 -0.6350
 9223TIP3    H149160   2.300   6.436  16.667  0.6452  1.1001 -1.7848
 9223TIP3    H249161   2.257   6.296  16.628 -0.8220  0.6404  1.2504
 9224TIP3   OH249162   1.183   0.200   1.551  0.0223 -0.2177 -0.5120
 9224TIP3    H149163   1.143   0.259   1.615 -1.0423  1.6607 -2.7638
 9224TIP3    H249164   1.109   0.158   1.507  0.6683 -0.4431 -1.4157
 9225TIP3   OH249165   0.746   5.197   1.926 -0.1092  0.3986 -0.0282
 9225TIP3    H149166   0.687   5.215   1.999 -2.0990  0.8449 -1.6535
 9225TIP3    H249167   0.805   5.129   1.960 -1.3915  0.0949  1.7679
 9226TIP3   OH249168   2.056   2.454   1.608  0.7073 -0.7054 -0.4131
 9226TIP3    H149169   1.999   2.458   1.530  1.0405 -1.9578 -0.7475
 9226TIP3    H249170   2.135   2.410   1.577  0.3591 -2.3672  0.8904
 9227TIP3   OH249171   2.794   2.339  11.013 -0.2505  0.4703 -0.4616
 9227TIP3    H149172   2.858   2.324  10.943 -0.0116 -0.2827 -0.0843
 9227TIP3    H249173   2.709   2.323  10.972 -0.0984 -0.2167 -0.5219
 9228TIP3   OH249174   1.155   2.495   1.257  0.0638  0.5276 -1.1040
 9228TIP3    H149175   1.249   2.481   1.249  0.3810  1.1416  0.9709
 9228TIP3    H249176   1.126   2.427   1.317 -0.4686  1.4897 -0.2525
 9229TIP3   OH249177   4.411   6.427  16.160  0.2127 -0.4856  0.9939
 9229TIP3    H149178   4.472   6.376  16.214 -0.3354 -2.0093  0.2222
 9229TIP3    H249179   4.442   6.414  16.071  0.8702  1.6930  0.8463
 9230TIP3   OH249180   0.998   3.290   1.162 -0.0388 -0.2449 -0.4476
 9230TIP3    H149181   1.037   3.304   1.249  0.5473 -0.7593 -0.6135
 9230TIP3    H249182   1.044   3.352   1.105 -2.0152  1.7496 -0.0096
 9231TIP3   OH249183   3.651   0.702  17.226 -0.4379 -0.3929 -0.1485
 9231TIP3    H149184   3.735   0.677  17.187  0.5851  0.2011  1.5219
 9231TIP3    H249185   3.604   0.746  17.156  1.1601  0.3231 -0.8328
 9232TIP3   OH249186   0.175   6.386   1.345  0.0633  0.8564 -0.1763
 9232TIP3    H149187   0.202   6.469   1.386 -0.7821  1.3697 -0.6189
 9232TIP3    H249188   0.245   6.366   1.283 -0.0890  1.6682 -0.6307
 9233TIP3   OH249189   6.026   3.943   3.004 -0.2756  0.0926 -0.1772
 9233TIP3    H149190   5.974   4.021   3.021  0.3062  0.4719 -0.1410
 9233TIP3    H249191   6.101   3.950   3.062 -0.9393 -1.2294  0.9178
 9234TIP3   OH249192   5.649   3.046   1.848 -0.1049  0.2140  0.6746
 9234TIP3    H149193   5.743   3.064   1.853  0.1155 -0.9242  0.9234
 9234TIP3    H249194   5.608   3.120   1.894  0.6563  0.7734  0.4685
 9235TIP3   OH249195   4.744   3.186  15.434 -0.0176 -0.1453 -0.0047
 9235TIP3    H149196   4.825   3.236  15.447 -0.3390  0.6579 -0.9923
 9235TIP3    H249197   4.717   3.162  15.522 -0.0352  1.7397  0.5514
 9236TIP3   OH249198   1.244   3.055   1.104  0.6526 -0.2630 -0.3366
 9236TIP3    H149199   1.245   2.962   1.128  0.4870  0.2839  2.0050
 9236TIP3    H249200   1.243   3.054   1.008  1.9005 -2.6533 -0.4146
 9237TIP3   OH249201   5.302   0.429   5.326  0.0808  0.3947  0.3272
 9237TIP3    H149202   5.273   0.343   5.296  0.7254  1.1791 -3.0360
 9237TIP3    H249203   5.394   0.434   5.298 -0.1602  2.4091 -0.2899
 9238TIP3   OH249204   5.613   1.655   0.363 -0.3489  0.2956  0.3419
 9238TIP3    H149205   5.681   1.702   0.412 -0.3525 -0.5036  1.1338
 9238TIP3    H249206   5.539   1.716   0.361  0.2213  0.9894 -0.1181
 9239TIP3   OH249207   3.182   1.714   1.720  0.1114  0.1462  0.3248
 9239TIP3    H149208   3.274   1.698   1.741 -0.0276 -1.6907 -0.2775
 9239TIP3    H249209   3.141   1.733   1.804  1.2805  2.4995  0.4231
 9240TIP3   OH249210   3.881   0.591   3.094 -0.2997  0.1281  0.5170
 9240TIP3    H149211   3.805   0.557   3.141  0.4579 -1.4637  0.6352
 9240TIP3    H249212   3.847   0.619   3.009 -1.0098 -0.6576  0.5359
 9241TIP3   OH249213   2.102   0.246  14.953 -0.0938  0.1813 -0.3993
 9241TIP3    H149214   2.024   0.219  15.002  0.3575  1.4617  1.1186
 9241TIP3    H249215   2.082   0.336  14.925  0.6207  0.3263 -0.4568
 9242TIP3   OH249216   3.781   0.276  13.536 -0.0267 -0.2506  0.4099
 9242TIP3    H149217   3.767   0.317  13.621  1.1438 -0.0091  0.5024
 9242TIP3    H249218   3.729   0.328  13.475  0.0206  0.2750  0.8126
 9243TIP3   OH249219   0.051   6.428   0.553 -0.1492  0.0291 -0.5784
 9243TIP3    H149220   0.024   6.458   0.640 -0.5235 -0.8583 -0.3757
 9243TIP3    H249221  -0.019   6.368   0.525  1.0332 -1.4484 -0.5233
 9244TIP3   OH249222   0.351   0.797   4.461 -0.1665  0.0680 -0.0493
 9244TIP3    H149223   0.420   0.781   4.526  1.2098  0.6666 -1.2971
 9244TIP3    H249224   0.308   0.877   4.492  1.2046  0.9909 -0.3964
 9245TIP3   OH249225   4.180   2.567   2.459 -0.1656 -0.4075  0.0333
 9245TIP3    H149226   4.222   2.579   2.544 -1.9543 -1.1833  1.0899
 9245TIP3    H249227   4.252   2.571   2.396  1.1311  0.8958  1.4961
 9246TIP3   OH249228   4.384   2.417  11.635 -0.3308  0.0359  0.5496
 9246TIP3    H149229   4.299   2.406  11.594 -0.5607  0.0778  1.0060
 9246TIP3    H249230   4.446   2.381  11.572 -0.5833  0.9174 -0.2215
 9247TIP3   OH249231   0.564   1.944  12.592 -0.2700  0.0163 -0.2005
 9247TIP3    H149232   0.508   2.014  12.626  0.4701 -0.0580  1.2580
 9247TIP3    H249233   0.652   1.968  12.621  0.1900 -0.8263 -0.8655
 9248TIP3   OH249234   4.856   4.313  11.424  0.3387 -0.8805  0.1100
 9248TIP3    H149235   4.947   4.288  11.440  0.7696  0.7782  0.4751
 9248TIP3    H249236   4.861   4.405  11.396 -1.3339 -0.1578  1.9422
 9249TIP3   OH249237   0.623   0.610  15.191 -0.0600  0.2535 -0.1550
 9249TIP3    H149238   0.602   0.528  15.234 -0.3813  0.0657 -0.6605
 9249TIP3    H249239   0.702   0.591  15.141  0.7928  0.6956  0.9819
 9250TIP3   OH249240   6.120   5.412   4.995 -0.3202  0.4117  0.1164
 9250TIP3    H149241   6.078   5.353   5.057  1.1396  0.4945  1.2361
 9250TIP3    H249242   6.179   5.465   5.049 -0.6314  1.9911 -1.0510
 9251TIP3   OH249243   2.792   5.393  12.357 -0.4480 -0.5012 -0.0566
 9251TIP3    H149244   2.849   5.343  12.415  0.5925  0.7759  0.0703
 9251TIP3    H249245   2.717   5.336  12.343 -0.1234 -1.3754  1.4850
 9252TIP3   OH249246   4.554   4.579   5.777 -0.0699 -0.6808  0.3061
 9252TIP3    H149247   4.552   4.509   5.711  1.3792 -0.5389  0.0734
 9252TIP3    H249248   4.553   4.660   5.726 -2.3990 -0.4488  0.5860
 9253TIP3   OH249249   2.415   2.815   5.331  0.2405  0.0125  0.2866
 9253TIP3    H149250   2.399   2.822   5.237 -2.2579 -0.6209  0.5908
 9253TIP3    H249251   2.369   2.736   5.357  1.2272 -0.0362  2.0015
 9254TIP3   OH249252   3.899   4.227  14.743  0.1940  0.3613 -0.2557
 9254TIP3    H149253   3.825   4.274  14.782  0.8146  1.5297 -0.4402
 9254TIP3    H249254   3.943   4.186  14.817 -0.4969 -0.1560 -0.1199
 9255TIP3   OH249255   3.428   2.627   6.158 -0.1761  0.5377 -0.0343
 9255TIP3    H149256   3.458   2.712   6.191  0.0449  1.2917 -2.0214
 9255TIP3    H249257   3.347   2.609   6.207  0.8501  0.8826  1.8482
 9256TIP3   OH249258   3.937   4.016   1.126 -0.6204  0.0453 -0.3067
 9256TIP3    H149259   4.031   4.022   1.144 -0.5497  1.1281 -0.9590
 9256TIP3    H249260   3.895   4.029   1.211 -0.2088  1.1536 -0.2564
 9257TIP3   OH249261   0.091   4.564   5.889 -0.0427 -0.0480 -0.6774
 9257TIP3    H149262   0.055   4.653   5.891 -1.4985 -0.5545 -2.1458
 9257TIP3    H249263   0.039   4.519   5.823  1.9702 -1.4560 -1.3806
 9258TIP3   OH249264   6.258   6.590  15.820 -0.0341  0.6791  0.3650
 9258TIP3    H149265   6.295   6.574  15.907 -0.3716 -1.5350  0.1820
 9258TIP3    H249266   6.334   6.600  15.763  0.4899 -3.2254  0.0939
 9259TIP3   OH249267   0.062   5.987  16.517  0.0603 -0.2430 -0.6665
 9259TIP3    H149268   0.093   6.074  16.492  3.6839 -0.8062  1.2015
 9259TIP3    H249269   0.002   5.962  16.447  1.2756  2.4824 -2.8711
 9260TIP3   OH249270   6.273   4.487  12.574  0.3859  0.2045  0.1653
 9260TIP3    H149271   6.243   4.569  12.535  0.8213  0.4991  0.4448
 9260TIP3    H249272   6.195   4.432  12.576 -0.4361  1.3294  1.8549
 9261TIP3   OH249273   0.973   2.922  11.630 -0.1191 -0.3903  0.2560
 9261TIP3    H149274   1.008   2.836  11.653 -0.9647 -0.6891  0.4513
 9261TIP3    H249275   1.042   2.983  11.655  1.2352 -1.1157 -1.4949
 9262TIP3   OH249276   3.241   5.236  15.993  0.1548  0.2852 -0.4087
 9262TIP3    H149277   3.243   5.198  15.905 -0.6141 -0.1905 -0.2383
 9262TIP3    H249278   3.331   5.229  16.025 -0.0196 -1.8474 -0.2164
 9263TIP3   OH249279   5.204   0.513   1.818  0.2458 -0.3964 -0.4598
 9263TIP3    H149280   5.228   0.421   1.834  1.4882 -0.3164 -1.6735
 9263TIP3    H249281   5.236   0.531   1.730 -0.7523  0.9709 -0.5715
 9264TIP3   OH249282   3.500   0.153   4.438  0.0780  0.0693 -0.2824
 9264TIP3    H149283   3.460   0.224   4.388 -0.1436  0.2029  0.0779
 9264TIP3    H249284   3.558   0.197   4.500  1.2128 -0.1494 -1.1622
 9265TIP3   OH249285   0.214   5.078   5.897 -0.1510 -0.9396  0.5704
 9265TIP3    H149286   0.187   5.076   5.989 -0.9469 -1.2387  0.3424
 9265TIP3    H249287   0.182   4.995   5.861 -0.2179 -0.6374 -0.0761
 9266TIP3   OH249288   5.097   5.210  12.944  0.4681  0.1883 -0.0149
 9266TIP3    H149289   5.190   5.227  12.951  0.7111 -1.0953  0.2556
 9266TIP3    H249290   5.091   5.116  12.926 -0.8301 -0.5563  3.4314
 9267TIP3   OH249291   4.918   1.752  17.291 -0.0208 -0.8610  0.6987
 9267TIP3    H149292   4.950   1.779  17.204  1.0836 -2.7049  0.4874
 9267TIP3    H249293   4.940   1.659  17.297  0.3735 -0.6768  3.1577
 9268TIP3   OH249294   3.274   6.013   3.506  0.2739 -0.3179  0.7397
 9268TIP3    H149295   3.206   6.075   3.479  1.2192  0.1695 -0.6556
 9268TIP3    H249296   3.330   6.005   3.429  2.1432 -0.2248  2.0290
 9269TIP3   OH249297   1.208   5.707  13.960 -0.3450  0.6136  0.0071
 9269TIP3    H149298   1.281   5.732  13.903  0.8292 -0.5608  0.9136
 9269TIP3    H249299   1.221   5.758  14.040  0.1232 -0.3463  0.5682
 9270TIP3   OH249300   3.181   0.887   5.262 -0.0183  0.2333  0.4276
 9270TIP3    H149301   3.088   0.868   5.255 -0.1082  1.1412 -1.2301
 9270TIP3    H249302   3.196   0.961   5.203  1.3757  1.4877  2.2106
 9271TIP3   OH249303   1.928   3.800   4.717 -0.0555 -0.3687 -0.2892
 9271TIP3    H149304   1.987   3.745   4.666  0.6669 -0.0389  0.1735
 9271TIP3    H249305   1.979   3.878   4.738  0.5609 -1.5062  2.9970
 9272TIP3   OH249306   4.030   1.269   2.756  0.5398  0.2963 -0.0036
 9272TIP3    H149307   4.001   1.216   2.830 -0.0337  0.5108 -0.0678
 9272TIP3    H249308   4.126   1.265   2.759  0.5035 -1.3372 -0.4476
 9273TIP3   OH249309   2.292   4.667  13.758 -0.8719 -0.1413  0.3362
 9273TIP3    H149310   2.345   4.744  13.778  0.4708 -1.2715  1.1905
 9273TIP3    H249311   2.246   4.647  13.840 -0.2684 -0.9650  0.4864
 9274TIP3   OH249312   2.434   2.829   2.869 -0.3411 -0.4243 -0.1789
 9274TIP3    H149313   2.471   2.898   2.813 -0.9959  0.3912  0.3785
 9274TIP3    H249314   2.484   2.750   2.845  1.1528  0.4476 -0.0895
 9275TIP3   OH249315   0.030   6.254  16.955 -0.5109  0.0002 -0.2623
 9275TIP3    H149316  -0.024   6.216  16.886 -1.6926  0.9479  0.1029
 9275TIP3    H249317   0.020   6.349  16.943 -0.5553  0.1806  1.0562
 9276TIP3   OH249318   5.015   1.620  12.186 -0.6066 -0.5313  0.3857
 9276TIP3    H149319   5.084   1.683  12.207 -1.1306  0.2574 -0.1798
 9276TIP3    H249320   5.052   1.535  12.211  1.4237 -0.4168 -1.8102
 9277TIP3   OH249321   4.592   2.071   2.053  0.4316  0.1112 -0.7247
 9277TIP3    H149322   4.521   2.009   2.038 -0.3486  0.1601  2.1369
 9277TIP3    H249323   4.664   2.039   2.000 -0.8886 -1.5073 -1.6112
 9278TIP3   OH249324   1.771   6.117  11.908 -0.2592 -0.4208 -0.8689
 9278TIP3    H149325   1.711   6.176  11.863 -0.4529 -0.0527 -0.1365
 9278TIP3    H249326   1.808   6.063  11.838 -1.1468 -0.3927 -1.3752
 9279TIP3   OH249327   3.743   4.402   3.898 -0.0032 -0.7206 -0.3465
 9279TIP3    H149328   3.686   4.331   3.869 -0.6625  0.1603 -1.2698
 9279TIP3    H249329   3.831   4.365   3.897 -0.3865 -1.6471 -0.3894
 9280TIP3   OH249330   1.744   0.338   1.837 -0.5533  0.1121 -0.1354
 9280TIP3    H149331   1.808   0.333   1.908  0.4825 -0.6714 -1.0901
 9280TIP3    H249332   1.683   0.267   1.855 -1.9959  1.6636  1.5071
 9281TIP3   OH249333   3.850   1.512   0.350  0.3025 -0.0670 -0.0023
 9281TIP3    H149334   3.846   1.525   0.255  2.8094 -0.5899 -0.2530
 9281TIP3    H249335   3.807   1.428   0.365  1.6750 -0.9789 -0.9806
 9282TIP3   OH249336   0.965   4.118  15.730 -0.5038  0.9220  0.0278
 9282TIP3    H149337   1.025   4.056  15.771 -1.8293 -0.9585 -0.7646
 9282TIP3    H249338   0.976   4.105  15.636 -1.8616  0.8073 -0.1379
 9283TIP3   OH249339   5.969   6.473  14.217 -0.1979  0.4688  0.1256
 9283TIP3    H149340   6.038   6.422  14.259  0.3549 -0.6773 -2.0441
 9283TIP3    H249341   5.900   6.479  14.283  1.5450  0.7986  1.9887
 9284TIP3   OH249342   4.507   2.465   2.536 -0.0419  0.2794  0.0519
 9284TIP3    H149343   4.481   2.488   2.625 -1.6894 -2.6398  0.4587
 9284TIP3    H249344   4.526   2.371   2.541 -1.3342 -0.2494 -2.8914
 9285TIP3   OH249345   2.532   6.364  13.503  0.2495 -0.5614 -0.1153
 9285TIP3    H149346   2.477   6.340  13.428  1.4244 -1.1481 -0.8298
 9285TIP3    H249347   2.598   6.294  13.507  1.1476  0.2847  0.4844
 9286TIP3   OH249348   0.545   2.039  13.422  0.8058 -0.2229 -0.4610
 9286TIP3    H149349   0.490   2.029  13.499  0.0856  0.7746 -0.8214
 9286TIP3    H249350   0.556   1.950  13.388 -2.9601 -0.3130 -1.9697
 9287TIP3   OH249351   5.719   3.708  17.235  0.1651  0.0452  0.0762
 9287TIP3    H149352   5.730   3.799  17.210  0.2609 -0.2551 -1.0069
 9287TIP3    H249353   5.791   3.662  17.191 -0.5220 -0.7040 -0.2803
 9288TIP3   OH249354   4.694   5.544   5.070  0.4172  0.2938  0.5484
 9288TIP3    H149355   4.749   5.539   5.148 -0.2017  1.1530  1.0557
 9288TIP3    H249356   4.681   5.638   5.055  3.1233  0.3809 -2.4676
 9289TIP3   OH249357   1.402   3.974  14.752  0.4359 -0.1070  0.3015
 9289TIP3    H149358   1.480   3.964  14.697 -0.0274  0.5935 -0.5137
 9289TIP3    H249359   1.416   4.056  14.798 -0.6842  1.1033 -1.3788
 9290TIP3   OH249360   5.585   0.186   0.930  0.1980 -0.1790  0.2362
 9290TIP3    H149361   5.496   0.217   0.911  0.1662 -0.8479 -0.7700
 9290TIP3    H249362   5.639   0.226   0.862  0.5481 -0.3791  0.3967
 9291TIP3   OH249363   2.744   3.428  14.166  0.1209  0.0329 -0.0605
 9291TIP3    H149364   2.832   3.453  14.137 -0.7275  3.7309  0.0117
 9291TIP3    H249365   2.747   3.436  14.261 -0.3446  0.5069 -0.0799
 9292TIP3   OH249366   4.466   0.046   6.558 -0.0981  0.3483 -0.0955
 9292TIP3    H149367   4.442   0.136   6.536  2.0385  1.0425  0.2222
 9292TIP3    H249368   4.557   0.037   6.528 -0.0888 -1.5449  0.3553
 9293TIP3   OH249369   5.505   5.502   5.521  0.0896  0.4349  0.1257
 9293TIP3    H149370   5.584   5.528   5.568 -0.0947  0.9101  0.1790
 9293TIP3    H249371   5.434   5.515   5.584 -0.0793  0.3981 -0.0563
 9294TIP3   OH249372   4.133   2.091   4.186  0.7175  0.0033 -0.1313
 9294TIP3    H149373   4.037   2.084   4.180  0.8513 -1.9238 -0.7114
 9294TIP3    H249374   4.149   2.110   4.279 -0.2221  0.6800 -0.0855
 9295TIP3   OH249375   3.148   3.921   4.135 -0.4451  0.6329  0.2633
 9295TIP3    H149376   3.064   3.880   4.155 -0.6448 -0.3214 -2.1951
 9295TIP3    H249377   3.213   3.860   4.170 -0.7853 -0.1940 -0.4940
 9296TIP3   OH249378   3.637   5.982   3.088 -0.6048  0.2046 -0.3470
 9296TIP3    H149379   3.555   5.962   3.043 -1.5189 -0.3275  1.4361
 9296TIP3    H249380   3.693   6.021   3.021 -2.3067  0.5759 -1.6144
 9297TIP3   OH249381   6.088   5.179  14.851  0.1244 -0.5781  0.5021
 9297TIP3    H149382   6.028   5.204  14.781  1.5295  2.6208  0.2902
 9297TIP3    H249383   6.108   5.087  14.833 -2.4513 -0.9443 -1.0300
 9298TIP3   OH249384   2.705   1.620   2.162  0.1650 -0.0029  0.1381
 9298TIP3    H149385   2.724   1.540   2.212  1.6832  0.3162  0.1071
 9298TIP3    H249386   2.731   1.600   2.073 -0.9788 -0.0007 -0.2124
 9299TIP3   OH249387   1.334   0.512   2.932 -0.9602  0.4107  0.2632
 9299TIP3    H149388   1.371   0.532   3.017 -1.8656 -0.3308  0.8536
 9299TIP3    H249389   1.258   0.570   2.924 -0.5966  0.8224 -0.2561
 9300TIP3   OH249390   4.275   1.311  12.458  0.5002  0.0397 -0.0649
 9300TIP3    H149391   4.313   1.399  12.465  1.7682 -0.4984  0.2566
 9300TIP3    H249392   4.339   1.255  12.502 -0.1805 -1.0765 -0.4710
 9301TIP3   OH249393   3.308   0.643   5.628  0.5994  0.5781 -0.3693
 9301TIP3    H149394   3.374   0.643   5.558  2.4379 -1.6733  1.2272
 9301TIP3    H249395   3.267   0.557   5.622  1.1821  0.1135  1.5939
 9302TIP3   OH249396   0.185   1.903   5.335 -0.0248  0.5348  0.0489
 9302TIP3    H149397   0.138   1.891   5.252  0.7864 -0.5599 -0.2856
 9302TIP3    H249398   0.183   1.816   5.376  1.5766  0.4850  0.0727
 9303TIP3   OH249399   1.928   6.300  16.241  0.0295 -0.6564  0.2440
 9303TIP3    H149400   1.874   6.374  16.270  0.3817 -0.5642  0.6719
 9303TIP3    H249401   1.949   6.320  16.149  0.6351  0.0816  0.5364
 9304TIP3   OH249402   5.500   4.474  14.921  0.3022 -0.4804  0.5036
 9304TIP3    H149403   5.438   4.401  14.912  0.3472 -0.3944 -0.7363
 9304TIP3    H249404   5.447   4.546  14.954 -0.2897 -0.4058 -0.5479
 9305TIP3   OH249405   2.164   0.747  12.184 -0.6356 -0.2843 -0.0970
 9305TIP3    H149406   2.170   0.724  12.091 -0.4067  0.3410 -0.2425
 9305TIP3    H249407   2.090   0.696  12.217 -0.7582 -0.4612 -0.6364
 9306TIP3   OH249408   0.038   1.849  15.238 -0.6360 -0.2002  0.1215
 9306TIP3    H149409   0.084   1.766  15.252  0.9148  0.4530 -0.8381
 9306TIP3    H249410  -0.013   1.835  15.158 -1.3641 -0.6055  0.6425
 9307TIP3   OH249411   2.222   6.629  13.908  0.0465  0.5100 -0.2320
 9307TIP3    H149412   2.141   6.663  13.871 -0.2511  0.3080  0.2175
 9307TIP3    H249413   2.261   6.577  13.837 -0.3900  0.3264 -0.3418
 9308TIP3   OH249414   5.494   3.817   0.999 -0.2328  0.1458  0.2061
 9308TIP3    H149415   5.421   3.855   0.951 -0.3800 -1.0586 -0.5590
 9308TIP3    H249416   5.526   3.747   0.943  0.9645  0.0910  0.9214
 9309TIP3   OH249417   6.088   1.702   0.740  0.1485 -0.2501  0.3154
 9309TIP3    H149418   6.066   1.640   0.671  0.9336  1.0758 -1.1825
 9309TIP3    H249419   6.173   1.673   0.772  1.3473  0.9436 -1.5715
 9310TIP3   OH249420   2.584   0.835  16.681  0.2463 -0.8902  0.2559
 9310TIP3    H149421   2.489   0.850  16.685 -0.0475 -0.4862 -3.9554
 9310TIP3    H249422   2.622   0.918  16.711 -0.9550  0.6584 -2.1253
 9311TIP3   OH249423   2.356   1.378   0.844 -1.1623 -0.3558 -0.1580
 9311TIP3    H149424   2.271   1.418   0.863 -0.9213  0.1058 -0.0491
 9311TIP3    H249425   2.364   1.308   0.910 -1.8878 -1.0457 -0.7856
 9312TIP3   OH249426   2.080   4.237  11.658 -0.0938 -0.5587  0.0291
 9312TIP3    H149427   2.144   4.166  11.656 -1.1501 -1.5621  0.4881
 9312TIP3    H249428   2.127   4.311  11.698  1.4863 -0.4753 -1.8553
 9313TIP3   OH249429   5.053   2.611  16.769 -0.1616  0.6705  0.1962
 9313TIP3    H149430   5.116   2.671  16.728 -1.1853 -1.1507 -4.7319
 9313TIP3    H249431   5.107   2.553  16.822  1.6934  1.9033 -0.2302
 9314TIP3   OH249432   6.356   1.784   3.689 -0.6614 -0.1527  0.2604
 9314TIP3    H149433   6.452   1.780   3.685 -0.7519 -1.7784 -1.2461
 9314TIP3    H249434   6.335   1.876   3.673  0.6282  0.1898  0.4385
 9315TIP3   OH249435   1.882   4.715   1.935  0.0125  0.5311 -0.0511
 9315TIP3    H149436   1.962   4.760   1.964 -0.6209  0.9051  1.1847
 9315TIP3    H249437   1.867   4.648   2.002 -0.1225 -0.2717 -0.8605
 9316TIP3   OH249438   5.498   1.171   0.789  0.0007  0.4341  0.2053
 9316TIP3    H149439   5.472   1.238   0.852  0.7201  0.1909  0.7723
 9316TIP3    H249440   5.432   1.102   0.800  0.0316  0.4605  0.5800
 9317TIP3   OH249441   3.407   1.953   1.123 -0.3216 -0.1206 -0.2112
 9317TIP3    H149442   3.431   1.920   1.210  0.5833  0.4541 -0.2221
 9317TIP3    H249443   3.313   1.968   1.128 -0.6157 -1.8743  0.0565
 9318TIP3   OH249444   6.026   6.617   2.560  0.9664  0.3066  0.6837
 9318TIP3    H149445   6.055   6.618   2.651  1.4334  0.0295  0.5409
 9318TIP3    H249446   5.936   6.587   2.564  0.9975  0.2596  1.0539
 9319TIP3   OH249447   3.693   1.242   0.842  0.2464  0.2836  0.1894
 9319TIP3    H149448   3.627   1.266   0.907 -3.6214 -1.5684 -2.6800
 9319TIP3    H249449   3.720   1.153   0.867 -0.2168  0.0939  0.0199
 9320TIP3   OH249450   2.748   1.220  10.778  0.3180  0.6400 -0.2355
 9320TIP3    H149451   2.668   1.254  10.737 -0.0435  0.4307  0.2809
 9320TIP3    H249452   2.782   1.293  10.828 -0.0156  0.4850  0.2227
 9321TIP3   OH249453   2.556   0.654   3.686 -0.7222 -0.0705 -0.3979
 9321TIP3    H149454   2.533   0.593   3.756 -0.9650 -0.7444 -1.0394
 9321TIP3    H249455   2.498   0.629   3.613 -1.3201  1.3913 -0.4585
 9322TIP3   OH249456   1.981   2.340  11.546 -0.6942  0.8810  0.0913
 9322TIP3    H149457   1.995   2.266  11.605  1.0063  2.3661  1.6476
 9322TIP3    H249458   2.055   2.338  11.485 -0.9553  0.9660 -0.2345
 9323TIP3   OH249459   4.778   2.379  12.297  0.3106  0.1959  0.0681
 9323TIP3    H149460   4.703   2.323  12.313 -1.5696  2.9197  1.7426
 9323TIP3    H249461   4.763   2.416  12.210  0.0820  0.1869  0.1036
 9324TIP3   OH249462   5.266   2.141  16.699  0.3306  0.0101 -0.1873
 9324TIP3    H149463   5.345   2.158  16.750 -0.0631 -0.2338  0.5149
 9324TIP3    H249464   5.288   2.169  16.610  1.9675 -2.0494 -0.5096
 9325TIP3   OH249465   6.429   1.472  16.975  0.0813 -0.4646  0.7612
 9325TIP3    H149466   6.368   1.429  17.034 -1.0041  1.6311  1.2215
 9325TIP3    H249467   6.396   1.452  16.887 -1.4818  0.8703  1.0091
 9326TIP3   OH249468   6.565   1.960  16.394  0.0603  0.2880 -0.4452
 9326TIP3    H149469   6.509   1.987  16.322 -0.3675 -1.2408 -0.7279
 9326TIP3    H249470   6.527   1.878  16.424  0.9846  0.2481  0.6841
 9327TIP3   OH249471   6.333   2.038   5.526  0.2938  1.1473 -0.3647
 9327TIP3    H149472   6.414   2.006   5.567  0.0305 -1.0537 -1.4123
 9327TIP3    H249473   6.264   2.015   5.587  0.1185 -0.3152 -1.0617
 9328TIP3   OH249474   2.383   2.298  15.285  0.3814 -0.1352 -0.4991
 9328TIP3    H149475   2.340   2.229  15.337  0.9125 -0.8427 -0.9757
 9328TIP3    H249476   2.338   2.295  15.201 -1.4375  1.9577  0.2977
 9329TIP3   OH249477   1.656   4.028   3.647 -0.8870 -0.3104 -0.1460
 9329TIP3    H149478   1.631   3.936   3.658  0.5883 -0.5934  1.1353
 9329TIP3    H249479   1.749   4.031   3.669 -0.7175  1.3638 -0.9271
 9330TIP3   OH249480   1.956   1.302   1.079 -0.0249  0.2144 -0.2195
 9330TIP3    H149481   1.883   1.292   1.141 -0.5878  0.9914 -0.7340
 9330TIP3    H249482   2.004   1.378   1.112  2.2362 -1.9055  1.7251
 9331TIP3   OH249483   5.343   0.300  14.005  0.2992 -0.1682 -0.2534
 9331TIP3    H149484   5.351   0.348  14.087  1.3734 -0.7626  0.0189
 9331TIP3    H249485   5.312   0.364  13.942  1.2224  0.7690  0.2127
 9332TIP3   OH249486   4.344   4.171   2.175 -0.3462 -0.2747  0.5566
 9332TIP3    H149487   4.368   4.236   2.110  1.6624  0.9901  2.4223
 9332TIP3    H249488   4.318   4.222   2.252  1.0882 -1.5878  2.0021
 9333TIP3   OH249489   3.619   6.170  16.411  0.3414  0.3086  0.1321
 9333TIP3    H149490   3.600   6.264  16.410 -1.5273  0.0288 -2.4211
 9333TIP3    H249491   3.638   6.149  16.319 -2.0265 -2.2454  0.1107
 9334TIP3   OH249492   6.199   2.048   2.027  0.3773 -0.2720  0.3008
 9334TIP3    H149493   6.282   2.073   1.987  0.3695 -0.2285  0.3109
 9334TIP3    H249494   6.151   2.002   1.959  0.4975 -0.4847  0.3605
 9335TIP3   OH249495   2.531   4.594  11.187  0.0093  0.3249  0.1629
 9335TIP3    H149496   2.613   4.575  11.232  0.5702 -1.1621 -1.4119
 9335TIP3    H249497   2.479   4.514  11.196 -0.1195  0.2257 -1.2352
 9336TIP3   OH249498   5.331   6.351   4.419 -0.2740 -0.4067 -0.0289
 9336TIP3    H149499   5.327   6.275   4.477  1.4161 -0.5183 -0.0098
 9336TIP3    H249500   5.417   6.345   4.377 -0.5242  0.9363 -0.7954
 9337TIP3   OH249501   6.330   4.333  13.471 -0.2077 -0.0082 -0.1400
 9337TIP3    H149502   6.358   4.392  13.541  1.6366  0.9820 -1.6253
 9337TIP3    H249503   6.361   4.247  13.499 -0.0335  0.2654  0.5334
 9338TIP3   OH249504   4.293   5.583  12.875 -0.0534 -0.2835  0.5993
 9338TIP3    H149505   4.305   5.645  12.803  0.8809 -0.9303  0.1925
 9338TIP3    H249506   4.231   5.627  12.934 -0.9976  0.1656 -0.6857
 9339TIP3   OH249507   2.576   0.681  13.298 -0.0414 -0.0204 -0.4753
 9339TIP3    H149508   2.529   0.645  13.223  0.4542 -0.3496 -0.6363
 9339TIP3    H249509   2.512   0.683  13.369 -0.7621  1.1175 -1.1320
 9340TIP3   OH249510   1.397   3.469  14.981 -0.3976 -0.2792 -0.3423
 9340TIP3    H149511   1.422   3.421  15.059  1.9432  1.8909  0.3696
 9340TIP3    H249512   1.302   3.480  14.989 -0.4208 -1.3859  1.4100
 9341TIP3   OH249513   3.395   2.042   1.676 -0.6214  0.6457  0.3200
 9341TIP3    H149514   3.408   1.954   1.711 -0.2551  0.2391 -0.7978
 9341TIP3    H249515   3.300   2.052   1.672 -0.6794  0.8074  1.6466
 9342TIP3   OH249516   3.860   2.362   2.156 -0.1277  0.0320  0.1574
 9342TIP3    H149517   3.848   2.425   2.227  1.2171 -0.2770  0.6986
 9342TIP3    H249518   3.934   2.308   2.185 -0.9698 -1.5195 -0.4771
 9343TIP3   OH249519   1.224   5.952   0.332 -0.5548  0.5204 -0.4124
 9343TIP3    H149520   1.216   5.943   0.237  0.5796  0.3260 -0.4955
 9343TIP3    H249521   1.216   6.046   0.348 -1.1561  0.5188 -0.6456
 9344TIP3   OH249522   1.712   0.345   4.714  0.0717 -0.2672  0.6042
 9344TIP3    H149523   1.641   0.379   4.660 -1.0132  1.9864  3.1713
 9344TIP3    H249524   1.721   0.254   4.688 -3.7584 -0.6593  0.0547
 9345TIP3   OH249525   5.359   5.313  15.040  0.0138 -0.0981  0.1361
 9345TIP3    H149526   5.376   5.385  14.980  0.1647  0.5598  0.9593
 9345TIP3    H249527   5.321   5.245  14.985  1.0428  0.1238 -0.8983
 9346TIP3   OH249528   1.623   2.396  13.260  0.4933 -0.2492  0.5051
 9346TIP3    H149529   1.715   2.420  13.248  0.2751  0.8860  1.0127
 9346TIP3    H249530   1.607   2.412  13.353  0.3733 -2.5883  0.9442
 9347TIP3   OH249531   1.525   1.767   1.093  0.0760 -0.5254 -0.4624
 9347TIP3    H149532   1.516   1.830   1.022 -1.8142  0.4163  0.5600
 9347TIP3    H249533   1.560   1.817   1.167  1.4954 -1.3739 -0.5131
 9348TIP3   OH249534   4.648   3.338   1.161  0.1676  0.2271  0.3276
 9348TIP3    H149535   4.578   3.280   1.134  0.6686  0.5354 -1.7935
 9348TIP3    H249536   4.608   3.425   1.162  0.3827  0.3403 -0.4111
 9349TIP3   OH249537   0.276   2.911  16.168  0.5639  0.0593 -0.2926
 9349TIP3    H149538   0.287   2.823  16.132 -1.3842 -0.2970 -0.1139
 9349TIP3    H249539   0.280   2.968  16.091  0.7917 -0.2669 -0.5307
 9350TIP3   OH249540   4.308   5.582  12.447 -0.1082  0.2600  0.3316
 9350TIP3    H149541   4.265   5.496  12.437  0.2651  0.1480 -0.3869
 9350TIP3    H249542   4.290   5.607  12.538 -0.2998 -0.5381  0.5242
 9351TIP3   OH249543   1.001   0.576  10.750  0.2685 -0.0483 -0.1952
 9351TIP3    H149544   1.002   0.483  10.773  1.6218 -0.5076 -1.9006
 9351TIP3    H249545   1.093   0.604  10.758 -0.2438  1.3968  1.1308
 9352TIP3   OH249546   2.323   6.818   2.496 -0.3722  0.1955  0.3441
 9352TIP3    H149547   2.254   6.752   2.509  1.2545 -1.2926  2.0003
 9352TIP3    H249548   2.399   6.768   2.468  0.3679  1.6755 -0.3847
 9353TIP3   OH249549   3.548   2.179  13.821  0.3513  0.0802 -0.2822
 9353TIP3    H149550   3.640   2.154  13.816 -0.3466 -2.6756 -1.1068
 9353TIP3    H249551   3.513   2.127  13.894 -0.6173  0.9151 -0.1248
 9354TIP3   OH249552   2.796   0.155  13.467  0.1917  0.0030 -0.0811
 9354TIP3    H149553   2.773   0.221  13.532  0.1393 -0.7587  0.7036
 9354TIP3    H249554   2.859   0.198  13.410  2.2864 -0.0538  2.0375
 9355TIP3   OH249555   0.204   4.453  12.958  0.0415  0.0548 -1.1037
 9355TIP3    H149556   0.199   4.514  12.885 -0.3519  0.5145 -0.7061
 9355TIP3    H249557   0.113   4.440  12.984  0.2349  1.0158  0.1948
 9356TIP3   OH249558   0.113   3.233  11.558 -0.0576  0.4087 -0.2659
 9356TIP3    H149559   0.159   3.155  11.589  0.5709  1.2081  0.9207
 9356TIP3    H249560   0.045   3.248  11.624 -0.5017  0.5735 -0.7552
 9357TIP3   OH249561   2.347   3.243  17.268  0.3505 -0.5824  0.3846
 9357TIP3    H149562   2.373   3.274  17.181  0.4932 -0.1842  0.5721
 9357TIP3    H249563   2.412   3.177  17.291  1.3982  0.6411  0.9959
 9358TIP3   OH249564   4.987   5.484   2.025  0.1687  0.2176 -0.4532
 9358TIP3    H149565   4.939   5.540   1.964 -1.3895  0.6302  1.0845
 9358TIP3    H249566   5.070   5.529   2.039 -0.8995  2.0121  0.4652
 9359TIP3   OH249567   2.061   2.143  16.833  0.3854 -0.0886  0.0321
 9359TIP3    H149568   2.111   2.066  16.861  0.0890 -0.2958 -0.0022
 9359TIP3    H249569   2.119   2.217  16.851  0.3465 -0.2464  0.8600
 9360TIP3   OH249570   2.692   1.685   1.216 -0.5051  0.8584 -0.1026
 9360TIP3    H149571   2.768   1.644   1.256 -0.9843 -0.2352 -0.2719
 9360TIP3    H249572   2.645   1.613   1.174 -3.2372  0.8944  2.5138
 9361TIP3   OH249573   5.843   2.879   4.020  0.4535 -0.3942  0.1491
 9361TIP3    H149574   5.870   2.929   3.943 -0.0630  1.0573  0.8727
 9361TIP3    H249575   5.898   2.912   4.091  1.4514 -2.2523  0.2794
 9362TIP3   OH249576   0.754   0.896  10.664  0.5377 -0.2909  0.2169
 9362TIP3    H149577   0.845   0.912  10.639 -0.0059  1.5589 -0.7804
 9362TIP3    H249578   0.719   0.840  10.595  0.4742  0.4056 -0.3232
 9363TIP3   OH249579   5.127   0.137  15.384 -0.4942 -0.4129  0.1128
 9363TIP3    H149580   5.197   0.146  15.450  0.1584  0.7754 -0.7001
 9363TIP3    H249581   5.174   0.122  15.302 -1.1948  0.1807 -0.4091
 9364TIP3   OH249582   4.225   5.638   4.118 -0.1571 -0.0126  0.5873
 9364TIP3    H149583   4.305   5.618   4.167 -0.1440 -1.2615  0.0963
 9364TIP3    H249584   4.154   5.615   4.178 -0.1968  2.2157  1.4713
 9365TIP3   OH249585   6.115   3.763   0.095 -0.4559  0.1599  0.1222
 9365TIP3    H149586   6.132   3.669   0.102  0.6431  0.3863  0.6851
 9365TIP3    H249587   6.066   3.772   0.013  0.3080 -0.7997 -0.4679
 9366TIP3   OH249588   6.015   3.055  12.504  0.3711 -0.0129 -0.1243
 9366TIP3    H149589   6.024   2.965  12.536 -0.1371  0.1016  0.3471
 9366TIP3    H249590   5.942   3.051  12.442  0.2324  0.1108  0.0316
 9367TIP3   OH249591   3.647   2.028   4.766 -0.3350 -0.4066 -0.8342
 9367TIP3    H149592   3.711   1.996   4.830  0.5832  0.7171 -1.1528
 9367TIP3    H249593   3.647   2.123   4.778 -2.7511 -0.4431 -0.1241
 9368TIP3   OH249594   3.939   4.097   3.538  0.0848 -0.0909  0.0862
 9368TIP3    H149595   3.912   4.149   3.463 -0.2698  0.6511  0.7150
 9368TIP3    H249596   4.033   4.114   3.546  0.0869 -0.0246 -0.0877
 9369TIP3   OH249597   4.324   4.212  14.671  0.2378  0.4217 -0.3008
 9369TIP3    H149598   4.255   4.248  14.616  0.0767 -0.0826 -0.4317
 9369TIP3    H249599   4.402   4.212  14.615  0.2329  0.5477 -0.3072
 9370TIP3   OH249600   2.016   6.293  12.658 -0.3638 -0.2561 -0.2280
 9370TIP3    H149601   2.067   6.352  12.602  2.3611 -1.3141  0.9454
 9370TIP3    H249602   1.960   6.351  12.710  0.3141  1.0760 -0.9495
 9371TIP3   OH249603   2.476   5.595  13.146  0.7623  0.1323 -0.4370
 9371TIP3    H149604   2.505   5.519  13.095 -1.4101  0.2635 -1.9906
 9371TIP3    H249605   2.418   5.643  13.087  1.4020  2.5812  0.7863
 9372TIP3   OH249606   6.569   0.424  11.636  0.1579 -0.3189 -0.7455
 9372TIP3    H149607   6.657   0.414  11.673 -0.4064 -0.4003  0.6741
 9372TIP3    H249608   6.527   0.340  11.652 -1.1363  0.6304  1.4412
 9373TIP3   OH249609   5.925   6.563  13.328  0.3744 -0.2424 -0.0093
 9373TIP3    H149610   5.930   6.603  13.241  0.6088 -0.7186 -0.2182
 9373TIP3    H249611   5.860   6.493  13.318  0.0148  0.0363  0.3375
 9374TIP3   OH249612   4.318   0.439  16.838 -0.3406 -0.3518  1.0009
 9374TIP3    H149613   4.237   0.482  16.810 -0.7634 -1.4105  0.5346
 9374TIP3    H249614   4.296   0.401  16.924 -0.3665 -0.7054  0.8392
 9375TIP3   OH249615   0.127   5.880   1.237 -0.2143  0.0695  0.3168
 9375TIP3    H149616   0.123   5.799   1.287 -0.4850 -0.2580 -0.2295
 9375TIP3    H249617   0.196   5.931   1.279 -1.5559  0.5253  2.0894
 9376TIP3   OH249618   1.632   0.747   4.774  0.1369 -0.8815  0.2180
 9376TIP3    H149619   1.672   0.814   4.828 -1.4709  0.1872  0.1398
 9376TIP3    H249620   1.659   0.767   4.685 -1.2581  0.4253  0.0421
 9377TIP3   OH249621   0.430   5.934   2.345 -0.0697  0.1887  0.5214
 9377TIP3    H149622   0.481   6.015   2.344 -1.4937  1.1405 -0.3377
 9377TIP3    H249623   0.455   5.889   2.264 -0.1088  0.3302  0.4302
 9378TIP3   OH249624   1.074   5.557  16.133 -0.1147 -0.4693 -0.4797
 9378TIP3    H149625   1.019   5.590  16.203  0.3322 -1.0828  0.1687
 9378TIP3    H249626   1.135   5.629  16.115  0.0359 -0.4621  0.0479
 9379TIP3   OH249627   4.194   2.524  10.703 -0.2637 -0.3394 -0.0698
 9379TIP3    H149628   4.257   2.490  10.765  2.5297  0.3345 -2.3095
 9379TIP3    H249629   4.167   2.448  10.651 -1.2123 -0.5846  0.7371
 9380TIP3   OH249630   5.829   4.334  11.974  0.3353 -0.1951 -0.0965
 9380TIP3    H149631   5.736   4.356  11.987 -0.0343 -1.8871  0.4009
 9380TIP3    H249632   5.855   4.293  12.056  1.8109  1.0676  0.1076
 9381TIP3   OH249633   5.679   2.630   1.156 -0.1270 -0.2732 -0.8492
 9381TIP3    H149634   5.704   2.723   1.156  0.4979 -0.4205 -1.9583
 9381TIP3    H249635   5.601   2.627   1.210  1.2069  0.5028  1.2586
 9382TIP3   OH249636   1.720   1.948   5.449  0.6072  0.1446 -0.0257
 9382TIP3    H149637   1.745   1.881   5.512  0.1338 -0.0916 -0.0875
 9382TIP3    H249638   1.663   1.903   5.387  1.3203  0.3040 -0.8067
 9383TIP3   OH249639   2.130   1.544   2.997 -0.4002  0.0212  0.6935
 9383TIP3    H149640   2.154   1.452   3.003  0.8076  0.2140 -0.4575
 9383TIP3    H249641   2.157   1.570   2.908  0.2597  1.7181  1.3331
 9384TIP3   OH249642   2.245   6.679   4.740  0.2254 -0.2406  0.8427
 9384TIP3    H149643   2.179   6.619   4.773 -0.7654  0.3078 -0.0752
 9384TIP3    H249644   2.328   6.632   4.748 -0.3980 -1.3021  1.1217
 9385TIP3   OH249645   5.080   1.446   5.838 -0.2447  0.0909 -0.4599
 9385TIP3    H149646   5.137   1.460   5.914 -2.1469  1.5141  0.7930
 9385TIP3    H249647   5.125   1.490   5.766 -0.2706  2.2946  0.7792
 9386TIP3   OH249648   1.023   1.214   2.844  0.1391  0.2749  0.6979
 9386TIP3    H149649   0.948   1.185   2.894 -0.3273  0.1580 -0.0566
 9386TIP3    H249650   1.011   1.309   2.835 -2.1419 -0.1528 -2.8570
 9387TIP3   OH249651   2.873   3.525   0.788 -0.0414 -0.3638  0.3202
 9387TIP3    H149652   2.885   3.535   0.694  1.1084  0.0916  0.4963
 9387TIP3    H249653   2.854   3.613   0.820 -1.0745 -0.6187  0.4439
 9388TIP3   OH249654   1.007   0.038   3.341 -0.0863 -0.2208 -0.1013
 9388TIP3    H149655   0.930  -0.002   3.380  0.2735 -0.3666  0.4763
 9388TIP3    H249656   1.070   0.043   3.413  0.2913  0.2834 -0.4655
 9389TIP3   OH249657   5.768   2.903  13.508  0.5723 -0.3779  0.5964
 9389TIP3    H149658   5.808   2.940  13.429  0.2935 -1.2109  0.0523
 9389TIP3    H249659   5.727   2.979  13.551 -1.2890 -0.2054 -1.2800
 9390TIP3   OH249660   0.430   0.033   2.557  0.2627 -0.4090 -0.7953
 9390TIP3    H149661   0.505   0.011   2.612 -0.8904 -1.6013  0.3898
 9390TIP3    H249662   0.388  -0.052   2.539 -0.9593  0.2512 -1.1750
 9391TIP3   OH249663   3.937   4.952  11.142 -0.1424 -0.1449  0.2829
 9391TIP3    H149664   3.879   5.003  11.085 -0.4104  0.1206  0.7920
 9391TIP3    H249665   3.895   4.867  11.149  0.7732 -0.7857 -1.3298
 9392TIP3   OH249666   3.690   3.268  15.077  0.0112  0.1382 -0.1573
 9392TIP3    H149667   3.648   3.354  15.068 -2.0619 -0.8618 -0.7308
 9392TIP3    H249668   3.643   3.226  15.150  0.2526 -0.9053 -0.5858
 9393TIP3   OH249669   3.143   0.716  13.977 -0.4648 -0.2274 -0.3274
 9393TIP3    H149670   3.109   0.631  14.004 -2.3379  0.0117 -1.7627
 9393TIP3    H249671   3.192   0.699  13.897  1.5397 -0.2984  0.8230
 9394TIP3   OH249672   0.078   4.103   4.675  0.3019 -0.4034  0.0065
 9394TIP3    H149673   0.032   4.179   4.711 -2.4388 -1.9336 -0.0218
 9394TIP3    H249674   0.081   4.040   4.747  3.6765  0.0313  0.4421
 9395TIP3   OH249675   0.329   0.117  16.140  0.4745  0.0894  0.1459
 9395TIP3    H149676   0.404   0.175  16.132  1.0093 -0.7356 -1.0712
 9395TIP3    H249677   0.352   0.056  16.210  0.9881 -0.2229 -0.2928
 9396TIP3   OH249678   5.140   2.099  17.220  0.0632  0.4408 -0.2782
 9396TIP3    H149679   5.161   2.006  17.216  0.4170  0.5434 -0.9979
 9396TIP3    H249680   5.101   2.118  17.134 -1.9813  0.4947  0.5970
 9397TIP3   OH249681   1.489   6.517  17.242  0.3381 -0.8977  0.2526
 9397TIP3    H149682   1.439   6.513  17.324 -1.4603  0.2853 -0.7123
 9397TIP3    H249683   1.482   6.429  17.205 -1.7215 -0.6098 -0.1834
 9398TIP3   OH249684   0.167   5.047   2.100 -0.4592 -0.1258 -0.0094
 9398TIP3    H149685   0.143   5.121   2.156 -1.5983 -0.2827 -0.2592
 9398TIP3    H249686   0.176   4.974   2.160 -1.4053 -0.2321  0.0288
 9399TIP3   OH249687   6.079   0.706  16.706 -0.5949  0.4310  0.0667
 9399TIP3    H149688   6.142   0.641  16.678  0.0069  0.7049  0.7416
 9399TIP3    H249689   6.039   0.738  16.625  0.8590  0.9776 -0.4641
 9400TIP3   OH249690   3.707   1.284  10.987  0.4656 -0.6445 -0.4962
 9400TIP3    H149691   3.636   1.302  10.926  0.7777 -2.5481 -1.4910
 9400TIP3    H249692   3.665   1.244  11.063  0.1339  1.3170  0.4344
 9401TIP3   OH249693   6.563   5.371   2.313  0.1156 -0.9392 -0.3306
 9401TIP3    H149694   6.507   5.345   2.240 -0.4666  0.2289 -0.3359
 9401TIP3    H249695   6.573   5.292   2.366 -2.3524 -0.9749  0.1873
 9402TIP3   OH249696   4.576   0.078  14.274 -0.1192  0.1187  0.3738
 9402TIP3    H149697   4.519   0.036  14.210 -1.4559  0.8944  1.0211
 9402TIP3    H249698   4.615   0.151  14.226 -0.9103  0.5378  0.3452
 9403TIP3   OH249699   1.422   4.479  12.693  0.7040  0.2389  0.5978
 9403TIP3    H149700   1.372   4.424  12.753  0.2671 -0.3247 -0.2656
 9403TIP3    H249701   1.510   4.441  12.692  0.1474 -1.0597 -0.7455
 9404TIP3   OH249702   4.908   6.382  15.432 -0.2401 -0.3317  0.1792
 9404TIP3    H149703   4.850   6.393  15.507 -0.7624 -1.4682 -0.0298
 9404TIP3    H249704   4.923   6.471  15.400 -0.4606  0.1195  1.2826
 9405TIP3   OH249705   4.338   6.681   1.805 -0.3020  0.0680 -0.4148
 9405TIP3    H149706   4.306   6.686   1.895 -1.2215  0.7134 -0.7678
 9405TIP3    H249707   4.404   6.750   1.799 -0.7346  0.4784 -0.4325
 9406TIP3   OH249708   6.593   5.243  13.744 -0.3970  0.1798  0.6331
 9406TIP3    H149709   6.597   5.147  13.736 -2.3569  0.0729  0.4684
 9406TIP3    H249710   6.560   5.273  13.660 -1.6161  0.8114  1.2995
 9407TIP3   OH249711   4.377   1.421  14.603 -0.0439 -0.2540 -0.0551
 9407TIP3    H149712   4.434   1.491  14.635 -0.1642 -0.6339  1.0496
 9407TIP3    H249713   4.436   1.346  14.592 -0.1843 -0.4296  0.3509
 9408TIP3   OH249714   6.817   2.133   0.493  0.5255 -0.2526  0.2498
 9408TIP3    H149715   6.809   2.107   0.402 -2.3133  1.1120 -0.0039
 9408TIP3    H249716   6.756   2.076   0.540  1.4095 -0.4483  1.2007
 9409TIP3   OH249717   6.778   5.867   3.068  0.5555  0.5695  0.6820
 9409TIP3    H149718   6.718   5.931   3.106 -0.8190 -0.0826 -0.3040
 9409TIP3    H249719   6.838   5.919   3.015 -0.9290  1.0157 -0.6123
 9410TIP3   OH249720   6.071   4.237  10.647  0.9088 -0.2475  0.4891
 9410TIP3    H149721   6.161   4.251  10.617  0.5647 -1.8257 -1.5329
 9410TIP3    H249722   6.074   4.154  10.694  0.7580  0.4222  1.7047
 9411TIP3   OH249723   5.346   4.615   2.643 -0.3563 -0.1428  0.3536
 9411TIP3    H149724   5.409   4.682   2.672 -2.5467  1.7118  1.1719
 9411TIP3    H249725   5.291   4.600   2.720 -0.7494 -1.9248 -0.2481
 9412TIP3   OH249726   4.738   0.645  13.671  0.5002 -0.0470 -0.9197
 9412TIP3    H149727   4.742   0.556  13.706  0.9795  0.9286  1.6938
 9412TIP3    H249728   4.814   0.689  13.708 -0.9402  2.0598 -0.2566
 9413TIP3   OH249729   4.393   6.772  14.105 -0.0348 -0.1516  0.7428
 9413TIP3    H149730   4.343   6.692  14.123  0.9074 -1.1119 -0.6534
 9413TIP3    H249731   4.330   6.829  14.060 -0.0943 -1.0795 -0.3962
 9414TIP3   OH249732   6.718   6.629   2.285 -0.2807 -0.2317  0.1244
 9414TIP3    H149733   6.633   6.661   2.313 -0.5281  0.2097 -1.0723
 9414TIP3    H249734   6.751   6.697   2.226  0.6141 -0.6963  0.0659
 9415TIP3   OH249735   6.669   6.017   5.333  0.6513 -0.6999 -0.2736
 9415TIP3    H149736   6.740   5.955   5.317  0.0440 -1.3323 -0.5493
 9415TIP3    H249737   6.610   5.970   5.393  0.8302  0.0995  0.5587
 9416TIP3   OH249738   4.990   0.495   4.595 -0.1435  0.2029 -0.7516
 9416TIP3    H149739   4.961   0.484   4.505 -1.2303 -1.7090 -0.2312
 9416TIP3    H249740   5.079   0.460   4.597 -0.7087 -1.2900 -0.7809
 9417TIP3   OH249741   1.173   1.541  16.039 -0.3003 -0.6258 -0.3415
 9417TIP3    H149742   1.149   1.486  16.114  0.4766 -0.5849 -0.0538
 9417TIP3    H249743   1.090   1.578  16.009 -0.7932 -1.6782 -0.3229
 9418TIP3   OH249744   0.877   1.068  14.477  0.2611  0.3705  0.7604
 9418TIP3    H149745   0.915   1.062  14.389 -0.1389 -1.2238  0.6628
 9418TIP3    H249746   0.945   1.109  14.529  1.8478 -1.6049  0.3856
 9419TIP3   OH249747   3.088   2.587   1.948  0.7451 -0.9303 -0.0776
 9419TIP3    H149748   3.033   2.520   1.907 -0.9593 -0.2555  1.0068
 9419TIP3    H249749   3.048   2.670   1.923  2.7980 -0.2433 -1.3505
 9420TIP3   OH249750   6.496   0.170   2.070 -0.0583 -0.0417 -0.5841
 9420TIP3    H149751   6.413   0.132   2.097 -0.1225  1.1950  1.1919
 9420TIP3    H249752   6.537   0.103   2.015 -2.4423 -0.4398 -1.9874
 9421TIP3   OH249753   1.052   4.184   6.067 -0.0335 -0.1238 -0.4095
 9421TIP3    H149754   1.033   4.186   6.160  0.4663  0.5193 -0.3120
 9421TIP3    H249755   0.969   4.160   6.026 -0.3779  0.0661  0.1659
 9422TIP3   OH249756   1.112   2.506  17.124 -0.0330  0.6822 -0.0826
 9422TIP3    H149757   1.052   2.544  17.060 -1.8644 -1.0535  0.4838
 9422TIP3    H249758   1.198   2.511  17.082 -1.1029 -0.1486 -2.5866
 9423TIP3   OH249759   6.254   4.541   4.774  0.6677  0.2463  0.0360
 9423TIP3    H149760   6.176   4.587   4.743 -0.6997 -1.2069  1.2049
 9423TIP3    H249761   6.256   4.460   4.724  1.8103  0.5257 -0.4154
 9424TIP3   OH249762   3.457   3.899  15.149  0.1033  0.4869 -0.2948
 9424TIP3    H149763   3.500   3.873  15.067  1.4717  0.9487  0.2362
 9424TIP3    H249764   3.485   3.989  15.163 -2.4572  1.4321 -0.7571
 9425TIP3   OH249765   5.442   5.248   0.022 -0.9766 -0.1177  0.3235
 9425TIP3    H149766   5.443   5.280   0.112 -2.5345  1.1401 -0.0448
 9425TIP3    H249767   5.385   5.172   0.024  0.6830 -1.4086  0.7373
 9426TIP3   OH249768   3.284   1.659  14.872  0.3502 -0.0036  0.0280
 9426TIP3    H149769   3.347   1.726  14.896  2.7480 -1.5452 -1.5343
 9426TIP3    H249770   3.201   1.689  14.909  1.6282  2.9659  0.7268
 9427TIP3   OH249771   2.553   5.441   2.620 -0.4019 -0.3462 -0.3337
 9427TIP3    H149772   2.595   5.402   2.696 -0.8916 -1.5910 -0.6710
 9427TIP3    H249773   2.504   5.516   2.654 -0.6858 -0.9398  0.5990
 9428TIP3   OH249774   0.833   3.388   4.630 -0.4517 -0.8856 -0.0187
 9428TIP3    H149775   0.881   3.342   4.561  0.5569  0.0756  0.0243
 9428TIP3    H249776   0.849   3.481   4.613 -1.5255 -0.5749  0.5668
 9429TIP3   OH249777   6.776   2.793  15.966 -0.3204 -0.4870 -0.3048
 9429TIP3    H149778   6.752   2.847  16.041 -0.0533 -0.0758 -0.5093
 9429TIP3    H249779   6.692   2.772  15.924 -0.5552 -1.5607  0.6669
 9430TIP3   OH249780   1.817   3.044   3.451  0.0980 -0.5231 -0.2597
 9430TIP3    H149781   1.806   2.990   3.530 -0.1574  1.1616  0.8935
 9430TIP3    H249782   1.904   3.020   3.419  0.1965 -1.2597  0.5137
 9431TIP3   OH249783   6.135   3.990  15.781 -0.4428  0.4609  0.2858
 9431TIP3    H149784   6.123   4.046  15.857  0.2344  1.5253 -0.3786
 9431TIP3    H249785   6.066   3.924  15.790  0.3227 -0.1554  2.4254
 9432TIP3   OH249786   1.791   3.326  17.295  0.0611 -0.1092  0.7826
 9432TIP3    H149787   1.872   3.346  17.248 -0.1628  2.1973  1.2469
 9432TIP3    H249788   1.736   3.282  17.230 -0.0137  2.4555 -1.0539
 9433TIP3   OH249789   5.936   6.275   2.446  0.0886  0.3430  0.1299
 9433TIP3    H149790   5.845   6.286   2.417 -0.9500 -1.7149  2.2542
 9433TIP3    H249791   5.988   6.294   2.369 -2.2476 -0.3551 -1.7410
 9434TIP3   OH249792   6.289   5.064   2.223  0.1589 -0.2288  0.3090
 9434TIP3    H149793   6.226   5.126   2.260 -0.6097 -0.8705  0.0855
 9434TIP3    H249794   6.328   5.021   2.298  0.1821  0.0173  0.4396
 9435TIP3   OH249795   2.314   1.437  13.350 -0.5265 -0.1970  0.8495
 9435TIP3    H149796   2.314   1.345  13.325 -0.6890  0.3407 -1.4537
 9435TIP3    H249797   2.252   1.443  13.423 -1.7289 -1.6833  0.0211
 9436TIP3   OH249798   2.911   1.128  12.962  0.2277  0.8444  0.0991
 9436TIP3    H149799   2.943   1.042  12.990 -1.9698 -0.4834 -1.2088
 9436TIP3    H249800   2.832   1.109  12.912 -1.0202  3.7477  0.8066
 9437TIP3   OH249801   4.996   4.957   0.040  0.2972  0.3273 -0.1698
 9437TIP3    H149802   4.970   4.976   0.130  2.0737 -0.0295  0.4756
 9437TIP3    H249803   4.970   4.866   0.026 -4.2145  1.5934 -1.7386
 9438TIP3   OH249804   2.923   4.530   5.451  0.0110  0.2348  0.2665
 9438TIP3    H149805   2.837   4.570   5.438  0.9974  2.9068  1.2552
 9438TIP3    H249806   2.978   4.567   5.382  0.6319 -0.5832  0.2999
 9439TIP3   OH249807   4.764   2.647   4.327 -0.1608  0.1992 -0.4552
 9439TIP3    H149808   4.704   2.612   4.392  3.2863 -1.1948  2.2709
 9439TIP3    H249809   4.808   2.719   4.371  1.0149  0.4239 -1.9071
 9440TIP3   OH249810   3.882   1.230   2.474 -0.3668  0.4907  0.4283
 9440TIP3    H149811   3.877   1.230   2.570 -0.7244  1.8226  0.4349
 9440TIP3    H249812   3.838   1.311   2.448  1.8310  1.4108 -0.7321
 9441TIP3   OH249813   5.473   4.864  11.880 -0.3532  0.1752  0.2147
 9441TIP3    H149814   5.555   4.868  11.832 -0.0290  0.3658  0.7799
 9441TIP3    H249815   5.471   4.776  11.918 -1.3438 -0.5622 -1.4046
 9442TIP3   OH249816   2.099   5.191  12.974  0.3385  0.1127 -0.0898
 9442TIP3    H149817   2.067   5.247  12.903 -0.4593 -1.2200 -0.8095
 9442TIP3    H249818   2.191   5.215  12.983 -0.2835  2.5660  0.6173
 9443TIP3   OH249819   5.307   6.170  17.123 -0.0045 -0.1472 -0.2659
 9443TIP3    H149820   5.335   6.221  17.046  1.2274 -0.8049 -0.2691
 9443TIP3    H249821   5.284   6.236  17.188 -0.1268  0.4129 -0.8628
 9444TIP3   OH249822   3.626   3.906  12.805 -0.1403 -0.2877 -0.4891
 9444TIP3    H149823   3.657   3.817  12.825  0.6225  0.0833  0.0187
 9444TIP3    H249824   3.565   3.927  12.876  1.1425  0.3098  0.4884
 9445TIP3   OH249825   0.203   1.837   4.936  0.2147 -0.6343  0.2870
 9445TIP3    H149826   0.134   1.899   4.911  0.9292  0.2578  0.4616
 9445TIP3    H249827   0.227   1.794   4.854  1.9148  1.6229 -0.5311
 9446TIP3   OH249828   5.703   4.655   3.082  0.7180 -0.4979  0.2267
 9446TIP3    H149829   5.734   4.610   3.161 -0.3527 -0.0446  0.9214
 9446TIP3    H249830   5.623   4.700   3.109  1.0618  0.7880 -0.7781
 9447TIP3   OH249831   4.479   4.322  12.461 -0.0715 -0.0888 -0.6539
 9447TIP3    H149832   4.433   4.375  12.525 -1.6877 -1.2850 -0.7463
 9447TIP3    H249833   4.545   4.274  12.511  0.3676  0.8497 -0.3265
 9448TIP3   OH249834   0.812   5.460   1.830  0.4224  0.0213 -0.1348
 9448TIP3    H149835   0.866   5.417   1.763 -0.3108  0.4253 -0.9952
 9448TIP3    H249836   0.788   5.389   1.889  0.5962 -0.4535 -0.6220
 9449TIP3   OH249837   2.515   4.349  15.167 -0.4487  0.4423  0.2356
 9449TIP3    H149838   2.472   4.419  15.119  1.8564  0.7199 -1.6117
 9449TIP3    H249839   2.560   4.298  15.100 -0.0143 -1.3245  1.7866
 9450TIP3   OH249840   5.976   5.976  11.556 -0.6431  1.0075 -0.0780
 9450TIP3    H149841   5.958   6.018  11.471  2.1761 -0.4244 -1.5082
 9450TIP3    H249842   6.045   5.912  11.537 -0.1333  0.4015  3.2694
 9451TIP3   OH249843   2.428   5.637  15.174 -0.2542  0.4551 -0.0616
 9451TIP3    H149844   2.338   5.669  15.185 -0.0156  0.6755  1.4015
 9451TIP3    H249845   2.481   5.716  15.167  0.3942  0.5742  4.0086
 9452TIP3   OH249846   5.062   5.144  13.197 -0.3702  0.5653  0.6398
 9452TIP3    H149847   5.089   5.182  13.113 -1.0787  1.0816  0.6302
 9452TIP3    H249848   4.967   5.138  13.190 -0.4885  1.1675  1.6225
 9453TIP3   OH249849   2.551   2.294   3.209  0.3147 -0.1737 -0.3572
 9453TIP3    H149850   2.642   2.319   3.227  0.9445 -2.6833  0.3738
 9453TIP3    H249851   2.543   2.300   3.114  1.5751 -0.8064 -0.5348
 9454TIP3   OH249852   5.284   5.215   1.096  0.5321  0.4759 -0.9139
 9454TIP3    H149853   5.255   5.131   1.059 -0.0530 -1.8170  3.9278
 9454TIP3    H249854   5.379   5.204   1.107  0.7118  1.1688 -1.6491
 9455TIP3   OH249855   1.263   2.686   0.842  0.5162 -0.0419  1.1976
 9455TIP3    H149856   1.345   2.691   0.892  0.5799 -0.1044  1.1015
 9455TIP3    H249857   1.195   2.675   0.908  0.5238  0.6265  1.3158
 9456TIP3   OH249858   0.930   2.044   4.546 -0.0911 -0.0994 -0.0842
 9456TIP3    H149859   1.008   1.994   4.572 -0.6172 -1.5766 -1.2551
 9456TIP3    H249860   0.897   2.000   4.468 -1.4595  1.1945 -0.2875
 9457TIP3   OH249861   1.025   3.455   6.186  0.4589  0.2030  0.5744
 9457TIP3    H149862   0.969   3.528   6.213  0.5030  0.2906  0.4293
 9457TIP3    H249863   1.090   3.447   6.256 -0.5975 -0.8357  1.4900
 9458TIP3   OH249864   4.005   4.938   3.839 -0.0021  0.2398 -0.4334
 9458TIP3    H149865   4.061   5.013   3.858  0.0252  0.3993 -1.1107
 9458TIP3    H249866   3.973   4.910   3.924  1.7681 -0.3911  0.0619
 9459TIP3   OH249867   3.781   6.583   5.069 -0.0063 -0.3958  0.3918
 9459TIP3    H149868   3.823   6.509   5.023  0.0621 -0.2478  0.2126
 9459TIP3    H249869   3.845   6.610   5.134  1.1935  1.2898 -1.3501
 9460TIP3   OH249870   6.377   3.645  17.114  0.8261  0.0936  0.1746
 9460TIP3    H149871   6.427   3.709  17.063  0.7661 -2.4900 -3.4667
 9460TIP3    H249872   6.401   3.560  17.077 -1.5913 -1.8078  2.5241
 9461TIP3   OH249873   4.795   1.687  16.916 -0.4817 -0.5494  0.5026
 9461TIP3    H149874   4.859   1.745  16.957 -0.1078 -0.6563  0.0717
 9461TIP3    H249875   4.761   1.737  16.842 -2.7196  0.5018  2.1271
 9462TIP3   OH249876   6.264   0.516  14.492 -0.1121  0.2487  0.2854
 9462TIP3    H149877   6.322   0.484  14.423 -1.0250 -1.1970  0.1521
 9462TIP3    H249878   6.205   0.577  14.447 -0.6284 -0.5962 -0.1996
 9463TIP3   OH249879   5.355   2.012  16.158 -0.3306  0.8014 -0.0594
 9463TIP3    H149880   5.338   2.083  16.096  1.2555 -0.6827 -2.3321
 9463TIP3    H249881   5.314   1.935  16.119  2.6689 -0.6736 -0.6199
 9464TIP3   OH249882   0.609   1.738   4.728  0.4023 -0.1240 -0.1960
 9464TIP3    H149883   0.599   1.832   4.711 -2.8018 -0.5933 -1.7905
 9464TIP3    H249884   0.571   1.726   4.815 -2.1566 -0.2150 -1.2220
 9465TIP3   OH249885   4.935   5.228  17.224  0.7827 -0.2563  0.2480
 9465TIP3    H149886   4.946   5.141  17.264  0.6944 -0.7382 -0.7421
 9465TIP3    H249887   5.023   5.251  17.193  0.8624  0.1401  0.7559
 9466TIP3   OH249888   4.876   0.138  14.922 -0.3785 -0.5319  0.1660
 9466TIP3    H149889   4.881   0.216  14.978 -1.2911  0.3278 -0.8998
 9466TIP3    H249890   4.937   0.076  14.962 -0.0118  0.5365  1.3389
 9467TIP3   OH249891   2.373   6.533  15.678  0.2003 -0.0471 -0.3603
 9467TIP3    H149892   2.463   6.562  15.692  0.6108 -0.9250 -1.0054
 9467TIP3    H249893   2.378   6.478  15.599 -1.1073  0.7975 -1.0639
 9468TIP3   OH249894   6.272   0.893  11.471 -1.1543 -0.2464 -0.7354
 9468TIP3    H149895   6.185   0.903  11.431 -1.3909  1.7168  0.1367
 9468TIP3    H249896   6.318   0.974  11.448 -0.1745 -0.4848  0.2940
 9469TIP3   OH249897   6.250   6.465  17.277  0.0342  0.1004 -0.1782
 9469TIP3    H149898   6.273   6.539  17.221  1.9932  0.4726  1.0684
 9469TIP3    H249899   6.222   6.397  17.215 -0.2803  1.3169 -1.4279
 9470TIP3   OH249900   5.806   3.592  16.013  0.4787 -0.0141  0.4704
 9470TIP3    H149901   5.765   3.616  15.930  0.7274  1.9342  0.8647
 9470TIP3    H249902   5.784   3.499  16.024 -1.3841  0.2214 -0.7052
 9471TIP3   OH249903   4.366   2.690  10.951 -0.0277  0.2370  0.3972
 9471TIP3    H149904   4.458   2.715  10.957 -0.5323  2.1823  0.9865
 9471TIP3    H249905   4.366   2.595  10.950  2.0335  0.2035 -0.6837
 9472TIP3   OH249906   2.962   4.884   5.210 -0.1387 -0.1697 -0.2487
 9472TIP3    H149907   3.030   4.939   5.171  1.3188  0.2876  2.6644
 9472TIP3    H249908   3.006   4.801   5.230 -0.6531 -0.2135  0.8076
 9473TIP3   OH249909   1.509   4.580  16.480  0.8161  0.3077 -0.4356
 9473TIP3    H149910   1.525   4.661  16.528  0.4657  0.0313  0.1710
 9473TIP3    H249911   1.490   4.607  16.391  1.0184  0.8702 -0.3081
 9474TIP3   OH249912   2.128   4.455   2.396  0.2269 -0.1864 -0.2572
 9474TIP3    H149913   2.210   4.493   2.428 -0.3877  0.8871  0.0987
 9474TIP3    H249914   2.061   4.519   2.419 -0.9101 -1.5987  0.5813
 9475TIP3   OH249915   2.463   1.739   5.313  0.0304  0.0575 -0.5304
 9475TIP3    H149916   2.440   1.793   5.390  1.1858  0.3175 -0.3388
 9475TIP3    H249917   2.491   1.803   5.247  1.5349 -0.2809 -0.2609
 9476TIP3   OH249918   6.711   2.990   2.769 -0.2604 -0.5019  0.4050
 9476TIP3    H149919   6.646   3.002   2.700 -0.5450 -0.1890  0.7221
 9476TIP3    H249920   6.682   3.048   2.839 -0.3143 -1.2613  1.0292
 9477TIP3   OH249921   5.798   5.662  12.329 -0.1793  0.2611 -0.1385
 9477TIP3    H149922   5.786   5.567  12.321  1.7727 -0.2452  1.9105
 9477TIP3    H249923   5.869   5.683  12.269 -0.3173  0.3362 -0.2741
 9478TIP3   OH249924   5.340   1.694   4.899  0.1491 -0.0147 -0.1126
 9478TIP3    H149925   5.421   1.714   4.946 -1.1589  1.4750  1.6070
 9478TIP3    H249926   5.271   1.734   4.951 -1.8034 -1.8555 -1.1549
 9479TIP3   OH249927   0.240   5.269   3.856 -0.2537  0.2210  0.2721
 9479TIP3    H149928   0.265   5.352   3.815 -0.3830  0.7586  1.2514
 9479TIP3    H249929   0.301   5.205   3.819  1.5272  1.2114  1.3714
 9480TIP3   OH249930   6.353   2.688   0.503 -0.0886 -0.9058  0.1651
 9480TIP3    H149931   6.264   2.664   0.530 -0.9268 -0.9446 -2.3557
 9480TIP3    H249932   6.358   2.783   0.517 -1.7249 -0.3239 -2.5350
 9481TIP3   OH249933   4.456   1.414  16.368  0.2048 -0.0705  0.1159
 9481TIP3    H149934   4.489   1.497  16.334  2.9839 -0.5468  1.3276
 9481TIP3    H249935   4.514   1.348  16.328 -0.0156 -1.1128  1.4415
 9482TIP3   OH249936   6.530   4.630  13.006 -0.0956 -0.3141 -0.6074
 9482TIP3    H149937   6.530   4.711  13.056 -0.3305 -1.0039  0.5561
 9482TIP3    H249938   6.447   4.631  12.958  0.3953  0.6248 -1.4592
 9483TIP3   OH249939   3.590   5.863  16.257 -0.1248 -0.0076  0.3442
 9483TIP3    H149940   3.518   5.841  16.316  0.2302  0.6684  1.0531
 9483TIP3    H249941   3.667   5.821  16.296 -0.0565 -0.3727 -0.1762
 9484TIP3   OH249942   3.238   3.899  13.820  1.1732 -0.0794 -0.2362
 9484TIP3    H149943   3.320   3.850  13.820  0.5613 -1.1601 -1.1582
 9484TIP3    H249944   3.173   3.837  13.853  0.5426  0.4156 -0.5274
 9485TIP3   OH249945   4.861   2.892   4.426  0.4254  0.1223  0.5171
 9485TIP3    H149946   4.954   2.899   4.407  0.2978 -0.3347 -0.3143
 9485TIP3    H249947   4.855   2.905   4.521  1.4156 -0.6370  0.6983
 9486TIP3   OH249948   0.162   4.471   5.125 -0.3125 -0.0081 -0.7933
 9486TIP3    H149949   0.104   4.449   5.053 -1.4935 -1.1040  0.4385
 9486TIP3    H249950   0.235   4.409   5.117 -1.2355 -1.2099 -0.1394
 9487TIP3   OH249951   3.929   0.590  13.368  0.4760 -0.1049  0.0876
 9487TIP3    H149952   4.008   0.632  13.402  1.6495 -2.1806  0.1021
 9487TIP3    H249953   3.896   0.651  13.303  1.4475  1.3319  0.8965
 9488TIP3   OH249954   5.104   3.542  12.222 -0.5238 -0.0684  0.0521
 9488TIP3    H149955   5.116   3.589  12.140  0.8094 -0.5256 -0.0306
 9488TIP3    H249956   5.146   3.457  12.208  0.6539  0.2311  1.5429
 9489TIP3   OH249957   1.497   6.787   1.491  0.0340  0.1231  0.0124
 9489TIP3    H149958   1.514   6.782   1.585 -1.8939  0.1416  0.3904
 9489TIP3    H249959   1.486   6.696   1.463 -0.9181  0.1992  0.1190
 9490TIP3   OH249960   6.264   3.807   1.431 -0.3732  1.0480  0.2222
 9490TIP3    H149961   6.251   3.854   1.513 -1.6474 -0.3300  0.8465
 9490TIP3    H249962   6.186   3.827   1.379  0.1302  1.4014 -0.4141
 9491TIP3   OH249963   4.879   6.170   3.844  0.2940 -0.0409 -0.4253
 9491TIP3    H149964   4.834   6.097   3.887 -1.1167  1.1920  0.2467
 9491TIP3    H249965   4.886   6.237   3.912 -0.1000  1.1549 -1.5309
 9492TIP3   OH249966   0.513   2.350  15.537  0.8342 -0.4515 -0.6721
 9492TIP3    H149967   0.596   2.360  15.582  0.1182 -0.3584  0.6624
 9492TIP3    H249968   0.530   2.287  15.467  2.0310 -0.3543 -0.4746
 9493TIP3   OH249969   0.807   5.791  16.836 -0.2194 -0.3434  0.0677
 9493TIP3    H149970   0.739   5.835  16.784  0.4680 -1.1609 -1.5892
 9493TIP3    H249971   0.774   5.703  16.850  0.1780 -0.5211 -0.1029
 9494TIP3   OH249972   5.733   4.087  13.018  0.3576  0.2751  0.2279
 9494TIP3    H149973   5.737   4.009  13.073 -0.5704  0.2761  0.2980
 9494TIP3    H249974   5.820   4.127  13.028  1.3573 -1.4733 -0.8839
 9495TIP3   OH249975   0.204   6.053  16.908 -0.3808 -0.0666  0.4381
 9495TIP3    H149976   0.204   6.028  17.001 -1.2965 -0.6519  0.2887
 9495TIP3    H249977   0.177   6.145  16.908  0.3566  0.1592  0.7983
 9496TIP3   OH249978   6.304   3.354   3.583  0.1026  0.2692  0.2666
 9496TIP3    H149979   6.370   3.314   3.526  0.8762 -0.0544  1.3490
 9496TIP3    H249980   6.289   3.441   3.545  1.5072  0.5302  0.2661
 9497TIP3   OH249981   1.066   3.605  11.048 -0.5579 -0.0305 -0.5147
 9497TIP3    H149982   1.038   3.570  10.964  1.5690 -0.1662 -1.2368
 9497TIP3    H249983   1.013   3.558  11.113 -0.7996 -1.4352 -1.6751
 9498TIP3   OH249984   1.741   6.610   3.131 -0.0388  0.2822  0.0820
 9498TIP3    H149985   1.754   6.600   3.225  2.2355  1.9768  0.0397
 9498TIP3    H249986   1.786   6.535   3.092 -0.9367 -0.3902  0.3052
 9499TIP3   OH249987   6.611   2.025   5.602  0.0352 -0.0879 -0.8726
 9499TIP3    H149988   6.705   2.017   5.618 -0.0447  2.4348  1.5913
 9499TIP3    H249989   6.596   2.119   5.595 -2.1494 -0.4996 -2.6850
 9500TIP3   OH249990   1.882   1.055  10.631 -0.4770  0.0785  0.6818
 9500TIP3    H149991   1.848   1.056  10.542  0.6565  1.2196  0.2225
 9500TIP3    H249992   1.868   0.966  10.662 -0.5146 -0.4411 -0.7815
 9501TIP3   OH249993   3.076   3.387  11.872  0.0069 -0.6337  0.0597
 9501TIP3    H149994   2.987   3.388  11.910  0.9788 -0.4337  2.5304
 9501TIP3    H249995   3.072   3.451  11.801 -1.8050 -0.5676  0.1662
 9502TIP3   OH249996   6.713   1.340  15.485  0.1447  0.0016 -0.4603
 9502TIP3    H149997   6.719   1.331  15.580  1.8037 -0.6967 -0.6019
 9502TIP3    H249998   6.696   1.433  15.470 -1.0006 -0.0328  0.5327
 9503TIP3   OH249999   4.408   1.225   5.154 -0.3649 -0.0002 -0.4782
 9503TIP3    H150000   4.490   1.272   5.135 -0.2913 -0.1265 -0.4722
 9503TIP3    H250001   4.390   1.176   5.074 -0.4068 -0.0155 -0.4592
 9504TIP3   OH250002   5.256   2.288   3.789 -0.1500  0.3463 -0.1100
 9504TIP3    H150003   5.193   2.255   3.725 -0.1797  0.1930 -0.0024
 9504TIP3    H250004   5.339   2.250   3.763  0.0183  1.0421 -0.6191
 9505TIP3   OH250005   3.019   3.055  14.586 -0.5400  0.6406 -0.7811
 9505TIP3    H150006   3.018   3.064  14.681 -0.7290  1.4293 -0.8508
 9505TIP3    H250007   3.110   3.033  14.565 -0.9306 -1.8639 -0.2405
 9506TIP3   OH250008   1.679   3.007   4.399  0.1420 -0.1641  0.5748
 9506TIP3    H150009   1.756   3.045   4.442  0.6980  0.5448 -0.9700
 9506TIP3    H250010   1.690   2.912   4.409  0.8622 -0.0473  0.9490
 9507TIP3   OH250011   3.904   6.594   4.476  0.1203  0.1199  0.1110
 9507TIP3    H150012   3.981   6.609   4.421  0.3658 -0.8483  0.1593
 9507TIP3    H250013   3.885   6.501   4.464 -1.8103  0.5957 -0.8747
 9508TIP3   OH250014   5.221   0.879  14.439 -0.0878 -0.1564  0.4447
 9508TIP3    H150015   5.139   0.872  14.488 -0.1170  0.8921  0.5596
 9508TIP3    H250016   5.208   0.953  14.380  0.7374 -0.0382  0.3947
 9509TIP3   OH250017   3.099   5.119   0.711 -0.0859 -0.1023 -0.6525
 9509TIP3    H150018   3.050   5.044   0.743 -3.6048  1.9537 -0.7210
 9509TIP3    H250019   3.124   5.096   0.622 -1.8811 -0.9006 -0.9799
 9510TIP3   OH250020   6.015   6.585   1.318  0.1174  0.6007 -0.0154
 9510TIP3    H150021   5.993   6.512   1.376  1.8042  0.3503  0.3601
 9510TIP3    H250022   5.946   6.649   1.333 -0.5495 -0.2768  0.7999
 9511TIP3   OH250023   5.551   4.221  13.189  0.1247  0.0650 -0.3085
 9511TIP3    H150024   5.592   4.184  13.111 -0.8474  1.2720 -1.4484
 9511TIP3    H250025   5.462   4.245  13.160 -0.2600  0.5350  1.1647
 9512TIP3   OH250026   4.384   0.216   0.006  0.4337 -0.3335  0.2547
 9512TIP3    H150027   4.466   0.226   0.054  2.0213 -2.5959 -1.7339
 9512TIP3    H250028   4.348   0.133   0.037 -0.5283  0.0772  0.2840
 9513TIP3   OH250029   2.894   1.385  11.522  0.3595 -0.0123  0.0433
 9513TIP3    H150030   2.960   1.324  11.487  0.8092  0.8706 -0.6989
 9513TIP3    H250031   2.820   1.375  11.463  0.4413  0.1636 -0.0911
 9514TIP3   OH250032   0.148   3.256  15.736  0.5246  0.3973  0.1109
 9514TIP3    H150033   0.207   3.331  15.738  0.6824  0.2795  2.0185
 9514TIP3    H250034   0.079   3.278  15.799  0.6288 -1.0582  0.7759
 9515TIP3   OH250035   3.390   0.629   1.347 -0.7916 -0.6246  0.5094
 9515TIP3    H150036   3.321   0.662   1.290 -0.3313 -0.7486 -0.1308
 9515TIP3    H250037   3.472   0.656   1.305 -0.4386  0.3101  1.7234
 9516TIP3   OH250038   3.892   2.658  12.746 -0.4462 -0.1479 -0.4159
 9516TIP3    H150039   3.886   2.743  12.703  0.0107  0.5487  0.8308
 9516TIP3    H250040   3.952   2.608  12.692 -0.6172  0.3672 -1.0963
 9517TIP3   OH250041   6.009   3.257  11.935  0.2330  0.2710  0.0785
 9517TIP3    H150042   6.024   3.220  12.022  0.9538  1.3036  0.4235
 9517TIP3    H250043   5.953   3.194  11.890  3.0033 -2.2909 -0.1090
 9518TIP3   OH250044   1.987   5.378   2.718 -0.2597 -0.6368 -0.4486
 9518TIP3    H150045   1.891   5.378   2.716 -0.2781  0.0510  0.0624
 9518TIP3    H250046   2.008   5.332   2.800 -0.2214  1.4184  0.7557
 9519TIP3   OH250047   3.332   3.907  16.203 -0.2430  0.1690  0.1192
 9519TIP3    H150048   3.366   3.820  16.225  1.2416 -0.0094 -2.3746
 9519TIP3    H250049   3.271   3.891  16.131  2.1211  1.2428 -2.3440
 9520TIP3   OH250050   4.416   5.390  15.784  0.1418  0.0112  0.3173
 9520TIP3    H150051   4.487   5.454  15.785 -0.8012  1.0854  0.0622
 9520TIP3    H250052   4.450   5.317  15.836  1.6214  0.2696 -0.2251
 9521TIP3   OH250053   5.143   5.310   4.956  0.2155 -0.5758 -0.3270
 9521TIP3    H150054   5.115   5.234   4.906  0.1281  0.0695 -1.2865
 9521TIP3    H250055   5.088   5.382   4.923 -0.6345 -0.3319  1.4646
 9522TIP3   OH250056   5.178   6.803   3.533 -0.2660  0.1502  0.0497
 9522TIP3    H150057   5.139   6.731   3.583 -0.6321 -0.1969 -0.7211
 9522TIP3    H250058   5.142   6.883   3.574  0.4112 -0.0803  1.1265
 9523TIP3   OH250059   2.695   3.589  15.723 -0.3411 -0.3352  0.1751
 9523TIP3    H150060   2.646   3.507  15.715 -0.7956 -0.0380 -0.1428
 9523TIP3    H250061   2.629   3.657  15.711  0.0928  0.0747  0.0967
 9524TIP3   OH250062   6.669   0.911   3.267 -0.3263  0.1415  0.0859
 9524TIP3    H150063   6.574   0.920   3.271 -0.3846  0.2703 -1.1532
 9524TIP3    H250064   6.695   0.970   3.196  1.1548  3.3964  2.9932
 9525TIP3   OH250065   4.973   0.105  10.809 -0.4420  0.2347  0.0539
 9525TIP3    H150066   4.956   0.014  10.782 -2.0709  0.7415 -0.7678
 9525TIP3    H250067   4.921   0.158  10.749 -1.8931  1.5659  2.3235
 9526TIP3   OH250068   3.976   1.063  11.038 -0.9208 -0.1567 -0.0294
 9526TIP3    H150069   4.042   1.000  11.008 -0.6261  0.2002 -0.1422
 9526TIP3    H250070   3.896   1.011  11.047 -0.7377 -0.5026 -0.3416
 9527TIP3   OH250071   0.371   0.464  12.350 -0.0489 -0.2799  0.3695
 9527TIP3    H150072   0.465   0.453  12.340 -0.2526 -0.1122 -2.2625
 9527TIP3    H250073   0.359   0.557  12.370  0.2712  0.1886 -1.4366
 9528TIP3   OH250074   5.398   5.472   4.469 -0.0259  0.2446  0.7346
 9528TIP3    H150075   5.408   5.380   4.445  0.0355 -0.4360  3.1780
 9528TIP3    H250076   5.312   5.496   4.435  0.3564 -0.3969 -0.7703
 9529TIP3   OH250077   1.669   6.614   1.689  0.3732  0.5970 -0.3309
 9529TIP3    H150078   1.747   6.569   1.657  2.0636  1.2088  2.5385
 9529TIP3    H250079   1.606   6.544   1.706  1.0489 -0.1313 -0.7431
 9530TIP3   OH250080   2.759   5.796  12.231  0.0859 -0.1840 -0.1729
 9530TIP3    H150081   2.786   5.726  12.172 -1.0082 -1.1664  0.4294
 9530TIP3    H250082   2.703   5.852  12.177 -0.0798 -0.5027 -0.3363
 9531TIP3   OH250083   4.201   5.236   0.177 -0.1854  0.0246  1.0007
 9531TIP3    H150084   4.246   5.183   0.243  1.1193 -0.1546 -0.0034
 9531TIP3    H250085   4.230   5.326   0.197  0.1307 -0.0182  0.7423
 9532TIP3   OH250086   3.392   4.178   4.977  0.1370 -0.1214 -0.5045
 9532TIP3    H150087   3.398   4.256   4.921 -0.0995  0.0098 -0.3455
 9532TIP3    H250088   3.479   4.171   5.017  0.0063  0.3459 -0.1349
 9533TIP3   OH250089   5.605   4.095   4.099 -0.4412 -0.0405 -0.5128
 9533TIP3    H150090   5.685   4.138   4.070 -1.0069  2.4471  1.3237
 9533TIP3    H250091   5.559   4.073   4.017  1.9793 -1.4656 -1.5923
 9534TIP3   OH250092   3.171   1.656  12.044 -0.0616 -0.5917  0.1320
 9534TIP3    H150093   3.186   1.582  11.985  3.0452  1.1949 -1.5774
 9534TIP3    H250094   3.115   1.715  11.994 -0.1016 -0.4982  0.2881
 9535TIP3   OH250095   5.157   0.354   5.838  0.3017  0.3354 -0.0311
 9535TIP3    H150096   5.127   0.445   5.826 -1.1209 -0.2632 -1.3674
 9535TIP3    H250097   5.088   0.301   5.799  1.1636 -1.3448  0.6344
 9536TIP3   OH250098   1.557   6.424   2.489 -0.2362  0.2677 -0.8619
 9536TIP3    H150099   1.535   6.455   2.401 -1.3422 -0.4662 -0.8623
 9536TIP3    H250100   1.624   6.484   2.519 -0.0141  0.6788 -2.1180
 9537TIP3   OH250101   6.285   6.771   5.610  0.2221 -0.0182  0.0740
 9537TIP3    H150102   6.375   6.760   5.642  0.0965 -1.6215 -0.0287
 9537TIP3    H250103   6.230   6.753   5.686 -0.0220  1.6602  0.3135
 9538TIP3   OH250104   1.854   2.563  17.118 -0.2618  0.5728  0.1477
 9538TIP3    H150105   1.806   2.643  17.137 -0.5544  0.3464  0.3628
 9538TIP3    H250106   1.902   2.583  17.038 -2.4664  0.0566 -1.3978
 9539TIP3   OH250107   5.561   1.681   0.851  0.0277 -0.1482  0.6834
 9539TIP3    H150108   5.487   1.710   0.798  0.1408 -1.6352 -0.3526
 9539TIP3    H250109   5.616   1.632   0.790 -0.0423 -2.2911  2.2321
 9540TIP3   OH250110   2.790   0.538   5.136 -0.6131  0.3381  0.1427
 9540TIP3    H150111   2.740   0.590   5.073  0.9048  1.3216 -0.3028
 9540TIP3    H250112   2.874   0.583   5.143 -0.0440 -0.8497  1.4187
 9541TIP3   OH250113   1.242   1.851   3.209 -0.3906  0.6040 -0.1012
 9541TIP3    H150114   1.226   1.769   3.162  1.4240  1.5546 -2.6648
 9541TIP3    H250115   1.187   1.846   3.287 -3.6041 -1.1828 -2.2703
 9542TIP3   OH250116   2.222   6.142  16.736  0.0918  0.0744  0.2136
 9542TIP3    H150117   2.144   6.185  16.772 -0.8733 -2.7253  1.8257
 9542TIP3    H250118   2.188   6.062  16.696  2.0137 -0.4817 -0.3780
 9543TIP3   OH250119   4.687   0.843  16.736 -0.6182  0.1738 -0.3189
 9543TIP3    H150120   4.709   0.933  16.762  2.1530 -0.9546  1.8047
 9543TIP3    H250121   4.613   0.820  16.792  0.9264  0.0647  1.8065
 9544TIP3   OH250122   3.040   3.193   3.544 -0.2565 -0.1033  0.0920
 9544TIP3    H150123   2.973   3.146   3.593  0.1113  0.5219  1.2303
 9544TIP3    H250124   2.993   3.238   3.474 -0.8270 -0.7701  0.0357
 9545TIP3   OH250125   3.725   0.940  11.152 -0.1839 -0.1732  0.4057
 9545TIP3    H150126   3.634   0.929  11.180 -0.1531 -0.0725  0.5493
 9545TIP3    H250127   3.772   0.869  11.197 -0.2792 -0.5630 -0.1021
 9546TIP3   OH250128   6.815   4.894  11.670  0.6900 -0.6739  0.6011
 9546TIP3    H150129   6.795   4.801  11.684 -0.0488 -0.4133  1.3327
 9546TIP3    H250130   6.764   4.940  11.737 -1.6649  0.5412 -1.8368
 9547TIP3   OH250131   5.285   4.302  12.153 -0.1152 -0.0835 -0.1048
 9547TIP3    H150132   5.273   4.297  12.058 -0.6733  0.4259 -0.0675
 9547TIP3    H250133   5.255   4.217  12.186  1.3309 -0.7763 -0.4938
 9548TIP3   OH250134   5.575   4.467  13.304 -0.0912 -0.4452  0.1933
 9548TIP3    H150135   5.483   4.483  13.322 -0.2401 -1.1751  0.0658
 9548TIP3    H250136   5.579   4.379  13.268  0.6346 -0.3533  0.0201
 9549TIP3   OH250137   0.981   4.227   2.508 -0.6067 -0.6699  0.4004
 9549TIP3    H150138   0.994   4.294   2.576  0.9435 -1.3012  0.7639
 9549TIP3    H250139   1.035   4.153   2.536 -0.2667 -1.1086 -1.2974
 9550TIP3   OH250140   0.351   6.161  12.698  0.3675 -0.4655 -0.0646
 9550TIP3    H150141   0.406   6.166  12.620  0.1322 -0.7213 -0.2488
 9550TIP3    H250142   0.413   6.144  12.770  0.6503  0.3525 -0.1011
 9551TIP3   OH250143   0.284   2.231  13.728  0.3507  0.3406 -0.1267
 9551TIP3    H150144   0.295   2.139  13.704 -0.1921  0.0331  0.7750
 9551TIP3    H250145   0.358   2.275  13.688  1.2474 -0.6640  0.3905
 9552TIP3   OH250146   0.280   4.554   5.519  0.3602 -0.0108  0.1707
 9552TIP3    H150147   0.332   4.586   5.593  0.9153  1.3044 -0.7572
 9552TIP3    H250148   0.306   4.462   5.510  0.5023 -0.1139  1.3992
 9553TIP3   OH250149   5.261   3.556   0.342  0.0476  0.0434  0.3093
 9553TIP3    H150150   5.228   3.540   0.431  0.1191 -0.4995  0.2402
 9553TIP3    H250151   5.336   3.498   0.333 -1.1313 -1.3961 -0.7838
 9554TIP3   OH250152   2.422   2.319   0.496  0.0049 -0.1628  0.5378
 9554TIP3    H150153   2.418   2.296   0.403  4.7479  3.0265 -0.7870
 9554TIP3    H250154   2.353   2.384   0.508 -0.6756 -0.6156 -0.7217
 9555TIP3   OH250155   5.726   6.764  16.763 -0.3002  0.4342 -0.4610
 9555TIP3    H150156   5.754   6.820  16.835 -0.2825  0.4088 -0.4488
 9555TIP3    H250157   5.698   6.825  16.695 -0.2044  0.4593 -0.4774
 9556TIP3   OH250158   5.432   4.708   5.028  0.1659 -0.4837 -0.1588
 9556TIP3    H150159   5.438   4.675   4.939  0.4547 -0.7726 -0.0358
 9556TIP3    H250160   5.523   4.724   5.054  0.0040  1.1859 -0.4921
 9557TIP3   OH250161   6.262   4.016  11.610 -0.0931 -0.5134  0.3358
 9557TIP3    H150162   6.274   4.066  11.691  1.5205 -0.2668 -0.0243
 9557TIP3    H250163   6.167   4.004  11.603 -0.2566 -0.6684  2.3308
 9558TIP3   OH250164   0.198   2.492   2.556  0.1135 -0.2618 -0.4458
 9558TIP3    H150165   0.211   2.398   2.566 -0.5589 -0.5762 -2.2378
 9558TIP3    H250166   0.162   2.520   2.641  1.0896 -1.4470  0.3851
 9559TIP3   OH250167   1.951   0.345   2.979 -0.0907  0.4173  0.0853
 9559TIP3    H150168   2.024   0.292   3.012  0.3422  0.5134 -0.7020
 9559TIP3    H250169   1.890   0.282   2.942 -0.4643  0.3288  0.8293
 9560TIP3   OH250170   5.364   0.590   2.954  0.0338 -0.0537 -0.0633
 9560TIP3    H150171   5.382   0.516   3.012 -1.7210  0.1414  0.7760
 9560TIP3    H250172   5.364   0.667   3.012  1.9831  0.6922 -0.9400
 9561TIP3   OH250173   1.332   6.093   4.595  0.0005  0.0812 -0.2152
 9561TIP3    H150174   1.415   6.085   4.547 -1.0399  0.5041 -2.1846
 9561TIP3    H250175   1.268   6.118   4.529 -1.5185  0.8474  1.4527
 9562TIP3   OH250176   0.395   0.001   3.565  0.1909 -0.2546 -0.2794
 9562TIP3    H150177   0.417   0.060   3.637 -2.0380  0.2377  0.0585
 9562TIP3    H250178   0.372   0.059   3.492  0.3781 -0.7417 -0.7344
 9563TIP3   OH250179   1.948   4.658  14.541 -0.3496 -0.2876  0.0014
 9563TIP3    H150180   1.869   4.710  14.558  0.2490  0.1894  1.4837
 9563TIP3    H250181   2.018   4.705  14.585  0.9366 -0.3057 -1.9191
 9564TIP3   OH250182   3.636   5.491  16.789  0.2200  0.8490 -0.6332
 9564TIP3    H150183   3.710   5.435  16.763  1.3134  0.3649  2.9442
 9564TIP3    H250184   3.654   5.575  16.748  3.4448  1.0528  0.9054
 9565TIP3   OH250185   2.253   6.004  13.949 -0.0895  0.1300  0.0144
 9565TIP3    H150186   2.288   6.083  13.989 -0.8230 -1.0658  3.3266
 9565TIP3    H250187   2.162   6.024  13.930 -0.4077 -0.0450  1.3135
 9566TIP3   OH250188   0.170   5.673   5.971  0.0909  0.3848 -0.3263
 9566TIP3    H150189   0.119   5.637   5.899 -1.1149  0.8740  0.2599
 9566TIP3    H250190   0.115   5.661   6.048  0.2904  2.0900  0.1225
 9567TIP3   OH250191   5.656   2.468  12.703 -0.5669  0.5139 -0.2780
 9567TIP3    H150192   5.699   2.392  12.741 -1.9401 -0.4663 -0.6002
 9567TIP3    H250193   5.622   2.517  12.778 -2.2883 -0.8165 -0.1370
 9568TIP3   OH250194   1.480   0.857  15.170  0.4567 -0.2969 -0.4082
 9568TIP3    H150195   1.386   0.871  15.180  0.6916 -0.1235  1.8934
 9568TIP3    H250196   1.521   0.920  15.228  2.0127 -0.6505 -1.0567
 9569TIP3   OH250197   0.379   3.246  11.439 -0.1783  0.1841 -0.4101
 9569TIP3    H150198   0.327   3.171  11.465  1.1176 -1.0189 -1.1577
 9569TIP3    H250199   0.407   3.287  11.521  2.5205 -2.5991  0.2255
 9570TIP3   OH250200   2.679   6.229  11.431  0.5184  0.8265 -0.1993
 9570TIP3    H150201   2.751   6.272  11.385  1.0109  0.1330 -0.0935
 9570TIP3    H250202   2.624   6.193  11.361 -1.2943  3.6825 -0.4356
 9571TIP3   OH250203   6.723   5.064  16.728  0.0235  0.0336  0.0474
 9571TIP3    H150204   6.633   5.087  16.704  0.4527  0.9944 -0.6954
 9571TIP3    H250205   6.750   5.000  16.662 -0.1918 -0.4491  0.4208
 9572TIP3   OH250206   2.371   1.149   0.470  0.8632  0.1046  0.2011
 9572TIP3    H150207   2.420   1.213   0.522  0.5946 -0.5783  1.3293
 9572TIP3    H250208   2.417   1.147   0.386  0.6571  2.0333  0.0003
 9573TIP3   OH250209   1.042   6.524   2.422 -0.0978 -0.2263 -0.4676
 9573TIP3    H150210   0.975   6.585   2.391  1.5763  1.0483 -1.7651
 9573TIP3    H250211   1.098   6.577   2.479  0.5473 -0.9343 -0.4264
 9574TIP3   OH250212   5.292   3.682  16.169  0.0804  0.0122  0.2418
 9574TIP3    H150213   5.223   3.657  16.230  0.2535 -1.9562 -0.3233
 9574TIP3    H250214   5.359   3.722  16.226 -0.4643 -0.2704  1.1081
 9575TIP3   OH250215   0.948   3.656  16.321  0.6645  0.0518 -0.1500
 9575TIP3    H150216   0.945   3.597  16.396  0.4089 -0.9745 -0.9465
 9575TIP3    H250217   0.999   3.609  16.255 -0.2551  0.3505 -1.1085
 9576TIP3   OH250218   6.772   4.596   4.166  0.5163 -0.2045  0.4492
 9576TIP3    H150219   6.827   4.650   4.109 -1.7597 -0.2195 -1.9733
 9576TIP3    H250220   6.707   4.656   4.201  0.7430 -0.5689  1.5372
 9577TIP3   OH250221   2.219   2.438  10.993 -0.0251  0.1926 -0.2200
 9577TIP3    H150222   2.294   2.492  10.968 -0.2815  0.2457 -0.9017
 9577TIP3    H250223   2.144   2.481  10.953 -0.7132  1.2580  2.0805
 9578TIP3   OH250224   3.004   0.328  14.411 -0.3864  0.2452  0.1869
 9578TIP3    H150225   2.987   0.366  14.325 -2.2240  0.7976  0.7414
 9578TIP3    H250226   3.050   0.246  14.393 -0.6268  0.4168 -1.3071
 9579TIP3   OH250227   3.129   4.151  11.158  0.4495  0.2548  0.2375
 9579TIP3    H150228   3.145   4.057  11.152 -0.3301  0.1506 -0.4081
 9579TIP3    H250229   3.208   4.191  11.123  0.7477 -0.1535  0.4282
 9580TIP3   OH250230   5.896   0.889   3.548 -0.2181 -0.1806 -0.0856
 9580TIP3    H150231   5.864   0.956   3.608 -1.3857  0.2914 -1.2071
 9580TIP3    H250232   5.895   0.931   3.462 -0.8211 -1.5661 -0.7839
 9581TIP3   OH250233   4.092   2.780   4.283  0.6440  0.5129 -0.5403
 9581TIP3    H150234   4.001   2.802   4.266  0.6051  0.9902  0.2463
 9581TIP3    H250235   4.092   2.737   4.368  1.3243  1.9422  0.2255
 9582TIP3   OH250236   2.715   3.924   0.267 -0.4266  0.4862  0.1007
 9582TIP3    H150237   2.797   3.905   0.313  0.0216 -0.5022 -1.0375
 9582TIP3    H250238   2.729   3.889   0.179 -3.4085 -3.2873  0.8554
 9583TIP3   OH250239   0.761   4.150  13.830  0.4796 -0.2803 -0.0731
 9583TIP3    H150240   0.820   4.129  13.903 -0.8437  0.8292  1.3917
 9583TIP3    H250241   0.759   4.246  13.828 -0.1601 -0.3022 -1.0465
 9584TIP3   OH250242   6.555   3.619   4.480 -0.4466 -0.0056 -0.2229
 9584TIP3    H150243   6.569   3.692   4.419 -1.2126 -0.7712 -1.3731
 9584TIP3    H250244   6.613   3.550   4.448  0.8760  0.3309  1.3405
 9585TIP3   OH250245   1.407   5.444  15.234 -0.0464  0.1872 -0.4755
 9585TIP3    H150246   1.472   5.379  15.207 -0.5645 -0.1545 -0.9582
 9585TIP3    H250247   1.349   5.452  15.158 -1.8705 -1.1847  0.6591
 9586TIP3   OH250248   0.008   4.598   3.423  0.4629 -0.2362  0.0983
 9586TIP3    H150249  -0.084   4.615   3.439  0.4378  0.5840 -0.8106
 9586TIP3    H250250   0.042   4.680   3.387  0.9467 -1.2554 -1.9381
 9587TIP3   OH250251   6.387   4.069   6.080  0.9770 -0.4392 -0.1812
 9587TIP3    H150252   6.422   4.118   6.154 -2.0550  0.4313  0.8184
 9587TIP3    H250253   6.422   4.112   6.002  1.6978  0.6513  0.7341
 9588TIP3   OH250254   1.540   1.050   4.783  0.0470 -0.0064 -0.2156
 9588TIP3    H150255   1.517   0.985   4.716 -0.8588  0.2673 -0.1912
 9588TIP3    H250256   1.544   1.001   4.865  0.5154 -0.2319 -0.3741
 9589TIP3   OH250257   6.382   3.361  14.401 -0.1397 -0.0123  0.5152
 9589TIP3    H150258   6.348   3.435  14.350  0.1498 -0.2200  0.0134
 9589TIP3    H250259   6.356   3.284  14.350  2.2082 -0.1468 -0.6132
 9590TIP3   OH250260   3.856   3.814   3.928  0.3785  0.0530 -0.3171
 9590TIP3    H150261   3.825   3.888   3.876 -0.9137 -0.5522 -0.4453
 9590TIP3    H250262   3.941   3.842   3.960  0.2597  1.2879 -1.0008
 9591TIP3   OH250263   0.494   2.219   0.185  0.7308 -0.2481 -0.1156
 9591TIP3    H150264   0.495   2.140   0.131  3.5947  0.5204 -1.3782
 9591TIP3    H250265   0.461   2.287   0.126  1.5440  0.1285 -0.1460
 9592TIP3   OH250266   1.653   3.674   1.979 -0.3102  0.5900  0.1427
 9592TIP3    H150267   1.746   3.692   1.969 -0.2088  0.0283  0.0213
 9592TIP3    H250268   1.638   3.597   1.924 -1.4088  2.2751 -2.1192
 9593TIP3   OH250269   2.051   2.765  15.930 -0.1260 -0.0906  0.7620
 9593TIP3    H150270   2.074   2.769  16.023 -2.2010  0.5911  1.3002
 9593TIP3    H250271   1.993   2.840  15.917  2.0201  1.3439 -1.7123
 9594TIP3   OH250272   4.575   4.988  13.024 -0.2235  0.4694  0.2550
 9594TIP3    H150273   4.628   5.065  13.047 -0.3091  0.5225  0.2754
 9594TIP3    H250274   4.496   5.024  12.984  1.0856  0.3526 -2.7165
 9595TIP3   OH250275   0.295   6.452  16.882  0.0878 -0.1671  0.8306
 9595TIP3    H150276   0.303   6.547  16.876  1.3918 -0.2769  0.3855
 9595TIP3    H250277   0.201   6.435  16.882 -0.1519  1.0393 -0.4175
 9596TIP3   OH250278   4.137   5.199   5.491  0.0312  0.2659  0.1743
 9596TIP3    H150279   4.130   5.256   5.414 -1.4186  1.2786  0.9965
 9596TIP3    H250280   4.221   5.154   5.481  0.8519  1.9454 -0.9336
 9597TIP3   OH250281   4.435   6.697  12.144 -0.0972  0.4290  0.7162
 9597TIP3    H150282   4.404   6.611  12.173 -0.7378  0.3847 -0.0693
 9597TIP3    H250283   4.506   6.678  12.083  0.5521  0.4957  1.4393
 9598TIP3   OH250284   4.033   2.875   2.364 -0.4185 -0.5789 -0.6483
 9598TIP3    H150285   4.050   2.896   2.272 -1.7352 -0.8129 -0.9688
 9598TIP3    H250286   4.016   2.781   2.365 -0.2543 -0.6077 -0.1418
 9599TIP3   OH250287   3.279   4.336  12.009  0.2623  0.4308 -0.0534
 9599TIP3    H150288   3.335   4.409  12.037 -0.2319  1.0518 -0.6275
 9599TIP3    H250289   3.340   4.265  11.990  0.8650  1.0857 -0.6513
 9600TIP3   OH250290   6.566   1.480   5.123 -0.1526 -0.5145 -0.2647
 9600TIP3    H150291   6.527   1.553   5.171 -0.6797  1.8461 -3.8941
 9600TIP3    H250292   6.493   1.422   5.103  0.5034 -3.3031  4.1322
 9601TIP3   OH250293   3.837   0.765  12.521 -0.0564 -0.4397  0.2652
 9601TIP3    H150294   3.863   0.713  12.445 -1.2175 -1.6140  0.6323
 9601TIP3    H250295   3.743   0.753  12.526 -0.3772  1.8283  0.3133
 9602TIP3   OH250296   0.215   5.885   4.775  0.5984 -0.1969 -0.1427
 9602TIP3    H150297   0.205   5.851   4.685  0.7336  1.5474 -0.8500
 9602TIP3    H250298   0.270   5.820   4.818 -0.5469 -1.7673 -0.8958
 9603TIP3   OH250299   6.113   4.999  13.184  0.3007  0.4612 -0.2706
 9603TIP3    H150300   6.131   4.907  13.205  1.2792  0.5191 -0.7896
 9603TIP3    H250301   6.078   4.998  13.095 -1.3696  0.4508  0.3553
 9604TIP3   OH250302   0.976   2.365   3.401 -0.3851  0.1865  0.3060
 9604TIP3    H150303   0.963   2.456   3.376  0.0911 -0.0872 -1.0453
 9604TIP3    H250304   0.939   2.315   3.328  2.8510 -0.6447 -0.9026
 9605TIP3   OH250305   0.316   6.141  11.598  0.0063 -0.6210 -0.2568
 9605TIP3    H150306   0.365   6.094  11.665 -0.3676 -0.4518  0.1403
 9605TIP3    H250307   0.326   6.233  11.622 -1.1307 -0.6256  0.2673
 9606TIP3   OH250308   6.133   1.265  14.908 -0.1731  0.4536  0.2679
 9606TIP3    H150309   6.058   1.256  14.968  0.7131 -1.3098  1.1695
 9606TIP3    H250310   6.095   1.256  14.821 -1.5236  3.2107  0.4538
 9607TIP3   OH250311   1.344   1.448  13.168 -0.0949 -0.1061 -0.1576
 9607TIP3    H150312   1.399   1.522  13.194  0.3508 -0.1852 -0.8548
 9607TIP3    H250313   1.269   1.489  13.124  0.1651 -0.0654 -0.5680
 9608TIP3   OH250314   1.675   1.885   0.523 -0.0879  0.5284  0.1748
 9608TIP3    H150315   1.685   1.814   0.459 -1.3838 -0.1630  0.7123
 9608TIP3    H250316   1.736   1.953   0.492  0.7702 -0.5759 -0.6659
 9609TIP3   OH250317   0.051   6.220   3.776  0.8717 -0.2977 -0.2975
 9609TIP3    H150318   0.026   6.132   3.747  0.9018  0.2302 -2.0471
 9609TIP3    H250319   0.120   6.246   3.715 -0.8186  1.8779 -1.4311
 9610TIP3   OH250320   2.754   3.201  10.698  0.1802  0.1399  0.6378
 9610TIP3    H150321   2.808   3.258  10.644 -1.6403  0.0915 -1.3672
 9610TIP3    H250322   2.737   3.125  10.642 -1.6550  0.0220  1.2991
 9611TIP3   OH250323   1.807   6.326   5.552  0.7473  0.0276  0.4196
 9611TIP3    H150324   1.885   6.272   5.538  1.0107  0.2316  1.0388
 9611TIP3    H250325   1.733   6.267   5.539  1.0418 -0.5985  1.5340
 9612TIP3   OH250326   3.159   3.747  15.719  0.6581 -0.2730 -0.1901
 9612TIP3    H150327   3.194   3.658  15.719 -2.2175 -1.5813  1.8701
 9612TIP3    H250328   3.070   3.737  15.685  0.0857  1.7194  0.6159
 9613TIP3   OH250329   2.596   1.460   5.316  0.5119  0.2846  0.0578
 9613TIP3    H150330   2.562   1.547   5.337  1.1600  0.8179 -1.0321
 9613TIP3    H250331   2.635   1.429   5.398  0.0862  0.9166  0.5107
 9614TIP3   OH250332   2.036   0.660   0.662 -0.4338  0.8649 -0.6284
 9614TIP3    H150333   2.065   0.610   0.586 -0.7498  0.0715 -0.2493
 9614TIP3    H250334   2.067   0.749   0.647  2.7082 -0.0092  0.0170
 9615TIP3   OH250335   4.973   2.049  13.930 -0.6284 -0.1446 -0.3640
 9615TIP3    H150336   4.928   1.982  13.878 -1.5978  0.5074 -0.3922
 9615TIP3    H250337   4.907   2.078  13.993 -1.2570  2.7866 -2.1424
 9616TIP3   OH250338   6.752   6.506  14.251  0.0173  0.5174  0.0017
 9616TIP3    H150339   6.828   6.495  14.307  0.7794  1.4641 -0.8095
 9616TIP3    H250340   6.678   6.512  14.313  0.5905 -0.2955  0.7971
 9617TIP3   OH250341   1.055   3.590   5.859 -0.3575 -0.6310 -0.2660
 9617TIP3    H150342   1.093   3.565   5.775 -0.4434 -0.3066 -0.4040
 9617TIP3    H250343   1.034   3.507   5.902  1.7165 -0.8875  0.3826
 9618TIP3   OH250344   5.857   5.789  17.017 -0.2959 -0.2367  0.1422
 9618TIP3    H150345   5.934   5.785  16.961  0.4711 -0.3685  1.1744
 9618TIP3    H250346   5.816   5.873  16.997  1.0892  0.6355  0.7989
 9619TIP3   OH250347   1.121   6.039  12.706  0.2175  0.3413 -0.1560
 9619TIP3    H150348   1.082   5.952  12.714 -1.4876  0.8650 -1.9328
 9619TIP3    H250349   1.178   6.033  12.630  4.2986 -0.5323  2.6592
 9620TIP3   OH250350   6.113   1.431   1.390  0.6188 -0.1603 -0.2002
 9620TIP3    H150351   6.122   1.383   1.307 -0.6882  0.2397 -0.6026
 9620TIP3    H250352   6.151   1.517   1.372  1.5462 -0.5158  0.0363
 9621TIP3   OH250353   4.957   1.286  15.439 -0.1377  0.1562 -0.0507
 9621TIP3    H150354   4.933   1.363  15.491  0.7549  1.0541 -0.9095
 9621TIP3    H250355   5.020   1.320  15.374  2.7299 -1.8275  1.4766
 9622TIP3   OH250356   4.582   0.143  12.038 -0.4456  0.9778  0.3697
 9622TIP3    H150357   4.588   0.080  12.110  1.5140  1.1147  0.3827
 9622TIP3    H250358   4.616   0.096  11.962  0.8355  1.8950  0.3309
 9623TIP3   OH250359   2.281   2.594   5.431  0.0722 -0.5264 -0.4136
 9623TIP3    H150360   2.226   2.585   5.353 -2.9353 -1.1895  1.5938
 9623TIP3    H250361   2.292   2.505   5.463 -0.2886 -0.1313  0.8568
 9624TIP3   OH250362   1.367   6.272   1.914 -0.1883  0.1701 -0.0313
 9624TIP3    H150363   1.273   6.275   1.928 -0.2718 -1.6472  0.0420
 9624TIP3    H250364   1.404   6.325   1.985 -1.1008 -0.2382  0.7602
 9625TIP3   OH250365   5.167   1.658  15.464 -0.0976 -0.5888  0.2894
 9625TIP3    H150366   5.098   1.597  15.439  1.1006 -0.9320 -2.6298
 9625TIP3    H250367   5.220   1.668  15.384  0.3790  3.4537  0.9006
 9626TIP3   OH250368   6.148   6.220  11.684 -0.1975 -0.3203  0.2822
 9626TIP3    H150369   6.151   6.298  11.628 -0.0492  0.5176  1.4102
 9626TIP3    H250370   6.086   6.162  11.641  0.7098 -0.1761 -1.3181
 9627TIP3   OH250371   0.564   1.283  12.667  0.3031 -0.1598  0.1391
 9627TIP3    H150372   0.565   1.374  12.696 -2.2836 -0.2159  0.6030
 9627TIP3    H250373   0.556   1.232  12.747 -1.0430 -0.6141 -0.2527
 9628TIP3   OH250374   0.590   1.166   1.747 -0.1034  0.6135 -0.3302
 9628TIP3    H150375   0.630   1.112   1.679 -1.1992 -1.4119  0.5353
 9628TIP3    H250376   0.664   1.208   1.790  0.7302  0.5243 -1.6137
 9629TIP3   OH250377   3.077   5.056  14.689 -0.6991  0.3251  0.1085
 9629TIP3    H150378   3.137   5.004  14.635  1.9807 -1.0355  3.9401
 9629TIP3    H250379   3.113   5.144  14.688 -1.5547  0.6929 -1.3766
 9630TIP3   OH250380   5.330   4.918  13.636 -0.0586 -0.7831 -0.4865
 9630TIP3    H150381   5.317   5.005  13.600 -0.8381 -0.5526  0.3132
 9630TIP3    H250382   5.244   4.894  13.673  0.4201 -1.4433  0.2367
 9631TIP3   OH250383   2.507   2.330  13.520 -0.0734 -0.3260 -0.5357
 9631TIP3    H150384   2.597   2.363  13.528 -0.2290 -0.2322  1.1023
 9631TIP3    H250385   2.516   2.234  13.524  0.2103 -0.5323 -3.5832
 9632TIP3   OH250386   0.262   0.302   5.678 -0.6856  0.2571 -0.1792
 9632TIP3    H150387   0.210   0.234   5.634 -1.2102  0.1482  0.5795
 9632TIP3    H250388   0.203   0.338   5.744 -0.1548  0.9190 -0.0536
 9633TIP3   OH250389   1.943   5.670  16.195 -0.7388 -0.4599 -0.1055
 9633TIP3    H150390   1.897   5.747  16.162 -1.8568 -1.0384  0.0733
 9633TIP3    H250391   1.974   5.625  16.116 -1.3125 -0.5699 -0.2699
 9634TIP3   OH250392   0.009   4.162  12.000  0.0282  0.5868  0.0465
 9634TIP3    H150393  -0.041   4.126  11.927  1.7894  0.4258 -1.1405
 9634TIP3    H250394   0.024   4.088  12.058 -0.0544  0.3703 -0.2060
 9635TIP3   OH250395   3.713   5.726   4.870 -0.5464  0.3076  0.4257
 9635TIP3    H150396   3.787   5.724   4.930  1.2240 -1.9587 -1.6025
 9635TIP3    H250397   3.735   5.796   4.808 -0.6566  0.3956  0.4875
 9636TIP3   OH250398   3.548   1.875   0.884 -0.4339 -0.4630  0.0879
 9636TIP3    H150399   3.573   1.789   0.918  0.4978  0.4490  1.8736
 9636TIP3    H250400   3.497   1.915   0.955 -0.3458  0.6735 -0.4626
 9637TIP3   OH250401   0.775   0.003   5.361 -0.0679  0.0008  0.0055
 9637TIP3    H150402   0.739  -0.031   5.443 -0.0314 -0.5218 -0.1874
 9637TIP3    H250403   0.869  -0.011   5.367  0.1201  1.3842  0.5152
 9638TIP3   OH250404   3.367   1.269  15.916 -0.3631  0.3179  0.7811
 9638TIP3    H150405   3.365   1.364  15.920 -0.4170  0.2967  1.2760
 9638TIP3    H250406   3.307   1.247  15.845 -1.0269  0.6179  1.2420
 9639TIP3   OH250407   1.160   1.277  15.150 -0.1793 -0.0177 -0.2113
 9639TIP3    H150408   1.125   1.246  15.234 -1.2104 -0.6314 -0.8362
 9639TIP3    H250409   1.083   1.279  15.093  0.5198  0.3475 -1.1486
 9640TIP3   OH250410   6.521   0.091  14.194 -0.6186  0.3103  0.0478
 9640TIP3    H150411   6.531   0.062  14.284  0.1720  0.9795  0.1913
 9640TIP3    H250412   6.592   0.049  14.146 -0.3372  0.8570 -0.0259
 9641TIP3   OH250413   5.218   4.087   2.025 -0.2842  0.5092 -0.3230
 9641TIP3    H150414   5.181   4.162   2.072  0.8656  0.8336  0.0953
 9641TIP3    H250415   5.266   4.127   1.951  0.9512  0.2597  0.3174
 9642TIP3   OH250416   5.676   2.803  15.710 -0.3807  0.3102  0.3056
 9642TIP3    H150417   5.663   2.735  15.775 -0.2614  0.2922  0.3106
 9642TIP3    H250418   5.732   2.763  15.644 -0.4589  0.3447  0.2176
 9643TIP3   OH250419   5.616   3.078   6.389  0.4859 -0.1840  0.3965
 9643TIP3    H150420   5.617   3.132   6.468  1.1665  3.1308 -1.6978
 9643TIP3    H250421   5.584   3.136   6.320 -1.2867 -3.2691 -1.6267
 9644TIP3   OH250422   3.292   4.718   0.069 -0.7021  0.0233 -0.4629
 9644TIP3    H150423   3.297   4.623   0.068 -1.2436 -0.0092 -0.3338
 9644TIP3    H250424   3.221   4.739   0.007  0.7452  0.4470 -2.0570
 9645TIP3   OH250425   2.957   6.664   4.420  1.3423 -0.2439  0.5024
 9645TIP3    H150426   2.981   6.749   4.383  0.1652 -0.2566 -0.3425
 9645TIP3    H250427   2.870   6.646   4.385  0.3439 -0.4860  2.9108
 9646TIP3   OH250428   2.658   5.012  13.652 -0.7052 -0.2454  0.2982
 9646TIP3    H150429   2.621   4.927  13.676 -0.5500  0.2907  2.7106
 9646TIP3    H250430   2.593   5.075  13.680  0.6235  0.5624  1.7116
 9647TIP3   OH250431   1.643   4.523   1.263 -0.7264 -0.4971 -0.0303
 9647TIP3    H150432   1.595   4.451   1.304 -2.4613 -0.5308 -1.9718
 9647TIP3    H250433   1.704   4.479   1.203  0.8834 -0.4021  1.4488
 9648TIP3   OH250434   6.420   0.436  11.961 -0.2485  0.5509 -0.2644
 9648TIP3    H150435   6.357   0.364  11.966 -0.0912  0.4558  0.7120
 9648TIP3    H250436   6.373   0.512  11.996  0.3599  0.3175  1.1608
 9649TIP3   OH250437   6.259   5.283   0.136 -0.0501  0.6234 -0.1440
 9649TIP3    H150438   6.287   5.350   0.073  0.7528  1.3486  0.9505
 9649TIP3    H250439   6.341   5.240   0.162 -0.2497  0.9655  1.0963
 9650TIP3   OH250440   6.775   3.595  16.670  0.3779  0.3373  0.4478
 9650TIP3    H150441   6.832   3.521  16.692  0.2607  0.2663  0.5123
 9650TIP3    H250442   6.794   3.612  16.577  0.3756  0.1990  0.4206
 9651TIP3   OH250443   4.676   5.934  15.913  0.1228  0.0123  0.0903
 9651TIP3    H150444   4.742   5.936  15.844 -0.8580 -0.8302 -0.9146
 9651TIP3    H250445   4.681   6.020  15.954  0.1553  0.8550 -1.6047
 9652TIP3   OH250446   3.204   3.191  14.995 -0.0999  0.3783  0.0854
 9652TIP3    H150447   3.141   3.263  14.992 -0.8710 -0.3043 -1.1664
 9652TIP3    H250448   3.249   3.195  14.910 -1.0639 -1.3618 -0.5632
 9653TIP3   OH250449   6.150   4.325  16.242 -0.0766 -0.2478 -0.3270
 9653TIP3    H150450   6.173   4.236  16.267  1.6797  0.0001 -0.8968
 9653TIP3    H250451   6.085   4.352  16.307  1.1905 -1.0920  1.3668
 9654TIP3   OH250452   5.770   0.658   3.559 -0.7029  0.9145  0.4256
 9654TIP3    H150453   5.828   0.729   3.588  1.6613 -0.6139 -0.2554
 9654TIP3    H250454   5.728   0.692   3.481  1.7077  1.0717 -0.9030
 9655TIP3   OH250455   2.733   1.633   2.507 -0.4034 -0.0152 -0.3927
 9655TIP3    H150456   2.771   1.721   2.502  1.3888 -0.7129  0.2874
 9655TIP3    H250457   2.706   1.624   2.599 -1.7199  0.2473 -0.7334
 9656TIP3   OH250458   3.707   4.403  14.667  0.8980 -0.0651  0.5156
 9656TIP3    H150459   3.685   4.488  14.706  2.5233  0.9686 -0.7111
 9656TIP3    H250460   3.623   4.369  14.636  0.5520  2.6985 -2.0119
 9657TIP3   OH250461   0.869   5.627  15.384 -0.3115  0.2619  0.3500
 9657TIP3    H150462   0.895   5.562  15.449  0.1137  0.1243  0.0488
 9657TIP3    H250463   0.860   5.708  15.434 -1.6747 -0.1947  0.8735
 9658TIP3   OH250464   5.597   0.977  15.173  0.2294  0.2993  0.2658
 9658TIP3    H150465   5.647   0.926  15.110  1.2549 -0.5516  1.7097
 9658TIP3    H250466   5.511   0.935  15.174  0.1974  0.3289 -0.5657
 9659TIP3   OH250467   1.074   4.073   0.447  0.1869 -0.2134 -0.3358
 9659TIP3    H150468   1.069   4.054   0.353  0.5106 -0.3143 -0.3362
 9659TIP3    H250469   1.132   4.005   0.482 -0.6344 -0.7208  0.0904
 9660TIP3   OH250470   1.117   2.282   4.290 -0.3439 -0.3922  0.4278
 9660TIP3    H150471   1.195   2.336   4.278 -1.8297  1.6157 -0.5610
 9660TIP3    H250472   1.103   2.282   4.385  1.5835 -1.9813  0.8042
 9661TIP3   OH250473   0.259   5.586   2.668  0.3781  0.1248  0.1091
 9661TIP3    H150474   0.290   5.657   2.724  0.0805 -0.7990  1.5008
 9661TIP3    H250475   0.167   5.575   2.692 -0.2032  0.7833 -1.7475
 9662TIP3   OH250476   4.648   5.528  15.799  0.3273  0.1173  0.2793
 9662TIP3    H150477   4.725   5.560  15.846  0.6333 -0.2540  0.0402
 9662TIP3    H250478   4.684   5.485  15.721  0.1189 -2.7613  1.6346
 9663TIP3   OH250479   5.212   1.093   3.888 -0.3344 -0.1474 -0.3420
 9663TIP3    H150480   5.225   1.166   3.828  0.5286  0.6829  0.8112
 9663TIP3    H250481   5.198   1.017   3.831  0.9808  0.5055 -1.6008
 9664TIP3   OH250482   5.513   0.878   6.637  0.0856 -0.4093  0.7791
 9664TIP3    H150483   5.565   0.799   6.623 -0.0356 -0.1463 -1.4923
 9664TIP3    H250484   5.425   0.854   6.608  0.4150  0.9864 -1.6621
 9665TIP3   OH250485   5.674   3.424  10.937  0.7075  0.2432  0.0317
 9665TIP3    H150486   5.639   3.511  10.918 -1.8120 -0.3549  1.4971
 9665TIP3    H250487   5.711   3.432  11.025  2.4541  0.2981 -0.6563
 9666TIP3   OH250488   4.604   6.042  15.146  0.0644  0.3709 -0.4364
 9666TIP3    H150489   4.586   6.053  15.053  1.6785  0.0398 -0.8191
 9666TIP3    H250490   4.621   6.130  15.179  0.1130  0.4217 -0.5987
 9667TIP3   OH250491   0.156   3.773   3.005  0.8542 -0.4254 -0.2377
 9667TIP3    H150492   0.206   3.800   3.082  1.9423  0.6267 -1.2538
 9667TIP3    H250493   0.102   3.700   3.035  0.7810  0.3448  1.6618
 9668TIP3   OH250494   5.273   4.720  13.429  0.4660 -0.1180  0.3086
 9668TIP3    H150495   5.259   4.784  13.359 -1.1175 -1.1692 -0.4032
 9668TIP3    H250496   5.300   4.772  13.504 -1.3057  1.4875 -0.0776
 9669TIP3   OH250497   4.173   0.249   4.998 -0.5493  0.4684  0.0125
 9669TIP3    H150498   4.121   0.290   4.929 -0.0731  0.4763 -0.3438
 9669TIP3    H250499   4.116   0.181   5.034 -0.3838 -0.2995 -1.1537
 9670TIP3   OH250500   3.154   4.681   4.896  0.1232 -1.0933  0.2528
 9670TIP3    H150501   3.226   4.732   4.858 -0.4526  0.3635  1.0373
 9670TIP3    H250502   3.098   4.746   4.937 -1.3801 -2.2551  0.1226
 9671TIP3   OH250503   4.181   1.035   5.709  0.1578  0.0475  0.2122
 9671TIP3    H150504   4.170   1.129   5.728 -0.0271 -0.0686  0.6883
 9671TIP3    H250505   4.179   1.030   5.614 -1.3503  0.3498  0.2005
 9672TIP3   OH250506   4.369   4.673  14.416 -0.1043  0.2868 -0.2617
 9672TIP3    H150507   4.335   4.738  14.354  0.0438  2.1273  1.4723
 9672TIP3    H250508   4.447   4.638  14.373  0.9417  2.7091 -0.5416
 9673TIP3   OH250509   3.790   5.287  12.025  0.0132 -0.2599  0.5125
 9673TIP3    H150510   3.855   5.322  11.963 -1.1403 -1.7217 -1.6680
 9673TIP3    H250511   3.706   5.309  11.985 -0.7734 -1.2425  1.5996
 9674TIP3   OH250512   1.425   6.009   4.079 -0.4785 -0.4794  0.6875
 9674TIP3    H150513   1.348   5.958   4.053  0.3080 -1.3300 -0.0529
 9674TIP3    H250514   1.491   5.943   4.099  1.2012  0.2102 -2.1775
 9675TIP3   OH250515   1.098   1.420   2.537 -0.5838 -0.4446 -0.0071
 9675TIP3    H150516   1.031   1.422   2.468 -0.3605  0.8013 -0.2219
 9675TIP3    H250517   1.122   1.328   2.545  1.1713 -0.4476 -3.3809
 9676TIP3   OH250518   4.647   1.209  11.076 -0.3200 -0.0524  0.4692
 9676TIP3    H150519   4.682   1.285  11.030 -1.0695 -0.4321 -0.7949
 9676TIP3    H250520   4.646   1.139  11.010 -2.4352 -0.3344  0.7174
 9677TIP3   OH250521   4.496   5.192  13.314 -0.2104 -0.6040  0.1465
 9677TIP3    H150522   4.454   5.259  13.367  0.2651  0.1721 -0.4445
 9677TIP3    H250523   4.589   5.215  13.312 -0.1062 -1.0190 -0.4230
 9678TIP3   OH250524   5.150   4.383  16.311  0.1110 -0.4954 -0.4141
 9678TIP3    H150525   5.098   4.456  16.342 -1.5721 -2.5307  1.9981
 9678TIP3    H250526   5.089   4.329  16.261  1.2345 -0.4653 -1.8822
 9679TIP3   OH250527   4.102   5.786  11.176  0.3928  0.1775  0.3483
 9679TIP3    H150528   4.064   5.730  11.109 -1.8270  1.4494  0.4709
 9679TIP3    H250529   4.180   5.823  11.135  0.4551 -0.9674 -0.6188
 9680TIP3   OH250530   1.007   1.772  16.952 -0.3051  0.0890  0.1933
 9680TIP3    H150531   1.069   1.702  16.972 -0.4758 -0.4394 -1.0246
 9680TIP3    H250532   1.003   1.824  17.032  0.4147 -0.8424  0.8597
 9681TIP3   OH250533   6.511   1.625   3.193  0.5129  0.6795 -0.0232
 9681TIP3    H150534   6.440   1.666   3.144  0.8732  0.7204 -0.5196
 9681TIP3    H250535   6.569   1.698   3.216  1.1900  0.4486 -0.9659
 9682TIP3   OH250536   5.325   0.765  13.052 -0.2978  0.2033 -0.1182
 9682TIP3    H150537   5.410   0.805  13.070  0.2328  1.2733 -4.1204
 9682TIP3    H250538   5.262   0.836  13.064 -0.7441 -0.5117  2.5327
 9683TIP3   OH250539   1.468   0.204  12.077 -0.0278  0.0839 -0.1377
 9683TIP3    H150540   1.431   0.117  12.088 -0.2712  0.0490 -1.1511
 9683TIP3    H250541   1.529   0.195  12.004  1.3717  0.3395  0.9637
 9684TIP3   OH250542   0.992   1.072  17.109 -0.0587  0.4589 -0.2885
 9684TIP3    H150543   0.972   0.990  17.063  2.3248 -0.7864  0.7139
 9684TIP3    H250544   1.056   1.116  17.053  1.7585 -0.3790  1.0316
 9685TIP3   OH250545   6.115   2.351  16.263  1.1611 -0.4713  0.7837
 9685TIP3    H150546   6.129   2.256  16.256  3.4957 -0.2203  1.2833
 9685TIP3    H250547   6.151   2.374  16.349  0.1630  0.8002  0.8765
 9686TIP3   OH250548   0.588   5.553  12.649 -0.9163  0.2841 -0.8382
 9686TIP3    H150549   0.575   5.468  12.690  1.6948  0.4301  0.4423
 9686TIP3    H250550   0.624   5.533  12.562 -0.5542  0.0809 -0.6411
 9687TIP3   OH250551   3.980   4.509   4.439 -0.0110  0.5818  0.0071
 9687TIP3    H150552   3.907   4.571   4.443  0.2585  0.9190 -0.1651
 9687TIP3    H250553   4.056   4.564   4.418 -0.0964 -0.0321 -2.2287
 9688TIP3   OH250554   1.599   4.552   4.500  0.4101 -0.1965  0.1368
 9688TIP3    H150555   1.539   4.626   4.490 -0.1285 -0.8586 -2.3746
 9688TIP3    H250556   1.676   4.577   4.447  0.7407 -0.9274  0.2668
 9689TIP3   OH250557   3.706   4.241   5.736 -0.1054  0.1453  0.2441
 9689TIP3    H150558   3.664   4.219   5.820 -0.7226  1.6262  0.3389
 9689TIP3    H250559   3.775   4.303   5.760  0.9310 -0.8115 -0.1526
 9690TIP3   OH250560   4.610   0.635  17.003 -0.2254  0.1590  0.3054
 9690TIP3    H150561   4.531   0.650  17.055 -0.9197  0.4312 -0.7767
 9690TIP3    H250562   4.578   0.634  16.912  0.5697 -2.6417 -0.0394
 9691TIP3   OH250563   6.734   6.237   4.731  0.3381  0.4403  0.0840
 9691TIP3    H150564   6.776   6.230   4.645  1.3949  1.8060  0.4541
 9691TIP3    H250565   6.674   6.310   4.723  0.2859  0.4394  0.4479
 9692TIP3   OH250566   2.785   2.373  12.400  0.7239  0.2091 -0.0958
 9692TIP3    H150567   2.770   2.338  12.312  0.6307 -0.4858  0.1952
 9692TIP3    H250568   2.697   2.386  12.436  0.7605 -0.9398  0.4526
 9693TIP3   OH250569   1.598   4.758   3.023  0.3127 -0.0172 -0.5073
 9693TIP3    H150570   1.617   4.737   3.115  0.0928 -1.4106 -0.7498
 9693TIP3    H250571   1.667   4.714   2.974 -2.2666 -3.6787 -1.2906
 9694TIP3   OH250572   6.622   0.431  15.591  0.3253  0.3764  0.4509
 9694TIP3    H150573   6.532   0.458  15.608  0.3535  1.1009 -0.4598
 9694TIP3    H250574   6.620   0.391  15.504  0.7516 -0.2718  0.7318
 9695TIP3   OH250575   5.890   5.944   3.327  0.1450  0.0448  0.5007
 9695TIP3    H150576   5.808   5.913   3.289  0.8449 -0.7487 -0.4088
 9695TIP3    H250577   5.944   5.970   3.252  0.5965  0.9048  1.1040
 9696TIP3   OH250578   5.711   0.938  13.714  0.3871 -0.1995  0.2950
 9696TIP3    H150579   5.621   0.938  13.748  0.0742 -2.3314 -0.3782
 9696TIP3    H250580   5.759   0.881  13.774  0.6730 -1.1124 -0.7815
 9697TIP3   OH250581   5.740   3.396   2.582  0.1025 -0.7772  0.4386
 9697TIP3    H150582   5.661   3.425   2.628  0.1969 -0.3513  0.3364
 9697TIP3    H250583   5.718   3.407   2.489  1.1319  1.7202  0.4096
 9698TIP3   OH250584   4.720   6.422  15.611  0.6599  0.1569 -0.0158
 9698TIP3    H150585   4.655   6.463  15.554 -0.1059  0.6004  1.1612
 9698TIP3    H250586   4.761   6.496  15.656  1.2945 -0.1935 -0.0090
 9699TIP3   OH250587   5.953   6.733   0.926  0.1579  0.4002 -0.0112
 9699TIP3    H150588   5.907   6.651   0.905 -2.9124  1.9377  0.1469
 9699TIP3    H250589   6.043   6.706   0.942 -0.6048 -2.8762 -0.4560
 9700TIP3   OH250590   4.892   2.214   3.926 -0.5731  0.7377 -0.2423
 9700TIP3    H150591   4.946   2.290   3.903 -2.9307  3.0154  1.0824
 9700TIP3    H250592   4.879   2.222   4.020 -0.9929 -1.2953 -0.0903
 9701TIP3   OH250593   3.403   1.512   0.762 -0.3204  0.7834 -0.0557
 9701TIP3    H150594   3.455   1.495   0.683 -0.1933 -1.3847  0.4281
 9701TIP3    H250595   3.318   1.540   0.729 -0.0461  0.5948 -0.9533
 9702TIP3   OH250596   5.983   5.359  15.743  0.0683 -0.1182  0.2759
 9702TIP3    H150597   5.967   5.449  15.772 -1.6370 -0.9661  2.2461
 9702TIP3    H250598   5.899   5.332  15.704  0.8575 -0.5941 -1.1796
 9703TIP3   OH250599   1.495   1.277   1.340 -0.1687 -0.5243  0.7127
 9703TIP3    H150600   1.500   1.251   1.248 -0.3793  1.9922 -0.0884
 9703TIP3    H250601   1.412   1.326   1.347  0.3871  0.2997  1.9352
 9704TIP3   OH250602   6.317   1.070  14.734 -0.1855  0.4025 -0.8426
 9704TIP3    H150603   6.239   1.071  14.790  0.4050 -0.3608  0.0295
 9704TIP3    H250604   6.300   1.000  14.671  0.0737 -0.2419 -0.2126
 9705TIP3   OH250605   6.331   2.616   5.739  0.2381  0.0957  0.3885
 9705TIP3    H150606   6.328   2.638   5.646  1.9319 -0.5451  0.1591
 9705TIP3    H250607   6.242   2.635   5.770 -0.3812  0.2734 -1.3525
 9706TIP3   OH250608   5.992   0.667   4.639  0.0108  0.3177  0.2778
 9706TIP3    H150609   5.900   0.685   4.621 -0.0684 -0.1710  0.1630
 9706TIP3    H250610   6.006   0.697   4.729 -0.1495  0.7917  0.1423
 9707TIP3   OH250611   4.377   2.131  15.604 -0.0446  0.4492 -0.2553
 9707TIP3    H150612   4.299   2.167  15.647 -0.8222 -0.9503 -0.4028
 9707TIP3    H250613   4.380   2.040  15.634 -0.0795 -0.3123 -2.3708
 9708TIP3   OH250614   0.622   2.162   3.508 -0.1405  0.2511  0.5217
 9708TIP3    H150615   0.615   2.248   3.548 -0.1396  0.9950 -1.0146
 9708TIP3    H250616   0.713   2.156   3.479  0.7700 -1.5583  3.2948
 9709TIP3   OH250617   1.958   2.174  15.237  0.5527  0.4548  0.3370
 9709TIP3    H150618   1.956   2.167  15.333  1.4244 -1.4344  0.2601
 9709TIP3    H250619   2.051   2.173  15.215  0.3269 -1.0597 -0.6254
 9710TIP3   OH250620   2.243   4.960   0.095 -0.4545  0.0611 -0.0565
 9710TIP3    H150621   2.179   4.993   0.159 -1.1197  0.1755 -0.7705
 9710TIP3    H250622   2.305   5.032   0.084  0.8204 -0.6451  1.9170
 9711TIP3   OH250623   3.195   0.100   0.818  0.5550  0.1020  0.3126
 9711TIP3    H150624   3.259   0.091   0.889 -0.3800 -0.1375  1.1356
 9711TIP3    H250625   3.110   0.095   0.861 -0.0292  0.7204 -0.7369
 9712TIP3   OH250626   1.453   4.274  13.816  0.3885  0.6727 -0.5145
 9712TIP3    H150627   1.544   4.270  13.787  0.1381 -0.1678 -1.2092
 9712TIP3    H250628   1.442   4.197  13.872  0.5559  1.6768  0.9783
 9713TIP3   OH250629   4.000   5.081  15.281 -0.2168 -0.3851  0.4187
 9713TIP3    H150630   3.937   5.048  15.345  0.1370  0.4808  1.2444
 9713TIP3    H250631   4.009   5.174  15.301  1.1128 -0.4276  0.1642
 9714TIP3   OH250632   0.798   2.718   2.513  0.5373  0.2075 -0.2967
 9714TIP3    H150633   0.760   2.693   2.429 -1.7734 -0.1023  0.7669
 9714TIP3    H250634   0.812   2.812   2.506 -1.3020  0.4915 -0.4377
 9715TIP3   OH250635   1.499   1.411  15.655 -0.8701  0.1278  0.4932
 9715TIP3    H150636   1.427   1.351  15.633 -1.4425  0.9236  0.1590
 9715TIP3    H250637   1.552   1.414  15.576  0.3546 -1.5442  1.1773
 9716TIP3   OH250638   5.811   3.185  10.934  0.0919  0.0927  0.7249
 9716TIP3    H150639   5.769   3.271  10.924  0.5535  0.1817 -0.6743
 9716TIP3    H250640   5.902   3.200  10.908  1.0612 -0.1191  3.6076
 9717TIP3   OH250641   4.076   1.735  11.132 -0.6215 -0.3074  0.3514
 9717TIP3    H150642   4.155   1.704  11.088 -1.3845  0.1317 -1.3982
 9717TIP3    H250643   4.007   1.677  11.101 -1.5018  1.1490 -0.4923
 9718TIP3   OH250644   2.978   1.821   5.864 -0.0604 -0.1706  0.7710
 9718TIP3    H150645   2.994   1.907   5.825 -0.1513 -0.7402 -0.5673
 9718TIP3    H250646   3.060   1.774   5.853  0.0029 -0.2443  1.5409
 9719TIP3   OH250647   5.844   6.463  13.640  0.5194 -0.1034 -0.4261
 9719TIP3    H150648   5.903   6.396  13.605  0.1770 -0.1757 -0.8742
 9719TIP3    H250649   5.898   6.513  13.701  0.2711 -2.0773  1.5312
 9720TIP3   OH250650   1.162   3.135  15.225  0.2000 -0.1825 -0.1625
 9720TIP3    H150651   1.156   3.102  15.315 -0.7359  0.1116 -0.1135
 9720TIP3    H250652   1.199   3.222  15.233  0.3444 -0.2509 -0.0850
 9721TIP3   OH250653   0.158   4.888   3.401  0.5913  0.1800 -0.3690
 9721TIP3    H150654   0.253   4.892   3.406  0.6233 -0.3879 -0.5379
 9721TIP3    H250655   0.129   4.900   3.492  0.9426 -2.8680  0.2555
 9722TIP3   OH250656   5.220   6.571  11.619 -0.0206  0.3823  0.0402
 9722TIP3    H150657   5.292   6.566  11.682 -1.0666 -0.2975  1.2349
 9722TIP3    H250658   5.189   6.662  11.625  1.3615  0.9765 -1.2481
 9723TIP3   OH250659   3.157   4.484   1.382 -0.0601  0.1222 -0.0933
 9723TIP3    H150660   3.145   4.574   1.411 -1.2976  0.3058 -1.1255
 9723TIP3    H250661   3.201   4.441   1.456  1.7726  1.8526 -0.0930
 9724TIP3   OH250662   1.568   4.172  11.506  0.4841  0.0768  0.0636
 9724TIP3    H150663   1.652   4.200  11.470 -0.4944 -0.6341 -3.1388
 9724TIP3    H250664   1.536   4.106  11.444 -1.0430 -2.0146  2.8534
 9725TIP3   OH250665   0.481   6.004  11.777  0.1326 -0.3910 -0.3611
 9725TIP3    H150666   0.444   5.918  11.797  0.5566 -0.1276  1.7412
 9725TIP3    H250667   0.564   6.007  11.825 -0.6414  1.7827  0.9702
 9726TIP3   OH250668   3.857   6.723   1.780 -0.1600 -0.4841  0.3656
 9726TIP3    H150669   3.820   6.715   1.868 -0.5783  1.5080  0.4314
 9726TIP3    H250670   3.921   6.653   1.774  0.5363 -0.1203  2.6244
 9727TIP3   OH250671   2.816   1.677   6.607  0.1313  0.3865 -0.0782
 9727TIP3    H150672   2.838   1.769   6.598 -1.4354  0.6730 -1.4986
 9727TIP3    H250673   2.800   1.647   6.518 -0.6818 -0.9050  0.4718
 9728TIP3   OH250674   3.154   5.371  12.420 -0.4066 -0.3459  0.2003
 9728TIP3    H150675   3.094   5.327  12.360 -1.4190  0.8031  0.3421
 9728TIP3    H250676   3.138   5.464  12.406  2.3887  0.0698 -0.8215
 9729TIP3   OH250677   1.867   1.318   2.516  0.7971  0.5954 -0.2283
 9729TIP3    H150678   1.941   1.337   2.574  0.6354  1.1628 -0.2004
 9729TIP3    H250679   1.878   1.226   2.492  0.4714  0.1479  1.2747
 9730TIP3   OH250680   3.280   2.271  15.516  0.1046 -0.3336 -0.0722
 9730TIP3    H150681   3.232   2.248  15.437 -0.5779  0.7719 -0.0016
 9730TIP3    H250682   3.364   2.226  15.507  0.3238  0.3425 -1.7632
 9731TIP3   OH250683   6.405   2.024  15.047  0.3126  0.4464  0.6324
 9731TIP3    H150684   6.341   1.963  15.011  0.0506  0.6988  0.6656
 9731TIP3    H250685   6.396   2.103  14.993  1.1085  0.2268  0.1650
 9732TIP3   OH250686   5.731   4.140  14.135  0.0352  0.3914  0.1084
 9732TIP3    H150687   5.781   4.080  14.190 -1.1604  0.1505  0.9626
 9732TIP3    H250688   5.788   4.158  14.060  1.0420 -0.5380  0.6417
 9733TIP3   OH250689   1.302   0.726  16.557 -0.6475  0.4734 -0.2138
 9733TIP3    H150690   1.390   0.755  16.535 -1.0409  1.4709 -0.5422
 9733TIP3    H250691   1.272   0.677  16.480 -0.7421  0.9866 -0.5063
 9734TIP3   OH250692   4.007   1.706   5.971 -0.1217  0.2572 -0.0054
 9734TIP3    H150693   3.961   1.656   6.038  1.8109 -0.3836  0.9165
 9734TIP3    H250694   4.031   1.787   6.015  0.0358  0.3786 -0.3190
 9735TIP3   OH250695   2.572   2.604   2.421  0.0580 -0.0968 -0.8544
 9735TIP3    H150696   2.583   2.620   2.327 -0.9019 -1.0231 -1.1471
 9735TIP3    H250697   2.526   2.520   2.426  0.5962 -0.3411  0.4685
 9736TIP3   OH250698   1.704   5.811  10.814  0.1076 -0.5842  0.3471
 9736TIP3    H150699   1.736   5.738  10.866  1.1272  0.1021  0.7190
 9736TIP3    H250700   1.782   5.850  10.777 -0.5591 -0.6970 -1.2435
 9737TIP3   OH250701   4.746   6.016   0.151 -0.2459 -0.2875 -0.1874
 9737TIP3    H150702   4.726   5.923   0.163 -0.4352 -0.1289  0.8884
 9737TIP3    H250703   4.822   6.018   0.093 -1.6894 -1.0034 -2.2222
 9738TIP3   OH250704   4.537   2.298   3.105  0.3688 -0.4075 -0.9000
 9738TIP3    H150705   4.573   2.293   3.193 -1.2969 -0.1808 -0.1878
 9738TIP3    H250706   4.526   2.392   3.089 -1.1394 -0.5107 -0.5713
 9739TIP3   OH250707   6.185   5.322  15.907  0.2758  0.4341 -0.3614
 9739TIP3    H150708   6.203   5.230  15.924 -1.4109  0.3198  1.1782
 9739TIP3    H250709   6.121   5.322  15.835  0.7097  0.4323 -0.7464
 9740TIP3   OH250710   6.278   1.996  11.498 -0.3710  0.2896  0.1709
 9740TIP3    H150711   6.196   2.040  11.517  0.4934  1.7575  0.5862
 9740TIP3    H250712   6.346   2.057  11.524  0.8750 -0.6205 -0.7816
 9741TIP3   OH250713   0.215   1.985   1.910  0.2644 -0.0413  0.4647
 9741TIP3    H150714   0.127   1.950   1.905  0.2768 -0.1583  1.0860
 9741TIP3    H250715   0.255   1.961   1.826 -0.5762  0.8104 -0.2068
 9742TIP3   OH250716   6.200   0.227  14.818 -0.1508 -0.9022 -0.1190
 9742TIP3    H150717   6.216   0.155  14.757 -0.6371 -1.7776  0.7558
 9742TIP3    H250718   6.287   0.250  14.850  0.0990 -0.5122 -1.0285
 9743TIP3   OH250719   3.718   2.214  14.887  0.1778 -0.2318  0.1593
 9743TIP3    H150720   3.696   2.122  14.896  0.4945 -0.1660  1.9756
 9743TIP3    H250721   3.685   2.238  14.801 -3.2282 -1.1302  1.0584
 9744TIP3   OH250722   2.923   1.421   3.952 -0.4740  0.1003 -0.0935
 9744TIP3    H150723   2.980   1.389   4.022 -1.5958  0.2559  0.9297
 9744TIP3    H250724   2.910   1.513   3.971  0.7424  0.6461 -1.6350
 9745TIP3   OH250725   0.632   5.994  14.050  0.3607 -0.4400 -0.1278
 9745TIP3    H150726   0.587   5.927  14.101  2.3370  0.3170  2.8157
 9745TIP3    H250727   0.601   6.077  14.086  1.8370  0.1248 -0.0994
 9746TIP3   OH250728   1.552   3.174   5.108 -0.6195  0.2657 -0.3995
 9746TIP3    H150729   1.611   3.109   5.145 -0.3618  0.8889  0.2895
 9746TIP3    H250730   1.585   3.258   5.138 -1.7374  0.6432 -0.1528
 9747TIP3   OH250731   1.041   6.785  17.273 -0.9203  0.1774 -0.0169
 9747TIP3    H150732   0.980   6.711  17.275 -1.4953  0.6322 -0.4318
 9747TIP3    H250733   0.986   6.861  17.258 -0.3188  0.6820  0.2966
 9748TIP3   OH250734   4.299   1.140  13.388 -0.0238 -0.2635  0.4171
 9748TIP3    H150735   4.243   1.158  13.312  0.4985 -1.5574 -0.2988
 9748TIP3    H250736   4.278   1.211  13.450 -0.9230  0.4557 -0.6618
 9749TIP3   OH250737   5.946   4.800   5.774 -0.0424 -0.0373 -0.4381
 9749TIP3    H150738   6.027   4.851   5.778 -0.9303  1.3666  2.4395
 9749TIP3    H250739   5.967   4.717   5.816 -0.1530  0.5502  0.8509
 9750TIP3   OH250740   5.229   5.662  15.913  0.2309 -0.4230  0.3853
 9750TIP3    H150741   5.294   5.644  15.982 -1.2538 -0.3165  1.8762
 9750TIP3    H250742   5.245   5.753  15.889  0.8797 -0.5098  0.4574
 9751TIP3   OH250743   6.023   5.308   1.241  0.1024 -0.2545  0.4144
 9751TIP3    H150744   5.994   5.373   1.305 -0.5378 -1.4263  1.3594
 9751TIP3    H250745   6.107   5.276   1.275  0.1734 -0.2833  0.2148
 9752TIP3   OH250746   3.444   6.238  14.344 -0.6314  0.2792 -0.3166
 9752TIP3    H150747   3.538   6.221  14.340 -0.8921 -1.2262 -1.4210
 9752TIP3    H250748   3.426   6.291  14.266 -0.7737 -0.0482 -0.5137
 9753TIP3   OH250749   6.364   5.231  14.708  0.3395  0.2693  0.2737
 9753TIP3    H150750   6.361   5.311  14.657 -2.9195 -0.5303 -1.0369
 9753TIP3    H250751   6.275   5.222  14.744  1.2569 -1.5695  2.3126
 9754TIP3   OH250752   0.028   5.646  13.683  0.0263  0.5743 -0.5361
 9754TIP3    H150753   0.108   5.642  13.632 -0.0972  3.6016 -1.1446
 9754TIP3    H250754  -0.005   5.735  13.670 -2.2734  0.1339  1.4622
 9755TIP3   OH250755   5.255   1.225   6.030  0.0553 -1.1084 -0.1929
 9755TIP3    H150756   5.194   1.216   5.957 -1.2537  0.6838  0.5924
 9755TIP3    H250757   5.209   1.186   6.105  0.6383 -1.3548  0.0455
 9756TIP3   OH250758   5.779   2.612  14.693 -0.4054 -0.0689  0.6696
 9756TIP3    H150759   5.810   2.527  14.662  3.8165  1.2341  0.6770
 9756TIP3    H250760   5.746   2.656  14.614 -0.2292 -0.8093  0.1752
 9757TIP3   OH250761   1.167   0.769   3.967 -0.1334 -0.0495  0.0368
 9757TIP3    H150762   1.198   0.724   3.888 -2.3257 -2.4799  0.4020
 9757TIP3    H250763   1.175   0.703   4.036 -2.9340  0.2393  0.7447
 9758TIP3   OH250764   6.199   1.020  10.422 -0.6374  0.6027 -0.1782
 9758TIP3    H150765   6.106   1.002  10.432 -0.2698 -2.3183 -1.0633
 9758TIP3    H250766   6.222   1.070  10.501 -2.2877 -1.6906  1.9114
 9759TIP3   OH250767   2.928   0.018  16.500  0.1948 -0.0908  0.6261
 9759TIP3    H150768   2.996   0.051  16.559  0.3828  1.4564 -0.4087
 9759TIP3    H250769   2.971   0.014  16.414 -0.6623 -0.3284  0.2048
 9760TIP3   OH250770   2.012   6.684   1.019  0.1855  0.5601  0.1163
 9760TIP3    H150771   2.059   6.636   0.952  1.4488 -2.1091  2.6704
 9760TIP3    H250772   1.927   6.640   1.026  0.8289 -0.5437  1.5414
 9761TIP3   OH250773   2.010   3.784  10.507 -0.2548 -0.1777 -0.6431
 9761TIP3    H150774   2.069   3.807  10.435  0.3438  0.3975  0.0150
 9761TIP3    H250775   1.961   3.708  10.475  0.9672 -0.7760 -1.1465
 9762TIP3   OH250776   3.261   0.462  15.839 -0.3540 -0.4731  0.3893
 9762TIP3    H150777   3.283   0.373  15.868  2.5770 -0.5859 -1.7215
 9762TIP3    H250778   3.253   0.512  15.920 -0.1016 -2.2411  1.5717
 9763TIP3   OH250779   3.872   5.574  14.537  0.1236  0.3605 -0.1491
 9763TIP3    H150780   3.844   5.488  14.569 -2.0694  2.0061  2.8557
 9763TIP3    H250781   3.950   5.594  14.589 -1.1413  1.3630  1.4718
 9764TIP3   OH250782   6.268   2.487  10.324  0.4319  0.6520  0.4439
 9764TIP3    H150783   6.200   2.530  10.375  0.6310  0.2208  1.0723
 9764TIP3    H250784   6.229   2.404  10.297  0.2373  0.9777 -0.3307
 9765TIP3   OH250785   5.461   3.326   2.510  0.0840 -0.0021 -0.0829
 9765TIP3    H150786   5.469   3.373   2.427 -0.6700 -1.3133 -0.9504
 9765TIP3    H250787   5.372   3.344   2.539  0.5701  1.0054  0.8084
 9766TIP3   OH250788   6.632   3.471   2.174 -0.3437 -0.0506  0.5346
 9766TIP3    H150789   6.664   3.474   2.264 -0.1306  0.8807  0.4399
 9766TIP3    H250790   6.540   3.498   2.181  0.0037  1.2606  0.3473
 9767TIP3   OH250791   6.089   2.755   6.275 -0.1598 -0.3549 -0.0413
 9767TIP3    H150792   6.165   2.706   6.244  0.1344 -0.2727  0.5308
 9767TIP3    H250793   6.121   2.844   6.286 -0.8009  0.0782 -1.4865
 9768TIP3   OH250794   4.422   4.176  11.603 -0.1325 -0.3443 -0.6472
 9768TIP3    H150795   4.468   4.206  11.525 -0.0596  0.0634 -0.4456
 9768TIP3    H250796   4.330   4.173  11.576 -0.5480  2.7721  0.1264
 9769TIP3   OH250797   0.040   1.551   2.600 -0.1577  0.2863  0.2899
 9769TIP3    H150798   0.107   1.601   2.645 -0.4276 -1.1883  2.4802
 9769TIP3    H250799  -0.039   1.605   2.605  0.4191  1.2658 -0.7731
 9770TIP3   OH250800   0.932   5.743  11.558  0.2498  0.2000 -0.1377
 9770TIP3    H150801   1.006   5.690  11.586  0.0128 -0.9938 -1.6528
 9770TIP3    H250802   0.970   5.830  11.542  1.1415 -0.1507  0.0154
 9771TIP3   OH250803   1.449   3.503  12.736 -0.1521  0.0870  0.1170
 9771TIP3    H150804   1.383   3.516  12.804  0.8383  1.5114  0.8542
 9771TIP3    H250805   1.481   3.414  12.751 -1.0053 -0.1596  0.5442
 9772TIP3   OH250806   0.751   0.065   1.748 -0.0705 -0.3331  0.1123
 9772TIP3    H150807   0.710  -0.000   1.692  2.4437 -2.8393  0.9206
 9772TIP3    H250808   0.790   0.128   1.688  1.4498 -2.2328 -0.9936
 9773TIP3   OH250809   0.567   0.026   3.229  0.4682 -0.6836 -0.5741
 9773TIP3    H150810   0.554   0.026   3.135  0.2489  0.9799 -0.5710
 9773TIP3    H250811   0.500   0.085   3.263  0.0672 -1.8212  0.7107
 9774TIP3   OH250812   3.985   5.212   2.737  0.0540  0.3772 -0.3624
 9774TIP3    H150813   3.974   5.134   2.792 -0.7397 -0.5864 -1.8322
 9774TIP3    H250814   3.905   5.262   2.751  1.2027  1.7707  1.7636
 9775TIP3   OH250815   4.540   5.910  16.635  0.0548 -0.1947  0.1099
 9775TIP3    H150816   4.519   6.001  16.657 -1.0225 -0.5503  0.6475
 9775TIP3    H250817   4.555   5.911  16.540  0.8906  0.6799  0.2385
 9776TIP3   OH250818   2.033   3.589   6.001  0.8661 -0.0748 -0.0164
 9776TIP3    H150819   1.996   3.517   6.053  0.3837 -0.5328 -0.9478
 9776TIP3    H250820   2.005   3.668   6.046  0.8566 -0.4691  0.6805
 9777TIP3   OH250821   1.772   5.369  16.091  0.3700  0.0096 -0.3444
 9777TIP3    H150822   1.848   5.368  16.033  0.6558 -0.8683  0.0265
 9777TIP3    H250823   1.809   5.384  16.178 -0.1307  2.2813 -0.4561
 9778TIP3   OH250824   2.931   1.109   5.249  0.0346 -0.0903 -0.0624
 9778TIP3    H150825   2.959   1.195   5.280  1.0906 -1.0132  1.7081
 9778TIP3    H250826   2.837   1.118   5.236  0.3708  1.8094 -1.6799
 9779TIP3   OH250827   5.931   1.391  14.028  0.1233 -0.1373  0.2778
 9779TIP3    H150828   6.015   1.413  14.068  0.3061 -0.8074  0.2694
 9779TIP3    H250829   5.866   1.438  14.080  0.6022  1.7046 -0.6701
 9780TIP3   OH250830   3.775   0.346   6.168  0.0067  0.3736 -0.1971
 9780TIP3    H150831   3.692   0.299   6.177 -0.0948  0.7425  1.0374
 9780TIP3    H250832   3.750   0.439   6.171  0.3572  0.4949 -0.9698
 9781TIP3   OH250833   1.396   5.881  16.560  0.1381  0.2767 -0.0783
 9781TIP3    H150834   1.334   5.864  16.490 -0.9245  1.2640  0.5923
 9781TIP3    H250835   1.455   5.948  16.524 -0.3626  0.7328 -0.0589
 9782TIP3   OH250836   5.662   6.047   1.953 -0.0374  0.7064 -0.4565
 9782TIP3    H150837   5.605   6.103   1.900  0.9995  0.6196 -1.6861
 9782TIP3    H250838   5.724   6.108   1.993  1.1009  0.4744 -1.8068
 9783TIP3   OH250839   6.002   5.310   0.066 -0.5098 -0.0916  0.2090
 9783TIP3    H150840   6.095   5.290   0.078  0.3518  2.4816 -1.2656
 9783TIP3    H250841   5.990   5.395   0.108 -1.8824  0.1771 -0.6700
 9784TIP3   OH250842   3.127   1.798   4.163 -0.0084 -0.1209  0.2338
 9784TIP3    H150843   3.071   1.745   4.106  0.2627 -0.5770  0.3826
 9784TIP3    H250844   3.066   1.845   4.219 -0.2774  0.2459 -0.3495
 9785TIP3   OH250845   5.190   0.672  15.316 -0.1568 -0.4381 -0.1807
 9785TIP3    H150846   5.133   0.720  15.376  1.0425 -0.2760  0.8492
 9785TIP3    H250847   5.236   0.608  15.370  1.3751  0.0982 -0.7920
 9786TIP3   OH250848   4.067   5.233   4.829  0.2366 -0.5225  0.2482
 9786TIP3    H150849   4.158   5.237   4.858  0.5679 -1.2100 -0.6451
 9786TIP3    H250850   4.072   5.214   4.735 -0.8230 -0.1395  0.0956
 9787TIP3   OH250851   3.430   6.227  12.497 -0.5035  0.0185  0.2893
 9787TIP3    H150852   3.522   6.238  12.475  0.6327 -1.1349  3.7639
 9787TIP3    H250853   3.388   6.308  12.468  1.9073  1.2637  0.0416
 9788TIP3   OH250854   6.138   0.000   2.317 -0.0681  0.3735  0.3932
 9788TIP3    H150855   6.043  -0.007   2.307 -0.0949  0.9621  0.1821
 9788TIP3    H250856   6.150   0.036   2.405 -0.0512  0.5137  0.3339
 9789TIP3   OH250857   4.211   5.901  16.580 -0.1270  0.0953  0.4654
 9789TIP3    H150858   4.191   5.943  16.496  0.2313 -0.0726  0.2910
 9789TIP3    H250859   4.191   5.968  16.645  2.3191  1.2998  0.0977
 9790TIP3   OH250860   3.945   4.655  11.513 -0.1640  0.0250  0.7902
 9790TIP3    H150861   3.949   4.749  11.534  1.2956  0.7082 -2.0826
 9790TIP3    H250862   3.947   4.651  11.418 -1.7569 -2.9320  0.7578
 9791TIP3   OH250863   1.651   1.927   1.260 -0.5294  0.6357 -0.0986
 9791TIP3    H150864   1.649   1.920   1.355 -0.9674  0.2458 -0.1362
 9791TIP3    H250865   1.597   2.003   1.240 -1.4819 -0.0346 -0.1089
 9792TIP3   OH250866   0.680   6.542  14.849 -0.2606 -0.5072 -0.0456
 9792TIP3    H150867   0.707   6.527  14.940 -0.0535 -1.1910 -0.2172
 9792TIP3    H250868   0.601   6.595  14.856 -0.4494 -0.8587  0.5444
 9793TIP3   OH250869   4.230   4.310  14.314 -1.0176 -0.2512  0.0134
 9793TIP3    H150870   4.310   4.266  14.284 -1.1078  0.1588 -0.8534
 9793TIP3    H250871   4.184   4.333  14.234 -2.5629 -1.4527  0.5153
 9794TIP3   OH250872   4.473   5.754   2.311 -0.3706  0.5017  0.0920
 9794TIP3    H150873   4.519   5.781   2.391 -1.8428 -2.2173  2.0442
 9794TIP3    H250874   4.381   5.770   2.330 -0.6801  0.7986 -1.5274
 9795TIP3   OH250875   6.813   6.750  13.808  0.3742  0.2533 -0.3364
 9795TIP3    H150876   6.762   6.692  13.864 -0.9660  1.2349 -0.4715
 9795TIP3    H250877   6.904   6.734  13.832  0.0356 -1.6665 -0.1681
 9796TIP3   OH250878   4.659   5.061   1.115 -0.1196 -0.2046 -0.3889
 9796TIP3    H150879   4.722   4.993   1.089  0.7069 -0.3073  1.6993
 9796TIP3    H250880   4.578   5.014   1.131 -0.4341 -0.2380 -1.9027
 9797TIP3   OH250881   1.083   4.728  14.943  0.0852 -0.5251  0.5227
 9797TIP3    H150882   1.079   4.807  14.889 -0.8707 -0.5500  0.5271
 9797TIP3    H250883   1.175   4.701  14.941  0.0434 -0.6341 -1.2366
 9798TIP3   OH250884   2.652   6.732   5.302 -0.0881 -0.1383 -0.2468
 9798TIP3    H150885   2.683   6.647   5.333  0.5583  0.7321  1.6954
 9798TIP3    H250886   2.578   6.752   5.359 -0.8251  0.2079 -1.2963
 9799TIP3   OH250887   4.887   4.135   3.999  0.0810 -0.0232 -0.0028
 9799TIP3    H150888   4.845   4.214   3.962  0.4108  0.6647  1.0590
 9799TIP3    H250889   4.877   4.069   3.930 -0.0740  0.9844 -0.9843
 9800TIP3   OH250890   3.307   2.431  13.679 -0.2078 -0.5792  0.3059
 9800TIP3    H150891   3.326   2.352  13.630 -0.9219 -0.1606 -0.6859
 9800TIP3    H250892   3.305   2.501  13.613  0.2042  0.2337  1.1295
 9801TIP3   OH250893   4.814   1.070  15.516 -0.2795 -0.2278  0.1838
 9801TIP3    H150894   4.731   1.072  15.467 -0.7793 -2.6863  0.7893
 9801TIP3    H250895   4.869   1.135  15.472 -2.2816  0.9993 -0.6557
 9802TIP3   OH250896   1.361   1.021  15.481  0.3489  0.0165  0.5133
 9802TIP3    H150897   1.448   1.009  15.520 -0.0390 -0.7418  1.1520
 9802TIP3    H250898   1.366   1.107  15.439  1.7450 -0.4583 -0.3667
 9803TIP3   OH250899   4.765   1.144   3.302  0.8610 -0.0442  0.2155
 9803TIP3    H150900   4.706   1.213   3.273  0.5745  0.4209  1.7724
 9803TIP3    H250901   4.848   1.163   3.258  0.7439  1.2296  0.5070
 9804TIP3   OH250902   0.909   1.569  10.924 -0.0916 -0.1671 -0.0738
 9804TIP3    H150903   0.962   1.573  11.003 -2.0138 -0.7116  1.3152
 9804TIP3    H250904   0.831   1.621  10.945 -0.1919  0.5452 -2.0055
 9805TIP3   OH250905   2.366   0.920   3.368  0.2735  0.4388 -0.7330
 9805TIP3    H150906   2.339   1.011   3.358  0.0891  0.4390 -0.2805
 9805TIP3    H250907   2.452   0.926   3.411 -0.4655  0.3782  0.8252
 9806TIP3   OH250908   4.094   2.408  15.597 -0.5931 -0.0018  0.3540
 9806TIP3    H150909   4.176   2.440  15.636 -0.2144 -0.8877  0.3110
 9806TIP3    H250910   4.077   2.325  15.641 -0.9188 -0.3204 -0.3493
 9807TIP3   OH250911   3.800   6.516   1.031  0.2932 -0.0480  0.3910
 9807TIP3    H150912   3.800   6.443   1.092  0.2718  0.7447  1.3704
 9807TIP3    H250913   3.841   6.481   0.951  1.1306 -0.8667  1.1548
 9808TIP3   OH250914   0.914   6.201   4.535  0.3914  0.4402  0.5110
 9808TIP3    H150915   0.957   6.260   4.597 -0.3734  0.9493  0.5699
 9808TIP3    H250916   0.936   6.113   4.567 -0.2352  0.6875  1.6859
 9809TIP3   OH250917   6.786   2.446   2.051 -0.0535  0.3550 -0.3261
 9809TIP3    H150918   6.839   2.368   2.034  1.8743  2.0536 -2.8596
 9809TIP3    H250919   6.826   2.486   2.129 -1.3054 -1.2598  1.2364
 9810TIP3   OH250920   0.245   1.663  15.091  0.2320 -0.4637  0.3443
 9810TIP3    H150921   0.202   1.639  15.009 -2.6354 -0.1082  1.6117
 9810TIP3    H250922   0.294   1.586  15.116  0.6837 -0.7833 -1.3886
 9811TIP3   OH250923   1.683   2.372   2.522  0.8368  0.4910  0.9052
 9811TIP3    H150924   1.616   2.391   2.456  1.7656  1.1658  0.1383
 9811TIP3    H250925   1.649   2.295   2.568 -0.1658  0.4357  0.1130
 9812TIP3   OH250926   5.349   6.026  13.432  0.2976  0.0879  0.9189
 9812TIP3    H150927   5.260   6.057  13.413 -0.6152 -2.9614 -0.4052
 9812TIP3    H250928   5.337   5.960  13.500  1.1373 -2.0164 -0.8422
 9813TIP3   OH250929   5.119   2.980   2.128 -0.1629  0.5150  0.1170
 9813TIP3    H150930   5.029   2.949   2.113 -0.0005  0.3801 -0.6345
 9813TIP3    H250931   5.170   2.901   2.144 -0.1562  0.5823  0.4294
 9814TIP3   OH250932   2.437   1.125  10.593 -0.4471  0.0050  1.0225
 9814TIP3    H150933   2.430   1.208  10.640  1.2687  1.2628 -0.7784
 9814TIP3    H250934   2.347   1.107  10.565 -0.5465  2.8397 -0.9850
 9815TIP3   OH250935   2.544   3.954   0.501 -0.3499 -0.4007  0.2809
 9815TIP3    H150936   2.558   3.893   0.429  2.9566 -0.2748  0.6791
 9815TIP3    H250937   2.573   4.039   0.468 -1.3154  0.2216  0.9517
 9816TIP3   OH250938   0.258   2.792  14.690  0.0830  0.4573 -0.4114
 9816TIP3    H150939   0.315   2.856  14.733 -0.1352  0.1761  0.3157
 9816TIP3    H250940   0.316   2.719  14.670  0.0663  0.3421 -0.0461
 9817TIP3   OH250941   3.502   5.776   5.392 -0.2069 -0.0061 -0.6650
 9817TIP3    H150942   3.592   5.743   5.388 -0.6588 -1.2028 -1.4119
 9817TIP3    H250943   3.485   5.787   5.486  1.3232  2.0393 -0.5572
 9818TIP3   OH250944   2.669   5.264   5.698 -0.6815  0.2679 -0.0417
 9818TIP3    H150945   2.744   5.260   5.639  0.1688 -0.6242  1.0644
 9818TIP3    H250946   2.705   5.245   5.784 -2.0675  0.5499  0.6287
 9819TIP3   OH250947   4.243   3.729   1.736 -0.2733 -0.1480  0.6020
 9819TIP3    H150948   4.226   3.759   1.825 -1.9583 -0.3870  0.3888
 9819TIP3    H250949   4.229   3.634   1.740 -0.8333 -0.0989 -0.0145
 9820TIP3   OH250950   2.273   2.329  11.770 -0.1414 -0.0190 -0.1906
 9820TIP3    H150951   2.217   2.407  11.770 -0.9035 -0.5302  1.0229
 9820TIP3    H250952   2.211   2.256  11.762  0.3889 -0.5738  0.6369
 9821TIP3   OH250953   5.635   6.484  15.308  0.2384 -0.4289  0.0389
 9821TIP3    H150954   5.676   6.551  15.363  0.5312 -0.9837  0.5130
 9821TIP3    H250955   5.634   6.522  15.220  1.7163 -0.3487  0.0220
 9822TIP3   OH250956   3.736   3.821   4.753 -0.0816  0.0676 -0.4353
 9822TIP3    H150957   3.673   3.760   4.714 -0.0783 -0.5557  0.4928
 9822TIP3    H250958   3.812   3.816   4.696 -0.0982 -0.7815 -0.4044
 9823TIP3   OH250959   2.635   3.037   0.246  0.1459  0.2018 -0.2398
 9823TIP3    H150960   2.612   2.951   0.283  0.4456 -0.2010 -0.9692
 9823TIP3    H250961   2.602   3.034   0.156 -0.2843  1.0512 -0.1249
 9824TIP3   OH250962   1.387   3.554  13.726  0.9198 -0.0158  0.2747
 9824TIP3    H150963   1.428   3.638  13.750 -0.1511  0.5610  0.1683
 9824TIP3    H250964   1.457   3.504  13.685  1.8198  0.4597  1.1798
 9825TIP3   OH250965   5.833   2.764   3.128 -0.4993  0.2153  0.2116
 9825TIP3    H150966   5.885   2.694   3.088 -1.5632 -0.4464 -0.0481
 9825TIP3    H250967   5.785   2.722   3.198 -1.9169  0.4512 -0.5912
 9826TIP3   OH250968   5.263   2.940   2.526 -0.4522  0.2899 -0.2440
 9826TIP3    H150969   5.299   2.973   2.444 -0.0232 -2.2515 -1.1665
 9826TIP3    H250970   5.223   2.856   2.502  0.3151 -0.8719  2.2350
 9827TIP3   OH250971   3.368   5.798   2.095 -0.3142 -0.1546 -0.1464
 9827TIP3    H150972   3.446   5.853   2.103 -0.4968  0.3535 -1.5573
 9827TIP3    H250973   3.340   5.782   2.185  1.0563  0.1713  0.3531
 9828TIP3   OH250974   1.637   1.119  15.568 -0.6240  0.2630 -0.2202
 9828TIP3    H150975   1.598   1.196  15.610 -0.3675  0.1027  0.3139
 9828TIP3    H250976   1.718   1.152  15.528 -0.4106  0.2294  0.1837
 9829TIP3   OH250977   4.675   5.986   1.209 -0.6744 -0.0113 -0.3181
 9829TIP3    H150978   4.682   5.971   1.114  1.6428  0.3463 -0.2759
 9829TIP3    H250979   4.603   5.930   1.237 -1.2633 -0.3024 -2.2573
 9830TIP3   OH250980   4.745   1.615  15.793 -0.1991  0.3940 -0.5196
 9830TIP3    H150981   4.704   1.702  15.797 -0.0770  0.4416 -0.2680
 9830TIP3    H250982   4.706   1.567  15.866  0.2809  0.4831 -0.1963
 9831TIP3   OH250983   0.624   3.993  13.647  0.3902 -0.0241 -0.1359
 9831TIP3    H150984   0.658   4.026  13.730  1.2134 -0.2948 -0.3566
 9831TIP3    H250985   0.604   4.071  13.595 -2.4608  0.2469  1.1810
 9832TIP3   OH250986   4.642   4.462   1.968  0.4992 -0.0237  0.2070
 9832TIP3    H150987   4.638   4.370   1.944  0.2355  0.5523 -2.2243
 9832TIP3    H250988   4.585   4.506   1.906  0.0626  1.7292  1.7563
 9833TIP3   OH250989   5.064   6.138   2.158 -0.0504  0.2636 -0.4363
 9833TIP3    H150990   5.030   6.068   2.214  1.3353 -0.8095 -0.8950
 9833TIP3    H250991   5.000   6.145   2.087 -0.5230 -0.1124 -0.0533
 9834TIP3   OH250992   5.575   6.325  17.076 -0.0371  0.1448  0.3043
 9834TIP3    H150993   5.600   6.348  16.987  4.4842  1.8680  1.7661
 9834TIP3    H250994   5.550   6.407  17.117  1.7674  0.1365  1.5664
 9835TIP3   OH250995   5.295   0.882  11.109 -0.2873  0.7571 -0.5355
 9835TIP3    H150996   5.305   0.854  11.200 -2.1835  0.9112 -0.2370
 9835TIP3    H250997   5.335   0.811  11.058  0.1430  0.3209  0.3813
 9836TIP3   OH250998   1.683   1.150   3.765 -0.1214 -0.0343  0.0315
 9836TIP3    H150999   1.601   1.106   3.788 -0.3137 -0.6574 -1.7700
 9836TIP3    H251000   1.655   1.236   3.732 -0.0599 -0.2673 -0.6332
 9837TIP3   OH251001   2.585   0.043   4.843 -0.0282 -0.1628  0.1516
 9837TIP3    H151002   2.524   0.070   4.774 -0.0564 -0.2127  0.1576
 9837TIP3    H251003   2.635   0.123   4.862 -0.5735  0.0715  0.6499
 9838TIP3   OH251004   3.307   4.137  14.913 -0.1037  0.9766 -0.3122
 9838TIP3    H151005   3.392   4.170  14.943  0.0319  2.0783 -1.8041
 9838TIP3    H251006   3.313   4.140  14.817 -1.4886  0.1637 -0.4457
 9839TIP3   OH251007   5.996   3.219   3.002 -0.1865 -0.0778  0.2417
 9839TIP3    H151008   5.998   3.261   2.916 -0.0640 -0.3729  0.1015
 9839TIP3    H251009   6.035   3.133   2.988  0.9844  0.3372  0.8421
 9840TIP3   OH251010   6.437   6.571   2.124 -0.0725 -0.4375  0.7709
 9840TIP3    H151011   6.519   6.529   2.099 -0.1180 -0.2495  0.2959
 9840TIP3    H251012   6.373   6.500   2.125 -0.3955 -0.2387 -1.1444
 9841TIP3   OH251013   2.608   1.167  11.243  0.0319  0.1400  0.4917
 9841TIP3    H151014   2.622   1.073  11.247  0.8361  0.1508 -1.2013
 9841TIP3    H251015   2.684   1.201  11.194  1.2602  2.0493  3.4304
 9842TIP3   OH251016   6.011   3.744   0.489 -0.2700  0.4099 -0.4214
 9842TIP3    H151017   6.079   3.676   0.481 -0.8710 -0.0746 -1.8634
 9842TIP3    H251018   5.943   3.704   0.543 -0.9149 -0.4345 -1.7976
 9843TIP3   OH251019   5.802   0.944   3.089  0.2504  0.2456 -0.2174
 9843TIP3    H151020   5.851   0.958   3.008  0.0622 -0.7986 -0.5310
 9843TIP3    H251021   5.812   0.850   3.107 -1.6449 -0.0073 -0.3055
 9844TIP3   OH251022   0.248   0.692   0.824 -0.5403 -0.3778  0.4437
 9844TIP3    H151023   0.322   0.742   0.791 -1.2392  0.8138  0.6167
 9844TIP3    H251024   0.263   0.685   0.919 -0.8080  0.1734  0.5333
 9845TIP3   OH251025   3.172   4.724   1.520  0.3528  0.1834 -0.4959
 9845TIP3    H151026   3.178   4.784   1.594 -0.8761  0.6242 -0.7392
 9845TIP3    H251027   3.171   4.781   1.443 -0.0628 -0.1857 -0.7665
 9846TIP3   OH251028   3.711   6.274  14.279  0.1567 -0.1358 -0.4922
 9846TIP3    H151029   3.748   6.356  14.309  0.6375  0.4110 -2.4186
 9846TIP3    H251030   3.785   6.226  14.242 -0.3033 -0.9753 -0.3532
 9847TIP3   OH251031   2.316   6.676  13.020  0.0542  0.1177  0.5772
 9847TIP3    H151032   2.343   6.594  12.979  0.8662  1.0174 -0.7646
 9847TIP3    H251033   2.242   6.706  12.967  0.2565  0.6323  0.5838
 9848TIP3   OH251034   5.878   1.536   6.516  0.4307 -0.3184 -0.3110
 9848TIP3    H151035   5.950   1.597   6.508  0.3196 -0.3605 -1.9711
 9848TIP3    H251036   5.907   1.458   6.468 -0.0743 -0.9586  0.3951
 9849TIP3   OH251037   1.852   3.075   1.785 -0.1467  0.3113  0.5044
 9849TIP3    H151038   1.892   3.140   1.728  0.1864 -1.6323 -1.6436
 9849TIP3    H251039   1.759   3.098   1.787 -0.1433  0.5006 -0.7573
 9850TIP3   OH251040   4.660   0.200  16.606  0.3245 -0.4846  0.4624
 9850TIP3    H151041   4.690   0.118  16.565 -1.6241  0.1324 -2.5712
 9850TIP3    H251042   4.565   0.188  16.616  0.2057  0.9111  1.2439
 9851TIP3   OH251043   3.760   2.890   2.068 -0.2393  0.2612 -0.1344
 9851TIP3    H151044   3.783   2.831   2.140  0.1999  1.8707  1.1410
 9851TIP3    H251045   3.665   2.893   2.069 -0.2671 -0.5384 -0.3107
 9852TIP3   OH251046   1.103   1.113  16.767  0.0195  0.7413  0.0837
 9852TIP3    H151047   1.177   1.173  16.775  1.5003 -0.7591 -1.6167
 9852TIP3    H251048   1.139   1.027  16.789 -0.8084 -0.2428 -2.1423
 9853TIP3   OH251049   6.162   3.091  11.346  0.5045 -0.3285  0.0225
 9853TIP3    H151050   6.160   3.016  11.286 -0.8324  0.4215 -0.9442
 9853TIP3    H251051   6.172   3.052  11.433 -0.0324 -1.6205 -0.4664
 9854TIP3   OH251052   5.294   5.635  12.999 -0.6923 -0.1682 -0.3814
 9854TIP3    H151053   5.373   5.678  13.033  0.5853 -1.6226 -1.3773
 9854TIP3    H251054   5.280   5.561  13.058 -0.0320 -1.1305 -1.3699
 9855TIP3   OH251055   3.565   4.525   4.852 -0.0067 -0.1631  0.2477
 9855TIP3    H151056   3.585   4.482   4.935 -0.5988  0.9272  0.9820
 9855TIP3    H251057   3.485   4.483   4.821  1.9237 -2.8532 -1.4753
 9856TIP3   OH251058   1.995   5.207  16.751  0.4389 -0.0032 -0.7442
 9856TIP3    H151059   1.996   5.277  16.816 -1.7259 -0.4251 -0.1875
 9856TIP3    H251060   2.033   5.132  16.796  3.4688  0.8748 -1.5732
 9857TIP3   OH251061   4.403   2.005  11.471  0.2737  0.5527 -0.0740
 9857TIP3    H151062   4.316   2.044  11.469  0.1638  0.3217  0.1782
 9857TIP3    H251063   4.456   2.061  11.413 -0.1494  0.4380 -0.5796
 9858TIP3   OH251064   2.153   0.778   3.283 -0.1842 -0.5578 -0.2737
 9858TIP3    H151065   2.231   0.833   3.291  0.7874 -1.9126 -0.2337
 9858TIP3    H251066   2.085   0.838   3.252  1.5298  0.0860 -3.0681
 9859TIP3   OH251067   3.590   4.791  12.841  0.5277 -0.7273 -0.4716
 9859TIP3    H151068   3.585   4.765  12.749 -1.7924 -0.8590 -0.3690
 9859TIP3    H251069   3.570   4.885  12.840 -4.1257 -1.4659  0.1154
 9860TIP3   OH251070   6.615   4.037   4.959 -0.0169  0.3492 -0.0190
 9860TIP3    H151071   6.604   3.969   4.892  1.9180  1.9584 -2.1133
 9860TIP3    H251072   6.539   4.093   4.948  0.0405  0.3292 -0.5393
 9861TIP3   OH251073   6.168   0.957  15.054 -0.3817 -0.0640  0.4031
 9861TIP3    H151074   6.096   0.895  15.064 -0.2620 -0.0038  1.8122
 9861TIP3    H251075   6.125   1.042  15.051 -0.3622  0.0071  1.7060
 9862TIP3   OH251076   4.018   3.546   4.924  0.5613 -0.2566 -0.3907
 9862TIP3    H151077   4.023   3.530   4.830  0.2962  0.1006 -0.4696
 9862TIP3    H251078   4.044   3.638   4.935 -1.2766  0.3092 -0.3507
 9863TIP3   OH251079   2.576   1.550  16.303  0.4645 -0.1780  0.1646
 9863TIP3    H151080   2.537   1.601  16.374 -1.5471 -0.7299 -0.4823
 9863TIP3    H251081   2.625   1.614  16.251  0.9866  0.4274  1.3697
 9864TIP3   OH251082   3.070   3.751  17.238  0.3379  0.5091  0.2536
 9864TIP3    H151083   3.022   3.711  17.165  1.1239 -0.9410  0.4969
 9864TIP3    H251084   3.023   3.832  17.256  0.0393  0.8454 -1.7706
 9865TIP3   OH251085   3.954   0.937   2.757  0.3456  0.4365 -0.0797
 9865TIP3    H151086   4.027   0.901   2.807 -0.0227  0.3925  0.4416
 9865TIP3    H251087   3.880   0.933   2.818 -0.3537 -0.5617 -0.9831
 9866TIP3   OH251088   0.965   5.445  17.033  0.1720  0.2978  0.3454
 9866TIP3    H151089   1.024   5.452  17.109 -0.6312  0.5492  0.9668
 9866TIP3    H251090   0.883   5.413  17.070  0.0817 -0.5997 -0.6038
 9867TIP3   OH251091   0.856   3.628   0.510 -0.2489 -0.2340  0.1002
 9867TIP3    H151092   0.859   3.722   0.532 -1.7650 -0.4026  1.1681
 9867TIP3    H251093   0.916   3.587   0.573 -0.1517 -0.0767  0.1120
 9868TIP3   OH251094   0.617   6.271  11.914 -0.2211 -0.0036  0.3634
 9868TIP3    H151095   0.684   6.333  11.943 -0.6212  0.4338  0.3661
 9868TIP3    H251096   0.653   6.185  11.935  1.7664  0.0000 -2.4750
 9869TIP3   OH251097   5.813   0.224  10.966 -0.6550 -0.1752 -0.2192
 9869TIP3    H151098   5.884   0.163  10.987 -1.6960 -0.8999  1.4627
 9869TIP3    H251099   5.753   0.173  10.913 -1.3936 -0.5829  0.9622
 9870TIP3   OH251100   5.997   6.109   2.661  0.2753  0.0527  0.1251
 9870TIP3    H151101   5.968   6.155   2.582  0.7199  2.1372  1.1111
 9870TIP3    H251102   6.041   6.030   2.628 -2.4602 -0.9150 -1.5464
 9871TIP3   OH251103   5.076   6.058  14.507 -0.6825 -0.3416  0.4551
 9871TIP3    H151104   5.005   6.018  14.457  0.0151 -0.7077 -0.2654
 9871TIP3    H251105   5.045   6.147  14.525 -1.8139 -0.8604  1.1819
 9872TIP3   OH251106   6.593   2.371  13.418  0.0754  0.0960  0.1869
 9872TIP3    H151107   6.517   2.429  13.414  0.0560  0.0121 -0.7358
 9872TIP3    H251108   6.563   2.296  13.470 -0.1534  0.5188  0.6772
 9873TIP3   OH251109   0.768   4.564   4.464 -0.4858 -0.2421  0.1293
 9873TIP3    H151110   0.719   4.629   4.415 -0.3021 -0.4793 -0.3845
 9873TIP3    H251111   0.818   4.614   4.528  2.1476  0.5423 -2.2953
 9874TIP3   OH251112   2.874   0.287   1.470  0.5339  0.0849  0.4435
 9874TIP3    H151113   2.859   0.375   1.506 -0.5164  0.3851 -0.6690
 9874TIP3    H251114   2.857   0.228   1.543  0.2931  0.7595  0.9470
 9875TIP3   OH251115   2.969   5.112  15.528 -0.0230  0.6008 -0.3430
 9875TIP3    H151116   3.015   5.033  15.557  0.5591  0.7116 -0.9290
 9875TIP3    H251117   2.887   5.080  15.492 -0.1415  0.3378  0.1525
 9876TIP3   OH251118   3.556   3.353   1.372  0.0100  0.5907 -0.2749
 9876TIP3    H151119   3.560   3.271   1.322 -0.4184 -0.2977  1.1044
 9876TIP3    H251120   3.478   3.397   1.339  0.0788  0.3194 -0.8266
 9877TIP3   OH251121   0.254   2.560  16.385  0.6420 -0.3574 -0.1545
 9877TIP3    H151122   0.292   2.541  16.299  0.7944  0.9052 -0.3824
 9877TIP3    H251123   0.324   2.603  16.434  0.7083 -1.5019  0.7914
 9878TIP3   OH251124   4.277   1.223  15.372 -0.0234 -0.2616  0.2987
 9878TIP3    H151125   4.259   1.316  15.387  0.0447 -0.0508 -0.8278
 9878TIP3    H251126   4.247   1.207  15.283 -0.1126 -1.3530  0.5101
 9879TIP3   OH251127   4.217   5.468  12.087 -0.0199  0.3338 -0.3183
 9879TIP3    H151128   4.299   5.418  12.083  0.5654  1.2536 -0.3695
 9879TIP3    H251129   4.180   5.448  12.173  0.2020 -0.1782 -0.3378
 9880TIP3   OH251130   6.528   3.021   2.549 -0.3351 -0.3945 -0.0035
 9880TIP3    H151131   6.440   3.051   2.527  0.0954  1.5738  0.7647
 9880TIP3    H251132   6.574   3.018   2.465 -0.0843  2.3561 -0.0467
 9881TIP3   OH251133   3.414   3.782   3.577 -0.1618 -0.1787  0.0193
 9881TIP3    H151134   3.324   3.803   3.551  0.4256  0.1609 -1.8984
 9881TIP3    H251135   3.419   3.687   3.572 -0.4423 -0.2082  0.2603
 9882TIP3   OH251136   0.121   4.855   0.438 -0.1275 -0.2724  0.7178
 9882TIP3    H151137   0.065   4.809   0.375  0.8632  0.4417 -0.7325
 9882TIP3    H251138   0.075   4.938   0.454 -1.3269 -1.1912  2.4492
 9883TIP3   OH251139   4.978   1.079  15.206 -0.2361  0.1982 -0.1693
 9883TIP3    H151140   4.927   1.109  15.280 -0.0734  1.7580 -0.6616
 9883TIP3    H251141   4.957   1.140  15.135  0.1329 -0.8388 -1.2154
 9884TIP3   OH251142   1.642   0.265  16.554  0.1345 -0.3359  0.4588
 9884TIP3    H151143   1.560   0.312  16.570 -0.9237 -1.7835 -0.4632
 9884TIP3    H251144   1.670   0.236  16.641  0.9379  2.0561  1.0961
 9885TIP3   OH251145   0.705   1.404   5.551  0.3097 -0.1817 -0.1537
 9885TIP3    H151146   0.794   1.372   5.565  0.2070 -0.0140  1.0308
 9885TIP3    H251147   0.653   1.325   5.540  0.5677 -0.2885 -0.6286
 9886TIP3   OH251148   0.957   0.594  16.462  0.5714  0.1574  0.6862
 9886TIP3    H151149   0.875   0.633  16.491 -0.7295 -0.9674 -1.2540
 9886TIP3    H251150   1.001   0.664  16.414 -0.9678 -0.1496 -1.3256
 9887TIP3   OH251151   0.073   3.675  11.800  0.4356  0.0517  0.6854
 9887TIP3    H151152   0.031   3.620  11.734 -0.4501  1.4815  0.0265
 9887TIP3    H251153   0.036   3.645  11.883  0.1040 -0.4693  0.3570
 9888TIP3   OH251154   1.573   3.050  16.755 -0.0335  0.8608  0.3308
 9888TIP3    H151155   1.613   3.101  16.684 -1.4726 -0.2582 -1.3590
 9888TIP3    H251156   1.497   3.102  16.782 -0.2663  0.6405  0.1023
 9889TIP3   OH251157   3.223   1.979   6.748  0.2599  0.3824  0.2079
 9889TIP3    H151158   3.232   1.892   6.709  0.0900  1.4684 -2.5381
 9889TIP3    H251159   3.148   1.971   6.806  0.7393 -1.4829  0.6448
 9890TIP3   OH251160   6.124   2.834  16.014 -0.4078 -0.1734  0.3186
 9890TIP3    H151161   6.130   2.770  16.085 -2.9862  0.2798  1.0138
 9890TIP3    H251162   6.114   2.918  16.057 -0.2661  0.3316 -0.5975
 9891TIP3   OH251163   4.447   4.608   0.645  0.2153 -0.1900 -0.4063
 9891TIP3    H151164   4.505   4.668   0.693  0.8974  0.2029 -1.6687
 9891TIP3    H251165   4.359   4.636   0.669  0.5198 -0.4535  1.1362
 9892TIP3   OH251166   3.068   1.643   5.340  0.1330 -0.2839 -0.2299
 9892TIP3    H151167   3.048   1.685   5.424  0.2512  0.6134 -0.6389
 9892TIP3    H251168   3.144   1.588   5.358  1.6060  1.6635 -0.2436
 9893TIP3   OH251169   0.299   5.407  16.081 -0.1617 -0.7849  0.5045
 9893TIP3    H151170   0.351   5.476  16.040 -0.1928  0.2800  2.1785
 9893TIP3    H251171   0.266   5.446  16.162 -0.7506 -2.5481  1.1667
 9894TIP3   OH251172   3.692   2.216  14.131  0.3316  0.1151  0.0996
 9894TIP3    H151173   3.753   2.143  14.134  0.3584  0.1513  0.5759
 9894TIP3    H251174   3.679   2.240  14.223  2.3546  2.4218 -0.1004
 9895TIP3   OH251175   3.831   3.020  11.301  0.2954  0.0924  0.1951
 9895TIP3    H151176   3.783   3.097  11.271  0.9144  0.0529 -0.9582
 9895TIP3    H251177   3.764   2.965  11.342 -0.5676  0.2795 -0.9048
 9896TIP3   OH251178   4.280   3.999  14.434  0.5059 -0.0720 -0.5367
 9896TIP3    H151179   4.332   3.999  14.353 -0.8574  1.5118 -1.4813
 9896TIP3    H251180   4.220   4.073  14.424  0.7257  0.5923  2.2569
 9897TIP3   OH251181   1.921   3.961   1.168  0.3743  0.2474  0.0913
 9897TIP3    H151182   1.998   3.984   1.117  1.1749  0.1416  1.2155
 9897TIP3    H251183   1.865   3.913   1.108  1.2674  0.1700 -0.6886
 9898TIP3   OH251184   5.708   1.769   5.764  0.5457  0.3949 -0.0640
 9898TIP3    H151185   5.640   1.833   5.745 -0.0129  0.2774  1.4028
 9898TIP3    H251186   5.662   1.685   5.768  1.0024  0.1240 -0.3925
 9899TIP3   OH251187   4.506   4.740  10.284  0.5758 -0.1116 -0.4694
 9899TIP3    H151188   4.587   4.749  10.234  0.5868 -0.6842 -0.5637
 9899TIP3    H251189   4.535   4.732  10.375  0.6084 -0.0454 -0.4741
 9900TIP3   OH251190   3.690   4.925  14.984  0.6315 -0.0851 -0.9767
 9900TIP3    H151191   3.750   4.998  14.967  1.0592 -0.8017 -2.7200
 9900TIP3    H251192   3.603   4.963  14.979  0.8674  0.4028 -1.4015
 9901TIP3   OH251193   4.517   2.681  13.829 -0.3512 -0.1953  0.1458
 9901TIP3    H151194   4.537   2.676  13.923  0.2012  0.2487  0.0560
 9901TIP3    H251195   4.599   2.708  13.789 -0.6415 -0.1900 -0.4492
 9902TIP3   OH251196   4.979   5.568  15.901  0.0506 -0.2921 -0.1907
 9902TIP3    H151197   5.032   5.626  15.956  0.7745 -0.8081 -0.3288
 9902TIP3    H251198   5.039   5.498  15.876 -0.1973  0.0255 -1.7985
 9903TIP3   OH251199   6.236   1.441   1.626 -0.0067  0.5338  0.4681
 9903TIP3    H151200   6.214   1.534   1.632  1.4360  0.9784 -0.7504
 9903TIP3    H251201   6.179   1.407   1.557  0.7934  0.9582 -0.4193
 9904TIP3   OH251202   4.077   3.555  12.901 -0.4136 -0.1389 -0.0034
 9904TIP3    H151203   4.046   3.565  12.992 -2.0046 -2.2262 -0.2173
 9904TIP3    H251204   4.166   3.589  12.902 -0.6389  0.5708  2.1751
 9905TIP3   OH251205   5.072   0.043  17.151  0.2825  0.5481 -0.1609
 9905TIP3    H151206   5.139   0.111  17.139 -0.4070  1.3456  0.3485
 9905TIP3    H251207   5.039   0.059  17.239 -1.0737  0.6291 -0.6692
 9906TIP3   OH251208   5.384   3.474  14.715 -0.1423  0.4381  0.1846
 9906TIP3    H151209   5.424   3.420  14.647  1.3685  0.7244  0.7970
 9906TIP3    H251210   5.396   3.424  14.796  0.2666  1.1662  0.5852
 9907TIP3   OH251211   1.788   2.183  11.828  0.1735 -0.2615  0.3748
 9907TIP3    H151212   1.743   2.140  11.755 -0.3951 -0.2003  0.6847
 9907TIP3    H251213   1.881   2.174  11.808  0.0272  1.4261 -1.3241
 9908TIP3   OH251214   2.838   3.535  13.178  0.2831 -0.2985  0.5237
 9908TIP3    H151215   2.866   3.517  13.267 -1.7021 -0.5581  1.1370
 9908TIP3    H251216   2.840   3.450  13.134 -0.8512 -0.5605  0.9623
 9909TIP3   OH251217   0.131   1.469  11.628  0.4592 -0.3180 -0.5219
 9909TIP3    H151218   0.208   1.517  11.656 -0.0449  0.3917 -0.3145
 9909TIP3    H251219   0.057   1.519  11.662 -0.0836 -1.5806  0.2414
 9910TIP3   OH251220   0.544   1.352   6.478 -0.0491 -0.7038 -1.1168
 9910TIP3    H151221   0.551   1.441   6.446  0.3308  0.5879  2.1175
 9910TIP3    H251222   0.452   1.342   6.504  0.1360 -0.8259 -0.4677
 9911TIP3   OH251223   2.852   1.591  12.196  0.2793 -0.3172  0.6561
 9911TIP3    H151224   2.877   1.649  12.123  2.0385  0.5929  1.8972
 9911TIP3    H251225   2.885   1.505  12.170  0.8950 -0.0025  0.3564
 9912TIP3   OH251226   1.164   5.615   0.051  0.1810  0.3644 -0.2621
 9912TIP3    H151227   1.071   5.639   0.050  0.1575  0.4880  1.8565
 9912TIP3    H251228   1.167   5.533   0.001 -1.3602 -0.5690  1.0706
 9913TIP3   OH251229   0.812   0.104   2.574  0.3955  0.5082 -0.1920
 9913TIP3    H151230   0.821   0.186   2.526  1.4614 -0.7118 -2.2280
 9913TIP3    H251231   0.859   0.119   2.656 -0.1009  2.1480 -0.1625
 9914TIP3   OH251232   3.474   0.512   2.426 -0.6156 -0.1426 -0.0031
 9914TIP3    H151233   3.462   0.422   2.396 -1.0371 -0.1418  0.1558
 9914TIP3    H251234   3.395   0.558   2.398 -0.3766  0.1910 -0.1305
 9915TIP3   OH251235   6.392   3.445  15.468  0.0522  0.2938 -0.3461
 9915TIP3    H151236   6.312   3.495  15.480 -0.1730 -0.3399  0.9323
 9915TIP3    H251237   6.389   3.415  15.377 -2.2874 -1.5883  0.2505
 9916TIP3   OH251238   5.409   1.121  16.882 -0.3857 -0.3124  0.0061
 9916TIP3    H151239   5.360   1.120  16.800 -1.7470 -2.1117  0.7966
 9916TIP3    H251240   5.372   1.050  16.934  1.2495  0.0134  1.7311
 9917TIP3   OH251241   4.194   5.460   2.231 -0.0096 -0.4553  0.2667
 9917TIP3    H151242   4.166   5.405   2.157  1.0962 -0.6275 -0.0297
 9917TIP3    H251243   4.285   5.437   2.246 -0.4575 -1.1419  2.3478
 9918TIP3   OH251244   6.432   3.081   4.123  0.1186 -0.4490 -0.5120
 9918TIP3    H151245   6.497   3.149   4.105  0.0302  0.0615  0.9956
 9918TIP3    H251246   6.384   3.072   4.041 -0.5287  2.0306 -0.4733
 9919TIP3   OH251247   6.299   0.680   4.639  0.3269  0.3048  0.5279
 9919TIP3    H151248   6.283   0.763   4.594  1.5361  1.1784  1.6462
 9919TIP3    H251249   6.243   0.684   4.717 -0.1574 -0.2742  0.2265
 9920TIP3   OH251250   0.581   0.413  11.924  0.8554  0.0382  0.2045
 9920TIP3    H151251   0.576   0.323  11.957 -0.1294  0.2367  0.6320
 9920TIP3    H251252   0.658   0.450  11.966  1.0302 -0.4810  0.3509
 9921TIP3   OH251253   0.563   5.450  15.866  0.1349  0.3527 -0.9594
 9921TIP3    H151254   0.591   5.390  15.935 -2.2733  0.2854  0.0626
 9921TIP3    H251255   0.486   5.409  15.828 -0.3014  1.7846 -1.7223
 9922TIP3   OH251256   6.446   1.990  12.666 -0.1161 -0.5646 -0.1090
 9922TIP3    H151257   6.417   2.074  12.704 -2.3597 -0.5586 -1.6122
 9922TIP3    H251258   6.453   1.931  12.741  1.4199  0.8987  0.9691
 9923TIP3   OH251259   5.739   3.946  14.863  0.0509 -0.8422  0.5213
 9923TIP3    H151260   5.816   3.929  14.808 -1.0303 -1.1017 -0.9621
 9923TIP3    H251261   5.724   3.864  14.910  0.6381 -0.7994  0.8046
 9924TIP3   OH251262   2.512   2.861   4.693  0.5921 -0.4397 -0.2224
 9924TIP3    H151263   2.564   2.885   4.616  2.8660  0.3897  1.4602
 9924TIP3    H251264   2.503   2.766   4.687  1.9554 -0.5535 -0.8122
 9925TIP3   OH251265   5.413   4.000   0.315  0.3055  0.7534  0.0138
 9925TIP3    H151266   5.365   3.926   0.278  1.8987  0.1154 -0.8553
 9925TIP3    H251267   5.501   3.992   0.280  1.0262  1.9993  1.4154
 9926TIP3   OH251268   0.082   4.499   0.225 -0.9327 -0.0674 -0.4428
 9926TIP3    H151269   0.087   4.509   0.320  0.1549 -0.4368 -0.4533
 9926TIP3    H251270  -0.012   4.495   0.207 -1.2942  2.8192  0.3084
 9927TIP3   OH251271   6.141   4.454   2.234 -0.4411 -0.2969  0.3360
 9927TIP3    H151272   6.211   4.492   2.180 -0.2402 -0.0912  0.7390
 9927TIP3    H251273   6.086   4.408   2.171 -0.1016 -0.2229 -0.0247
 9928TIP3   OH251274   5.423   0.466  11.365 -0.0282 -0.5194 -0.1148
 9928TIP3    H151275   5.340   0.501  11.332  0.2678  0.1773 -0.1196
 9928TIP3    H251276   5.413   0.371  11.356  0.4345 -0.3686 -3.1849
 9929TIP3   OH251277   1.415   3.080   5.819  0.0107 -0.3421 -0.1378
 9929TIP3    H151278   1.394   3.152   5.878  0.5944 -0.1980 -0.1018
 9929TIP3    H251279   1.498   3.046   5.851  0.7052  0.2015 -1.3062
 9930TIP3   OH251280   2.930   4.385  15.109 -0.4936 -0.2929  0.0829
 9930TIP3    H151281   2.847   4.417  15.076 -0.1530  0.3073 -0.2178
 9930TIP3    H251282   2.974   4.349  15.032  0.3691  1.2525 -0.2071
 9931TIP3   OH251283   4.015   6.663   4.029  0.5838  0.2943  0.0221
 9931TIP3    H151284   3.935   6.611   4.034  0.6800  0.1867  0.4450
 9931TIP3    H251285   3.995   6.733   3.966 -0.3736  1.2036  1.2910
 9932TIP3   OH251286   3.732   6.023   4.894  0.0516 -0.1947  0.6853
 9932TIP3    H151287   3.675   6.070   4.834  2.0456  1.8654  0.2454
 9932TIP3    H251288   3.784   6.091   4.937  0.5577 -1.7850  2.8070
 9933TIP3   OH251289   1.068   4.561  16.670  0.4227 -0.5150 -0.2074
 9933TIP3    H151290   1.118   4.630  16.626  0.7021 -0.5765  0.0143
 9933TIP3    H251291   0.999   4.538  16.607 -0.3919  0.7639  0.1805
 9934TIP3   OH251292   6.315   4.309  11.715  0.6046 -0.2664  0.0806
 9934TIP3    H151293   6.223   4.317  11.737  0.8534  1.9920  0.5071
 9934TIP3    H251294   6.362   4.329  11.796  1.4649 -0.2331 -0.4060
 9935TIP3   OH251295   5.415   5.485  15.274 -0.1374 -0.1918 -0.1689
 9935TIP3    H151296   5.368   5.561  15.239 -2.3291 -1.3572  0.0610
 9935TIP3    H251297   5.402   5.416  15.208 -1.2039 -1.3477  1.1691
 9936TIP3   OH251298   5.197   4.074   1.174  0.0197  0.1659  0.2571
 9936TIP3    H151299   5.235   3.992   1.203 -1.6060 -0.9685 -0.6860
 9936TIP3    H251300   5.131   4.095   1.240 -0.1532  0.2717  0.0520
 9937TIP3   OH251301   0.717   0.951  17.172 -0.8661  0.1145 -0.6256
 9937TIP3    H151302   0.763   1.034  17.180 -0.7914 -0.0646  1.1205
 9937TIP3    H251303   0.713   0.916  17.261 -1.0823 -1.6600 -1.2776
 9938TIP3   OH251304   0.290   2.723   1.232 -0.4231  0.4192  0.3119
 9938TIP3    H151305   0.214   2.722   1.175 -1.0394  0.7359  1.1073
 9938TIP3    H251306   0.295   2.813   1.264  0.1590  0.3503  0.4402
 9939TIP3   OH251307   5.584   0.999   3.800  0.0302 -0.4397 -0.2657
 9939TIP3    H151308   5.678   1.017   3.795  0.6819 -3.1916  0.3220
 9939TIP3    H251309   5.553   1.053   3.872  1.2498  0.1758 -0.1741
 9940TIP3   OH251310   4.713   6.557   6.222 -0.6990  0.1903 -0.2508
 9940TIP3    H151311   4.634   6.514   6.254 -1.2086  0.6083 -0.9344
 9940TIP3    H251312   4.766   6.487   6.184 -1.3944  0.1164 -1.0958
 9941TIP3   OH251313   3.036   1.709   2.504 -0.1585  0.5234  0.2523
 9941TIP3    H151314   3.034   1.803   2.486  1.6531 -0.0550 -4.4944
 9941TIP3    H251315   2.977   1.671   2.438 -0.3180 -1.7427  1.6098
 9942TIP3   OH251316   5.492   6.152   4.044  0.2201  0.3726 -0.2430
 9942TIP3    H151317   5.573   6.188   4.081 -1.0451  1.5183  1.6378
 9942TIP3    H251318   5.446   6.114   4.120 -1.7588  1.3138 -0.8924
 9943TIP3   OH251319   2.482   4.931   4.648 -0.2735 -0.6150 -0.2137
 9943TIP3    H151320   2.534   4.982   4.586  0.4889 -1.8052 -0.5732
 9943TIP3    H251321   2.483   4.984   4.728  0.3563  0.0243 -0.6281
 9944TIP3   OH251322   4.806   1.475  15.205 -0.0731 -0.4111  0.2392
 9944TIP3    H151323   4.736   1.436  15.258 -1.1488 -0.6256 -1.2940
 9944TIP3    H251324   4.784   1.568  15.201 -0.5839 -0.5618 -0.6780
 9945TIP3   OH251325   5.124   2.322   4.704  0.2095  0.1213 -0.4773
 9945TIP3    H151326   5.121   2.232   4.736 -2.3446  1.2448  3.0717
 9945TIP3    H251327   5.059   2.326   4.635  1.4488 -1.0342 -1.7578
 9946TIP3   OH251328   6.345   4.992   5.187 -0.1379  0.2853 -0.0471
 9946TIP3    H151329   6.403   5.016   5.259  0.5119 -1.1471 -0.0628
 9946TIP3    H251330   6.343   5.070   5.131  1.9184  0.3344 -0.1290
 9947TIP3   OH251331   5.935   3.408   0.432 -0.5971 -0.2596 -0.3818
 9947TIP3    H151332   5.916   3.422   0.339  0.0058  1.2147 -0.3193
 9947TIP3    H251333   5.942   3.313   0.441 -1.5275 -0.4806 -1.6550
 9948TIP3   OH251334   1.374   2.977  14.402 -0.1923 -0.4783 -0.3524
 9948TIP3    H151335   1.382   3.011  14.491  0.3789  0.2495 -0.6732
 9948TIP3    H251336   1.288   2.934  14.401 -0.6623  0.4084  0.2479
 9949TIP3   OH251337   4.167   1.200  14.150 -0.1178 -0.0889 -0.0182
 9949TIP3    H151338   4.170   1.272  14.213  1.9895  1.0485 -1.2808
 9949TIP3    H251339   4.087   1.214  14.100 -0.8958  0.0218  1.2397
 9950TIP3   OH251340   2.298   6.376   0.387  0.7309  0.1704  0.1978
 9950TIP3    H151341   2.285   6.443   0.454  0.4071  1.7854 -1.4176
 9950TIP3    H251342   2.387   6.344   0.403  0.1919 -0.5373  2.2321
 9951TIP3   OH251343   0.970   4.453   6.186  0.3879  0.0796 -0.2633
 9951TIP3    H151344   0.986   4.374   6.238 -0.3251  0.4839  0.6025
 9951TIP3    H251345   1.002   4.525   6.240 -2.2018  0.7027  0.6083
 9952TIP3   OH251346   5.503   4.303   6.665  0.6638 -0.1008  0.3673
 9952TIP3    H151347   5.577   4.278   6.611  0.2928 -1.4606  0.4492
 9952TIP3    H251348   5.524   4.391   6.696  2.3540 -0.5545  0.5897
 9953TIP3   OH251349   2.467   1.565  13.769  0.2513 -0.8642  0.4493
 9953TIP3    H151350   2.509   1.496  13.718 -1.5554 -0.5909 -1.5160
 9953TIP3    H251351   2.505   1.556  13.857 -0.4150 -4.8298  0.5064
 9954TIP3   OH251352   3.580   1.165   1.262  0.2130 -0.1091 -0.6412
 9954TIP3    H151353   3.644   1.194   1.328  1.1440 -0.1438 -1.5017
 9954TIP3    H251354   3.618   1.085   1.226 -0.4157 -0.2299 -1.0325
 9955TIP3   OH251355   4.238   2.057   3.623 -0.1371  0.1236 -0.1993
 9955TIP3    H151356   4.185   2.117   3.571 -0.6515 -0.7286 -0.6951
 9955TIP3    H251357   4.184   1.978   3.631  0.4418 -0.2086  0.5900
 9956TIP3   OH251358   3.449   6.633  14.168  0.2835  0.4023  0.0560
 9956TIP3    H151359   3.426   6.542  14.183  1.1489  0.0909 -0.4415
 9956TIP3    H251360   3.544   6.635  14.175  0.2380  1.3568  0.5199
 9957TIP3   OH251361   4.708   0.711  12.964 -0.0491  0.3864 -0.7842
 9957TIP3    H151362   4.630   0.660  12.986  1.7629 -1.6143  1.6140
 9957TIP3    H251363   4.757   0.655  12.904 -0.3256  1.5740 -2.1764
 9958TIP3   OH251364   5.210   5.553  11.699  0.3259  0.5221 -0.4700
 9958TIP3    H151365   5.230   5.476  11.646 -1.8486  1.5510 -3.0757
 9958TIP3    H251366   5.274   5.619  11.670  0.9076  0.2868  0.2692
 9959TIP3   OH251367   2.680   3.391   5.427  0.1253 -0.4274  0.1927
 9959TIP3    H151368   2.622   3.340   5.371  0.1501 -1.2075  0.8640
 9959TIP3    H251369   2.628   3.410   5.505  0.5985 -0.6885  0.5761
 9960TIP3   OH251370   3.536   0.155  16.546  0.0091  0.0828  0.1946
 9960TIP3    H151371   3.472   0.095  16.585  0.7926  0.2542  1.8580
 9960TIP3    H251372   3.483   0.219  16.499 -1.0537  0.0925  1.3456
 9961TIP3   OH251373   4.893   0.101  13.963 -0.4761  0.2152 -0.3880
 9961TIP3    H151374   4.863   0.055  14.041 -2.5469  1.8889 -0.1141
 9961TIP3    H251375   4.923   0.186  13.995 -0.7430  0.6705 -1.3135
 9962TIP3   OH251376   4.312   4.893  16.607 -0.3074  0.1639 -0.1647
 9962TIP3    H151377   4.259   4.946  16.667  0.9290  1.4644 -0.1715
 9962TIP3    H251378   4.331   4.952  16.534  0.0345 -0.7122 -0.8008
 9963TIP3   OH251379   4.877   4.838  16.041 -0.2357  0.2716  0.0336
 9963TIP3    H151380   4.936   4.903  16.078  0.5972 -1.3734  1.7143
 9963TIP3    H251381   4.871   4.769  16.108 -3.3186 -0.0818 -0.4551
 9964TIP3   OH251382   6.297   2.127   6.101 -0.5281 -0.7090  0.3055
 9964TIP3    H151383   6.382   2.154   6.137 -1.2930  4.0673 -0.8014
 9964TIP3    H251384   6.257   2.077   6.172  1.2141  1.3542  2.9593
 9965TIP3   OH251385   4.302   5.699  11.888 -0.3198  0.1418  0.0806
 9965TIP3    H151386   4.243   5.675  11.958  1.5934  0.6673  1.9938
 9965TIP3    H251387   4.369   5.753  11.930  1.3240 -0.1130 -2.0023
 9966TIP3   OH251388   5.593   3.449  12.334  0.0092 -0.3935 -0.2927
 9966TIP3    H151389   5.572   3.517  12.270 -0.2394  0.2752  0.4752
 9966TIP3    H251390   5.594   3.495  12.418  1.7309 -0.9689  0.0413
 9967TIP3   OH251391   6.110   0.059  11.653  0.0383  0.5878  0.5448
 9967TIP3    H151392   6.104   0.154  11.668  2.3023  0.7416  0.8025
 9967TIP3    H251393   6.142   0.023  11.736  0.9502 -0.1494 -0.1074
 9968TIP3   OH251394   5.835   2.281  16.741 -0.0277  0.0125 -0.4983
 9968TIP3    H151395   5.880   2.208  16.699  1.7352 -1.4244  3.4528
 9968TIP3    H251396   5.903   2.347  16.755 -0.6707  0.6483 -0.2787
 9969TIP3   OH251397   6.737   4.404  13.014  0.8597 -0.0668 -0.8695
 9969TIP3    H151398   6.662   4.463  13.005  0.6106 -0.1770  0.3190
 9969TIP3    H251399   6.720   4.334  12.950 -1.0994 -1.1540  0.7195
 9970TIP3   OH251400   1.463   3.941  12.546 -0.2508 -0.3389  0.0643
 9970TIP3    H151401   1.403   3.975  12.479 -0.2014 -0.8337 -0.2385
 9970TIP3    H251402   1.542   3.993  12.535 -1.2287  1.5975  1.6963
 9971TIP3   OH251403   3.763   3.691   5.367  0.6198 -0.1594  0.3375
 9971TIP3    H151404   3.824   3.682   5.440  0.3787 -3.6439  0.2654
 9971TIP3    H251405   3.680   3.715   5.408  1.0114  0.1889  0.9423
 9972TIP3   OH251406   2.571   3.945   4.952 -0.0931  0.3737 -0.0623
 9972TIP3    H151407   2.489   3.924   4.997  1.2159 -1.4191  1.6564
 9972TIP3    H251408   2.563   3.902   4.867  0.2461 -2.6521  1.2986
 9973TIP3   OH251409   0.685   5.288   2.713  0.4966 -0.6079 -0.2033
 9973TIP3    H151410   0.743   5.252   2.780  0.7916  1.3602  0.6812
 9973TIP3    H251411   0.675   5.380   2.737 -0.6147 -0.1931 -2.0346
 9974TIP3   OH251412   2.062   5.573   2.216  1.3384 -0.3273  0.2841
 9974TIP3    H151413   2.064   5.558   2.311 -0.9322 -2.0216  0.1523
 9974TIP3    H251414   1.985   5.627   2.202  2.1864  0.7005 -0.5478
 9975TIP3   OH251415   2.823   6.437   6.445  0.1346 -0.2237  0.2421
 9975TIP3    H151416   2.770   6.357   6.449 -1.9017  1.0989  1.4556
 9975TIP3    H251417   2.775   6.493   6.383  1.9646 -0.1732 -1.2061
 9976TIP3   OH251418   0.227   1.688   4.712 -0.1352  0.8722 -0.6920
 9976TIP3    H151419   0.239   1.605   4.758 -1.5266  1.0849  0.1195
 9976TIP3    H251420   0.186   1.664   4.629  1.3901  0.5848 -1.3919
 9977TIP3   OH251421   3.202   4.091  16.353  0.3182 -0.2226  0.5571
 9977TIP3    H151422   3.120   4.053  16.384  0.3547 -0.1155  0.7859
 9977TIP3    H251423   3.243   4.021  16.302 -0.5572  0.1626 -0.7240
 9978TIP3   OH251424   3.205   1.345   5.918  0.0456  0.1843 -0.0269
 9978TIP3    H151425   3.145   1.339   5.843 -0.8335  0.7716  0.6111
 9978TIP3    H251426   3.219   1.254   5.944 -0.1574  0.0116 -0.5038
 9979TIP3   OH251427   0.291   3.996   3.445 -0.3685  0.0146 -0.0206
 9979TIP3    H151428   0.363   3.964   3.498 -1.2028 -0.0243  1.1141
 9979TIP3    H251429   0.331   4.061   3.387  0.2756  1.4473  1.9275
 9980TIP3   OH251430   3.625   0.049   2.122  0.0237 -0.2117 -0.1955
 9980TIP3    H151431   3.660   0.080   2.038 -2.0497  1.2270 -0.5865
 9980TIP3    H251432   3.616   0.128   2.175 -0.2678 -0.8861  0.7899
 9981TIP3   OH251433   3.223   0.949  14.104  0.0357  0.1165  0.0811
 9981TIP3    H151434   3.193   1.030  14.064 -2.8043 -1.1736 -0.6840
 9981TIP3    H251435   3.239   0.890  14.030 -1.8680 -1.2051  0.6326
 9982TIP3   OH251436   5.611   0.034   5.013 -0.0469  0.6656 -0.8206
 9982TIP3    H151437   5.570   0.066   4.932 -1.0367  1.0045 -0.1944
 9982TIP3    H251438   5.543  -0.016   5.057  0.2139  1.1973  0.2150
 9983TIP3   OH251439   0.749   4.141  17.000 -0.4049  0.1235 -0.1100
 9983TIP3    H151440   0.656   4.144  16.980 -0.2356 -2.1058 -1.5881
 9983TIP3    H251441   0.760   4.060  17.050  0.9279 -0.4699 -1.3000
 9984TIP3   OH251442   0.403   4.364   1.811  0.1153  0.2749 -0.2404
 9984TIP3    H151443   0.358   4.404   1.886 -0.3331  2.3826 -1.5483
 9984TIP3    H251444   0.489   4.406   1.810  0.3197 -0.1435 -0.5864
 9985TIP3   OH251445   6.679   5.715   3.845 -0.4186 -0.3570  0.1698
 9985TIP3    H151446   6.719   5.776   3.908 -1.5745  2.0843 -1.3041
 9985TIP3    H251447   6.619   5.662   3.897 -0.9112  1.1840  1.2407
 9986TIP3   OH251448   4.070   2.808   3.144 -0.5915  0.4063 -0.0341
 9986TIP3    H151449   4.015   2.806   3.222  1.3176 -0.9367  1.3558
 9986TIP3    H251450   4.055   2.724   3.101  0.0935  0.1817  0.1572
 9987TIP3   OH251451   6.017   4.703  13.079  0.3724  0.4660 -0.1346
 9987TIP3    H151452   5.996   4.654  12.999 -1.4585  0.0551  0.5489
 9987TIP3    H251453   5.959   4.666  13.146 -0.6735  3.1357  0.5584
 9988TIP3   OH251454   1.752   4.454  13.386  0.5526 -0.1308  0.1950
 9988TIP3    H151455   1.714   4.503  13.313  0.5778  1.8892  1.4683
 9988TIP3    H251456   1.702   4.372  13.388 -3.0124  1.8638  1.0252
 9989TIP3   OH251457   0.809   5.140   2.898  0.6562 -0.1249  0.2420
 9989TIP3    H151458   0.791   5.083   2.972 -0.6600  0.8425  0.6971
 9989TIP3    H251459   0.895   5.179   2.918  1.7670 -2.1514 -0.2609
 9990TIP3   OH251460   3.943   0.096   0.919  0.0505  0.0049 -0.1951
 9990TIP3    H151461   3.956   0.158   0.847  0.3268 -0.3023 -0.4143
 9990TIP3    H251462   3.974   0.142   0.996 -1.9256  1.0288  0.0401
 9991TIP3   OH251463   3.218   1.329   3.819  0.1029  0.3520 -0.1825
 9991TIP3    H151464   3.157   1.386   3.772  0.0028 -0.8207 -1.5600
 9991TIP3    H251465   3.304   1.369   3.805  0.2836 -0.7469 -2.7446
 9992TIP3   OH251466   4.313   0.760  13.923  0.5862  0.0060 -0.3790
 9992TIP3    H151467   4.288   0.846  13.958 -0.1971 -0.4094  0.0797
 9992TIP3    H251468   4.278   0.697  13.985 -0.9501 -0.7578 -1.9570
 9993TIP3   OH251469   2.202   3.692  10.715 -0.0945 -0.4189 -0.2765
 9993TIP3    H151470   2.180   3.773  10.669  1.5751  0.5960  0.6157
 9993TIP3    H251471   2.185   3.623  10.651  1.5558  0.8724 -2.2648
 9994TIP3   OH251472   4.929   5.586  14.777 -0.8591 -0.4182  0.3170
 9994TIP3    H151473   4.933   5.671  14.820  0.3869 -0.1851 -0.2281
 9994TIP3    H251474   5.015   5.574  14.738 -1.0252 -1.9164  0.3362
 9995TIP3   OH251475   2.404   2.795   5.008  0.5802 -0.3976  0.2922
 9995TIP3    H151476   2.344   2.869   5.019 -0.6194 -1.3636  0.4700
 9995TIP3    H251477   2.401   2.777   4.914  0.3960 -0.6082  0.3391
 9996TIP3   OH251478   1.368   5.541  15.792 -0.2344  0.0025 -0.3689
 9996TIP3    H151479   1.367   5.527  15.697  1.7559 -1.3626 -0.2634
 9996TIP3    H251480   1.346   5.456  15.829 -1.7458  0.7107  0.4379
 9997TIP3   OH251481   3.958   4.039   6.464 -0.1485 -0.2260 -0.1595
 9997TIP3    H151482   3.928   3.951   6.439 -2.4252 -0.0006  1.4211
 9997TIP3    H251483   3.956   4.089   6.382 -1.1428 -1.0617 -0.6740
 9998TIP3   OH251484   0.776   0.979   1.139  0.6886 -0.4653  0.0159
 9998TIP3    H151485   0.748   0.898   1.181  0.9066 -0.3834  0.3239
 9998TIP3    H251486   0.817   0.951   1.057  1.3922 -0.7215  0.4482
 9999TIP3   OH251487   0.443   3.693  15.366  0.4890 -0.4526 -0.0594
 9999TIP3    H151488   0.370   3.690  15.304 -1.2325  0.8967  1.7581
 9999TIP3    H251489   0.518   3.663  15.315 -0.9514 -0.1798 -2.5615
10000TIP3   OH251490   0.060   2.103   4.862  0.0796  0.1410 -0.5312
10000TIP3    H151491  -0.006   2.120   4.930 -1.3957 -0.5466 -1.7463
10000TIP3    H251492   0.061   2.182   4.809  0.6908  0.3849 -0.1679
10001TIP3   OH251493   6.616   1.093  11.881  0.5861 -0.2846  0.3007
10001TIP3    H151494   6.668   1.040  11.942  0.1234 -0.7138  0.3315
10001TIP3    H251495   6.564   1.029  11.832  1.5244 -0.0198 -1.1170
10002TIP3   OH251496   6.361   1.163   5.723 -0.1680  0.3928  0.5169
10002TIP3    H151497   6.280   1.126   5.757  0.4316 -1.2583  0.2224
10002TIP3    H251498   6.343   1.183   5.632  0.0972 -1.1365  0.1102
10003TIP3   OH251499   1.396   2.756  16.809 -0.4023  0.0847 -0.4915
10003TIP3    H151500   1.482   2.745  16.851 -0.6391  1.0748  0.2813
10003TIP3    H251501   1.368   2.667  16.790  1.1134 -0.2333 -1.4128
10004TIP3   OH251502   3.232   3.940  15.326 -0.0664  0.4059  0.6114
10004TIP3    H151503   3.310   3.902  15.286 -0.2371 -0.4759  1.0962
10004TIP3    H251504   3.254   3.948  15.419  0.6557  3.2520  0.3025
10005TIP3   OH251505   2.834   4.881  14.989 -0.5869  0.6285 -0.2069
10005TIP3    H151506   2.808   4.960  14.943  0.2800  0.7818 -0.4433
10005TIP3    H251507   2.774   4.814  14.956 -0.8934  1.0411 -0.5004
10006TIP3   OH251508   1.719   2.967  14.295  0.6219 -0.0861 -0.5143
10006TIP3    H151509   1.659   3.041  14.286  2.5080  1.4231 -1.1698
10006TIP3    H251510   1.729   2.933  14.207  0.3300 -0.6922 -0.3219
10007TIP3   OH251511   3.473   4.233  16.828  0.9289 -0.3411  0.8082
10007TIP3    H151512   3.518   4.257  16.747  0.0668  0.4576  0.5397
10007TIP3    H251513   3.510   4.291  16.894  0.6423 -0.0141  0.6859
10008TIP3   OH251514   1.547   4.521   6.067 -0.0847 -0.3104  0.3794
10008TIP3    H151515   1.491   4.591   6.100  1.0944 -0.0953  2.0641
10008TIP3    H251516   1.521   4.444   6.117  1.1020 -0.1963  1.2247
10009TIP3   OH251517   2.455   4.358  13.176 -0.5259 -0.4698 -0.3989
10009TIP3    H151518   2.465   4.279  13.123  1.6325 -0.7095  0.2625
10009TIP3    H251519   2.421   4.327  13.260 -0.6374 -0.5639 -0.4789
10010TIP3   OH251520   2.313   6.130  12.148 -0.0788 -0.4660 -0.3432
10010TIP3    H151521   2.350   6.203  12.198 -0.1574 -0.4828 -0.2598
10010TIP3    H251522   2.220   6.128  12.174 -0.5180  0.5716 -1.7040
10011TIP3   OH251523   2.532   6.355   4.294 -0.5849  0.7600 -0.1359
10011TIP3    H151524   2.614   6.358   4.344  0.4327 -2.9191 -1.2488
10011TIP3    H251525   2.554   6.393   4.209  0.0008 -0.1289 -0.3963
10012TIP3   OH251526   3.797   2.485   6.121 -0.1675 -0.5401  0.1101
10012TIP3    H151527   3.764   2.525   6.202 -0.3800 -0.3566 -0.0642
10012TIP3    H251528   3.775   2.548   6.053  1.6743  0.1930  0.1405
10013TIP3   OH251529   1.274   0.857   5.663  0.3013 -0.3381 -0.3560
10013TIP3    H151530   1.204   0.904   5.710  0.5266 -1.7249  1.4804
10013TIP3    H251531   1.312   0.923   5.605  1.1599  2.0972  2.6778
10014TIP3   OH251532   0.718   4.006   6.644 -0.0451 -0.3889  0.2453
10014TIP3    H151533   0.749   4.094   6.620 -0.8202  0.5533  2.5032
10014TIP3    H251534   0.643   4.021   6.701 -0.9296 -2.5694 -0.2338
10015TIP3   OH251535   1.427   1.400   2.478  0.5556 -0.0437 -0.2544
10015TIP3    H151536   1.493   1.342   2.517 -0.3361 -1.8014 -1.2221
10015TIP3    H251537   1.345   1.351   2.485 -0.5186  1.7271  0.1344
10016TIP3   OH251538   5.478   2.254   1.656 -0.3350  0.3515  0.0233
10016TIP3    H151539   5.447   2.333   1.613 -0.2473  0.0678 -0.5667
10016TIP3    H251540   5.573   2.259   1.651 -0.3342 -0.2684 -0.9181
10017TIP3   OH251541   6.791   2.877   3.989 -0.8413 -0.7736  0.1694
10017TIP3    H151542   6.832   2.795   3.963 -0.5296 -1.3116  2.1580
10017TIP3    H251543   6.707   2.877   3.944 -0.2506 -1.4737 -0.9906
10018TIP3   OH251544   4.178   5.522   5.023 -0.0195  0.5198 -0.5618
10018TIP3    H151545   4.269   5.548   5.038  0.7394 -2.2405  0.1337
10018TIP3    H251546   4.164   5.537   4.929  1.7536 -0.5618 -1.0597
10019TIP3   OH251547   2.865   2.056  15.478 -0.4681  0.2431  0.5030
10019TIP3    H151548   2.894   2.146  15.467 -2.3208  0.7619 -0.5857
10019TIP3    H251549   2.796   2.060  15.544 -0.3624 -0.4311  0.6665
10020TIP3   OH251550   2.191   1.178   1.689 -0.8061 -0.0093  0.2971
10020TIP3    H151551   2.107   1.222   1.699 -0.5087  0.4456  0.8597
10020TIP3    H251552   2.249   1.245   1.653 -1.1727 -0.8654 -2.0662
10021TIP3   OH251553   5.055   0.993   4.099 -0.3637  0.4608 -0.3580
10021TIP3    H151554   5.114   1.017   4.028 -2.4997  0.1508 -2.3700
10021TIP3    H251555   4.982   1.055   4.092 -1.4841 -0.7069  0.3693
10022TIP3   OH251556   5.850   3.670   3.055  0.1264  0.4809 -0.2918
10022TIP3    H151557   5.891   3.755   3.039 -2.2000  1.4366 -1.6970
10022TIP3    H251558   5.760   3.691   3.079 -0.6580 -1.6192 -1.1431
10023TIP3   OH251559   1.378   6.448  14.896 -0.0497  0.2362 -0.6431
10023TIP3    H151560   1.435   6.479  14.825  0.0202  0.3398 -0.5412
10023TIP3    H251561   1.439   6.411  14.960 -0.1956 -1.3319 -1.3585
10024TIP3   OH251562   1.649   4.425   3.006  0.0213  0.4205 -0.0553
10024TIP3    H151563   1.741   4.443   2.987 -0.6874  2.0965 -2.3533
10024TIP3    H251564   1.601   4.493   2.959 -2.4435 -1.0431  0.1595
10025TIP3   OH251565   6.373   0.200   2.454 -0.1736 -0.0298 -0.2420
10025TIP3    H151566   6.292   0.168   2.495  0.0571  0.5061  0.6574
10025TIP3    H251567   6.420   0.121   2.428 -1.4698 -0.3546 -1.7833
10026TIP3   OH251568   4.124   5.045  12.222  0.3313  0.2902 -0.5420
10026TIP3    H151569   4.043   4.997  12.206  0.2324  0.6581 -1.1739
10026TIP3    H251570   4.193   4.980  12.207  0.1662  0.0893 -0.4348
10027TIP3   OH251571   0.045   6.410   2.355  0.4653  0.2515  0.5127
10027TIP3    H151572  -0.027   6.352   2.332  0.4130  1.3391 -2.4543
10027TIP3    H251573   0.005   6.497   2.358  1.2206  0.5880  1.3045
10028TIP3   OH251574   6.084   5.388   3.646  0.2880  0.3130  0.2262
10028TIP3    H151575   6.055   5.443   3.573  2.4847  1.1037 -0.1142
10028TIP3    H251576   6.025   5.313   3.644 -0.7486  1.1167 -1.3227
10029TIP3   OH251577   3.152   4.415   1.118 -0.2641 -0.2240 -0.0891
10029TIP3    H151578   3.174   4.504   1.093 -1.5663 -0.0785 -0.7792
10029TIP3    H251579   3.149   4.417   1.214 -2.4728  1.0665 -0.1156
10030TIP3   OH251580   3.182   1.629  15.267 -0.0965 -0.1543  0.4975
10030TIP3    H151581   3.140   1.547  15.239  0.6796 -1.0197  1.8023
10030TIP3    H251582   3.163   1.690  15.196 -0.8697 -1.4014 -0.4149
10031TIP3   OH251583   3.983   4.759  11.936 -0.1144 -0.0533  0.1826
10031TIP3    H151584   3.973   4.736  12.029 -0.6394 -0.4862  0.0249
10031TIP3    H251585   4.068   4.801  11.931 -0.1502  0.1169  0.8932
10032TIP3   OH251586   5.121   3.037  11.087  0.3294  0.3177 -0.1855
10032TIP3    H151587   5.109   3.115  11.033 -1.8726  0.7655  0.8246
10032TIP3    H251588   5.080   3.060  11.171  1.8761 -1.0463  1.0186
10033TIP3   OH251589   0.651   2.887   6.385 -0.1481 -0.5470 -0.6480
10033TIP3    H151590   0.736   2.852   6.358  0.1393 -0.5964  0.2800
10033TIP3    H251591   0.598   2.809   6.402 -0.0797 -0.5285 -0.3357
10034TIP3   OH251592   1.487   6.197  14.782 -0.3472  0.7030  0.3638
10034TIP3    H151593   1.524   6.245  14.856 -0.2106  0.9020  0.1683
10034TIP3    H251594   1.535   6.231  14.706 -0.7148  0.7358  0.1461
10035TIP3   OH251595   5.728   3.213   0.068  0.0295 -0.1537  0.2866
10035TIP3    H151596   5.719   3.118   0.081 -0.4712 -0.1474 -0.0149
10035TIP3    H251597   5.818   3.224   0.037 -0.5306 -0.7540 -1.6842
10036TIP3   OH251598   6.403   1.521   3.432 -0.1554  0.2450  0.1160
10036TIP3    H151599   6.423   1.532   3.339 -0.1291  2.4688  0.3326
10036TIP3    H251600   6.479   1.557   3.477  0.4928 -2.1110  1.0760
10037TIP3   OH251601   4.195   5.555  13.335  0.0948  0.2785 -0.2539
10037TIP3    H151602   4.195   5.626  13.399 -1.6431 -0.5928  0.7850
10037TIP3    H251603   4.205   5.598  13.251  0.8425  1.5846  0.4743
10038TIP3   OH251604   2.698   0.246  11.472 -0.3274  0.3550  0.3861
10038TIP3    H151605   2.681   0.151  11.469  0.8439  0.1123  0.9289
10038TIP3    H251606   2.782   0.256  11.427  0.2680  0.9597  1.6090
10039TIP3   OH251607   5.000   2.898   5.806 -0.0279  0.0787  0.0642
10039TIP3    H151608   4.957   2.930   5.886  0.3562 -1.0307  0.7449
10039TIP3    H251609   5.090   2.878   5.834  0.9285  2.1987 -1.2895
10040TIP3   OH251610   4.540   4.834  15.381  0.1946  0.1103 -0.2335
10040TIP3    H151611   4.622   4.835  15.332 -0.1990  0.0010 -0.9141
10040TIP3    H251612   4.565   4.853  15.471  0.9637  0.0831 -0.4371
10041TIP3   OH251613   0.288   3.655   4.720 -0.3072  0.4272 -0.1170
10041TIP3    H151614   0.208   3.614   4.753 -0.0298 -1.7978 -1.9624
10041TIP3    H251615   0.265   3.687   4.633  0.7160 -0.0218 -0.5675
10042TIP3   OH251616   4.635   6.418   2.875  0.0205  0.1911 -0.1749
10042TIP3    H151617   4.688   6.490   2.909  1.8860 -1.0845 -0.2909
10042TIP3    H251618   4.647   6.347   2.938 -0.4649 -0.5798 -0.9254
10043TIP3   OH251619   2.372   6.127  14.833 -0.4420 -0.3738  0.0047
10043TIP3    H151620   2.437   6.182  14.789 -1.3830  0.7145 -0.0751
10043TIP3    H251621   2.304   6.114  14.767 -0.3827 -1.4001  0.1300
10044TIP3   OH251622   5.414   2.559  15.944 -0.2976  0.0793 -0.5217
10044TIP3    H151623   5.499   2.596  15.919 -0.9353  1.5499 -0.6029
10044TIP3    H251624   5.433   2.467  15.965  1.3141  0.3963 -0.4857
10045TIP3   OH251625   4.398   5.853  17.200 -0.7306  0.2650 -0.2723
10045TIP3    H151626   4.431   5.926  17.148 -0.1581  1.6881  1.9769
10045TIP3    H251627   4.474   5.797  17.214 -0.6160  0.5057  0.0534
10046TIP3   OH251628   2.544   3.171  16.202 -0.0925  0.0620 -0.6090
10046TIP3    H151629   2.567   3.093  16.253  0.5901  0.3500 -0.4694
10046TIP3    H251630   2.628   3.211  16.180 -0.4029  0.3000 -1.4059
10047TIP3   OH251631   6.121   4.233  15.413 -0.3367 -0.3642  0.1714
10047TIP3    H151632   6.122   4.316  15.461 -0.2204  0.6319 -1.4981
10047TIP3    H251633   6.030   4.203  15.418 -0.7153  0.6463 -0.5058
10048TIP3   OH251634   6.210   5.611   1.230  0.1489 -0.6218 -0.0899
10048TIP3    H151635   6.277   5.662   1.184  0.4573 -0.6883  0.2880
10048TIP3    H251636   6.170   5.557   1.161  0.0080 -0.0724 -0.4379
10049TIP3   OH251637   6.754   4.112  15.566 -0.3270  0.1073 -0.3839
10049TIP3    H151638   6.825   4.051  15.586  0.6647  1.5280  0.6291
10049TIP3    H251639   6.758   4.124  15.471  0.8133  0.1585 -0.3433
10050TIP3   OH251640   4.883   3.363  12.836 -0.1097 -0.4336  0.0112
10050TIP3    H151641   4.836   3.366  12.753 -0.1121 -1.5916 -0.0333
10050TIP3    H251642   4.928   3.279  12.836  0.4217 -0.1668  0.8996
10051TIP3   OH251643   3.626   6.072  13.654  0.8643 -0.0851  0.0313
10051TIP3    H151644   3.568   5.998  13.671  0.7859  0.1590  0.8677
10051TIP3    H251645   3.572   6.149  13.671  0.7790  0.1954 -1.3538
10052TIP3   OH251646   4.788   2.917  14.933 -0.3645 -0.0436  0.2060
10052TIP3    H151647   4.815   2.978  14.864 -1.1462  0.8145  0.6311
10052TIP3    H251648   4.813   2.961  15.015 -1.2213 -0.1313  0.5314
10053TIP3   OH251649   0.256   3.661  11.431  0.2905  0.3945 -0.2087
10053TIP3    H151650   0.333   3.606  11.444 -1.8315 -2.6284  0.5346
10053TIP3    H251651   0.269   3.702  11.346  1.2905 -2.5465 -1.5709
10054TIP3   OH251652   5.343   6.812   1.065 -0.4750 -0.5337  0.2085
10054TIP3    H151653   5.365   6.819   0.973 -0.2305  0.4275  0.3331
10054TIP3    H251654   5.272   6.875   1.079 -1.1934 -1.3783  0.4751
10055TIP3   OH251655   6.539   1.234  11.432 -0.4791 -0.2998  0.1704
10055TIP3    H151656   6.589   1.253  11.512 -0.5551  0.3231  0.0728
10055TIP3    H251657   6.591   1.272  11.362  0.2456 -1.9513 -0.2546
10056TIP3   OH251658   0.064   3.543   1.096 -0.8586 -0.4883 -0.0915
10056TIP3    H151659   0.114   3.546   1.015 -2.0943 -0.4329 -0.8897
10056TIP3    H251660  -0.021   3.506   1.070 -1.4715  0.0549  1.0554
10057TIP3   OH251661   2.839   3.060   4.365 -0.7978  0.3405 -0.0016
10057TIP3    H151662   2.897   3.012   4.306 -1.0278 -0.2808  0.2650
10057TIP3    H251663   2.821   3.142   4.320  2.0580  1.5769  0.8305
10058TIP3   OH251664   0.287   1.181  13.153  0.0055  0.1733  0.3434
10058TIP3    H151665   0.286   1.105  13.094  0.6262 -1.5111  2.3917
10058TIP3    H251666   0.336   1.151  13.229  1.5121  3.1217  0.6594
10059TIP3   OH251667   6.067   4.033   2.720 -0.1964 -0.4262  0.0490
10059TIP3    H151668   5.981   4.074   2.731 -0.0245 -0.1804  0.4944
10059TIP3    H251669   6.070   3.968   2.791 -0.2702 -0.8742 -0.3543
10060TIP3   OH251670   1.077   1.682   4.961 -0.3287  0.1425 -0.2033
10060TIP3    H151671   1.117   1.646   4.881 -0.0927 -2.8364  1.1406
10060TIP3    H251672   0.991   1.641   4.966 -0.2354  0.0771  1.2195
10061TIP3   OH251673   6.162   5.429  10.956 -0.3943  0.0060 -0.2433
10061TIP3    H151674   6.107   5.450  10.880  0.7679 -0.6077 -1.2893
10061TIP3    H251675   6.136   5.492  11.023 -2.1173 -0.0468 -0.8212
10062TIP3   OH251676   6.412   5.639  15.004 -0.5850  0.1886 -0.4385
10062TIP3    H151677   6.390   5.701  14.934 -0.8307  1.2037  0.5079
10062TIP3    H251678   6.330   5.594  15.022 -0.6806  0.3951 -0.3560
10063TIP3   OH251679   2.776   2.296  11.860 -0.2179 -0.6409  0.0027
10063TIP3    H151680   2.851   2.290  11.800 -0.7641  0.5893 -0.8617
10063TIP3    H251681   2.734   2.211  11.855  1.3619 -1.5089  0.8471
10064TIP3   OH251682   6.293   1.659   0.904  0.3956  0.1575  0.3255
10064TIP3    H151683   6.320   1.732   0.959 -2.8908  1.8159 -0.0004
10064TIP3    H251684   6.225   1.614   0.955  0.0018 -0.5916 -0.8128
10065TIP3   OH251685   1.985   3.700   5.767 -0.2358  0.2102 -0.1654
10065TIP3    H151686   1.984   3.647   5.847 -1.0608  0.3440 -0.0789
10065TIP3    H251687   1.896   3.692   5.732  0.0028  0.4901 -0.8468
10066TIP3   OH251688   4.185   1.401   3.205  0.6289  0.5148 -0.1867
10066TIP3    H151689   4.150   1.372   3.289 -1.0122  1.7408 -0.4081
10066TIP3    H251690   4.127   1.472   3.177  2.5526  1.7817 -1.2093
10067TIP3   OH251691   2.464   4.273   1.709  0.4272  0.1365 -0.4884
10067TIP3    H151692   2.444   4.331   1.783 -2.0125 -0.5128 -0.5350
10067TIP3    H251693   2.459   4.185   1.746 -0.6415 -0.1873 -1.3553
10068TIP3   OH251694   3.842   3.597   4.087  0.4682  0.3600  0.7368
10068TIP3    H151695   3.893   3.524   4.050 -1.7200 -0.0367 -1.7729
10068TIP3    H251696   3.864   3.672   4.032 -0.8206  0.4281  0.2937
10069TIP3   OH251697   3.439   1.694   1.784 -0.3944 -0.6868 -0.5137
10069TIP3    H151698   3.533   1.685   1.767 -0.3079  0.6263 -0.7991
10069TIP3    H251699   3.431   1.690   1.879  0.0879  0.3384 -0.4262
10070TIP3   OH251700   3.846   0.194  11.970 -0.4611  0.3200  0.0031
10070TIP3    H151701   3.880   0.132  11.906 -0.7270  0.6207 -0.4373
10070TIP3    H251702   3.768   0.151  12.006 -0.5786  0.3458 -0.2172
10071TIP3   OH251703   0.688   0.415   2.739  0.1047 -0.5336 -0.1979
10071TIP3    H151704   0.741   0.492   2.756 -1.5304  0.2764  1.6375
10071TIP3    H251705   0.736   0.343   2.778  0.5873 -0.0768  0.0554
10072TIP3   OH251706   3.759   0.493   5.807 -0.3259  0.0084 -0.1694
10072TIP3    H151707   3.811   0.548   5.866  0.3964 -0.3064 -0.5008
10072TIP3    H251708   3.747   0.411   5.855 -0.4473  0.0521 -0.1252
10073TIP3   OH251709   0.402   1.039  12.460  0.1628 -0.1940 -0.0712
10073TIP3    H151710   0.342   0.986  12.513 -1.8085  1.3017 -0.6998
10073TIP3    H251711   0.403   0.995  12.375  1.6454 -1.3743  0.5030
10074TIP3   OH251712   5.808   2.120   0.723  0.1451 -0.7048 -0.5674
10074TIP3    H151713   5.851   2.043   0.760 -0.2757 -0.6500  0.0548
10074TIP3    H251714   5.872   2.190   0.734  0.0319 -0.6920  0.0667
10075TIP3   OH251715   3.420   3.343  17.088 -0.7527 -0.4132  0.3128
10075TIP3    H151716   3.385   3.433  17.091 -0.8168 -0.3518 -1.3294
10075TIP3    H251717   3.515   3.354  17.094 -0.8412 -0.3922  2.0547
10076TIP3   OH251718   3.526   2.553  14.390  0.6216  0.3335  0.1414
10076TIP3    H151719   3.573   2.486  14.340  0.4763  0.2141  0.1646
10076TIP3    H251720   3.491   2.506  14.465  1.2997  0.6173  0.6478
10077TIP3   OH251721   2.531   4.101   2.827 -0.1104  0.5626 -0.4699
10077TIP3    H151722   2.511   4.061   2.743 -1.8331 -0.3326  0.3187
10077TIP3    H251723   2.454   4.084   2.881  1.4081  0.0800  1.6731
10078TIP3   OH251724   6.529   0.694  16.581 -0.0282  0.3538  0.0855
10078TIP3    H151725   6.565   0.778  16.553 -0.3214  0.4955  0.1244
10078TIP3    H251726   6.445   0.687  16.535 -0.2634  0.3440  0.5055
10079TIP3   OH251727   6.750   4.133   2.489 -0.8970 -0.0325  0.2136
10079TIP3    H151728   6.832   4.182   2.488  0.2579 -1.8692 -0.9481
10079TIP3    H251729   6.707   4.159   2.570  1.0059  0.6975  1.0398
10080TIP3   OH251730   0.335   5.260   1.071  0.3570 -0.6756  0.0470
10080TIP3    H151731   0.301   5.276   0.983  0.8129  1.4958  0.1990
10080TIP3    H251732   0.419   5.306   1.072 -0.6382  1.3274  2.2443
10081TIP3   OH251733   3.414   1.551   3.001  0.8371  0.5053  0.3956
10081TIP3    H151734   3.351   1.527   3.069  0.7281  2.1306  0.9126
10081TIP3    H251735   3.499   1.543   3.044  0.8938 -0.1334  0.1804
10082TIP3   OH251736   2.439   4.488  13.584 -0.5080  0.0520 -0.1965
10082TIP3    H151737   2.401   4.554  13.643 -0.4880 -0.9670  1.0039
10082TIP3    H251738   2.363   4.441  13.549 -0.4749 -0.2940  0.1809
10083TIP3   OH251739   6.269   2.325  13.547  0.0889 -0.0060  0.2851
10083TIP3    H151740   6.258   2.329  13.642 -0.9202  0.6764  0.1580
10083TIP3    H251741   6.305   2.411  13.524 -1.0153  0.3742 -0.0927
10084TIP3   OH251742   5.486   3.893  13.199 -0.3288  0.4377 -0.7361
10084TIP3    H151743   5.452   3.869  13.285  0.7663 -0.5700 -0.5565
10084TIP3    H251744   5.503   3.987  13.204  0.4881  0.2481  0.4380
10085TIP3   OH251745   0.349   0.167   3.323 -0.3492 -0.7131  0.0297
10085TIP3    H151746   0.269   0.137   3.279  0.5215  0.0972 -2.2607
10085TIP3    H251747   0.337   0.261   3.334  0.5134 -0.4701 -0.9343
10086TIP3   OH251748   4.697   2.137  16.323  0.2112 -0.4242  0.2112
10086TIP3    H151749   4.643   2.092  16.387  0.3321 -2.1856 -0.8497
10086TIP3    H251750   4.787   2.113  16.347  0.2174 -1.9182 -1.1267
10087TIP3   OH251751   5.551   5.572   2.401  0.1432 -0.0263  0.0449
10087TIP3    H151752   5.572   5.479   2.400 -1.6799 -0.4848  1.0667
10087TIP3    H251753   5.456   5.575   2.413  0.1104  1.9616 -0.4396
10088TIP3   OH251754   0.114   5.603   1.329 -0.2551 -0.5601  0.0359
10088TIP3    H151755   0.204   5.577   1.309 -0.0021  0.9281 -0.9553
10088TIP3    H251756   0.108   5.598   1.425  0.4583 -1.9119  0.0383
10089TIP3   OH251757   4.703   4.597   2.991  0.3003  0.0069  0.1031
10089TIP3    H151758   4.720   4.565   3.079  1.5192 -1.1460 -0.5214
10089TIP3    H251759   4.665   4.522   2.945 -0.7363  0.7269 -0.2436
10090TIP3   OH251760   0.018   1.843   2.402  0.1370  0.3690  0.5230
10090TIP3    H151761   0.081   1.773   2.382 -0.3819  0.7390 -2.9531
10090TIP3    H251762  -0.058   1.822   2.348 -0.7444  2.6411  0.8132
10091TIP3   OH251763   6.171   4.057  16.778  0.2304  0.6308  0.3832
10091TIP3    H151764   6.165   4.127  16.844  1.7640  2.4620 -1.2828
10091TIP3    H251765   6.107   4.081  16.711  1.1726  0.8159 -0.4865
10092TIP3   OH251766   1.538   0.753  14.731 -0.0104  0.1075 -0.1413
10092TIP3    H151767   1.455   0.796  14.714  0.5146  1.1082 -0.2164
10092TIP3    H251768   1.519   0.689  14.800 -0.7576  0.5752  0.0859
10093TIP3   OH251769   6.147   6.122   4.701 -0.4388 -0.0720 -0.2646
10093TIP3    H151770   6.184   6.154   4.784 -0.0509 -1.8704  0.3075
10093TIP3    H251771   6.180   6.033   4.693 -0.7722 -0.0600 -2.2018
10094TIP3   OH251772   1.088   5.353   0.999 -0.1083 -0.1057 -0.6952
10094TIP3    H151773   1.054   5.440   0.979 -0.2597  0.2938  1.1158
10094TIP3    H251774   1.013   5.295   0.990 -0.6764  0.3769  0.6633
10095TIP3   OH251775   2.161   0.891  14.421  0.0048 -0.8996 -0.2595
10095TIP3    H151776   2.107   0.887  14.499  1.8774 -0.1212  1.1545
10095TIP3    H251777   2.102   0.869  14.349 -2.8881  2.4311  0.8046
10096TIP3   OH251778   5.587   0.202  13.867  0.1411 -0.3021 -0.5959
10096TIP3    H151779   5.548   0.115  13.862 -0.6648  0.0372 -0.4282
10096TIP3    H251780   5.519   0.257  13.906  0.6724  0.3834 -0.6050
10097TIP3   OH251781   1.113   3.485   1.741 -0.5235  0.8585 -0.1090
10097TIP3    H151782   1.132   3.570   1.700 -0.6461 -0.0602 -2.2333
10097TIP3    H251783   1.189   3.468   1.796 -0.4710  2.3084  0.3205
10098TIP3   OH251784   2.234   1.105  14.255  0.0820  0.5577  0.2334
10098TIP3    H151785   2.225   1.049  14.177 -0.5729  0.3393  0.4630
10098TIP3    H251786   2.238   1.044  14.328 -0.2350  0.7945  0.4504
10099TIP3   OH251787   2.184   6.621   4.137  0.4180  0.1392 -0.5001
10099TIP3    H151788   2.156   6.583   4.220  0.0487 -0.6281 -0.9711
10099TIP3    H251789   2.256   6.679   4.160 -1.0683  1.6147  0.6611
10100TIP3   OH251790   1.298   1.016  12.972  0.0895  0.3739  0.5094
10100TIP3    H151791   1.207   0.987  12.964 -0.1519  1.4930 -1.2126
10100TIP3    H251792   1.296   1.081  13.042 -0.3012 -0.0616  0.9098
10101TIP3   OH251793   3.502   6.115  14.679  0.0122  0.1571  0.5697
10101TIP3    H151794   3.591   6.149  14.694  0.1961 -1.3682  3.5494
10101TIP3    H251795   3.515   6.022  14.663 -0.8995  0.4163 -2.0988
10102TIP3   OH251796   6.097   5.959  10.944  0.1159 -0.0008 -0.6418
10102TIP3    H151797   6.065   6.027  10.885 -0.3533 -1.4753 -2.1423
10102TIP3    H251798   6.019   5.929  10.991  0.2950  0.3418 -0.1089
10103TIP3   OH251799   4.510   2.578   3.407  0.2190  0.1920 -0.0341
10103TIP3    H151800   4.549   2.491   3.415  0.9238  0.5524  0.5100
10103TIP3    H251801   4.416   2.561   3.401  0.1750 -0.5333  1.9008
10104TIP3   OH251802   3.386   4.171   4.405  0.0460  0.7910  0.0936
10104TIP3    H151803   3.327   4.097   4.393  1.2692 -0.1374 -0.4780
10104TIP3    H251804   3.431   4.152   4.487 -1.2680  2.1075  1.1627
10105TIP3   OH251805   1.613   6.561   2.254 -0.1723  0.6985  0.0644
10105TIP3    H151806   1.697   6.562   2.300 -1.0195 -1.0521  1.7913
10105TIP3    H251807   1.626   6.496   2.184  0.5483  2.0452 -1.1053
10106TIP3   OH251808   1.252   6.277  15.337 -0.1340 -0.0384  0.2454
10106TIP3    H151809   1.327   6.328  15.305 -0.2184 -0.7932 -1.1873
10106TIP3    H251810   1.195   6.343  15.378  0.6207  0.7507  0.0635
10107TIP3   OH251811   0.817   0.574  10.551 -0.7891  0.4287  0.5545
10107TIP3    H151812   0.832   0.486  10.517 -1.4523  0.0281  1.2695
10107TIP3    H251813   0.879   0.583  10.623 -1.3586  0.1939  1.0779
10108TIP3   OH251814   1.978   2.803   5.628  0.5184  0.3073  0.6656
10108TIP3    H151815   1.939   2.853   5.700  1.2434  0.3517  1.0401
10108TIP3    H251816   2.072   2.807   5.645  0.5913 -1.2681  0.7597
10109TIP3   OH251817   1.209   5.053   1.063 -0.0543  0.2775 -0.2747
10109TIP3    H151818   1.273   4.988   1.032  1.3321  0.8605  1.2128
10109TIP3    H251819   1.187   5.103   0.985 -0.9522 -1.7574 -1.4231
10110TIP3   OH251820   5.917   4.547  14.488  0.3193 -0.1298  0.0589
10110TIP3    H151821   5.858   4.473  14.502 -0.1332  0.3356  0.6736
10110TIP3    H251822   5.932   4.549  14.394 -0.8008 -0.1412 -0.1321
10111TIP3   OH251823   2.655   4.004  16.274  0.3965 -0.4484  0.0186
10111TIP3    H151824   2.744   4.036  16.292 -0.4466  0.6492  2.8127
10111TIP3    H251825   2.662   3.909  16.280  1.9005 -0.6433 -2.9397
10112TIP3   OH251826   3.510   3.102   0.288 -0.4057 -0.1676  0.1600
10112TIP3    H151827   3.508   3.006   0.291 -2.0707 -0.2234 -1.1838
10112TIP3    H251828   3.418   3.127   0.290  0.0208  1.4472  0.8401
10113TIP3   OH251829   1.895   4.526   3.976  0.2284  0.0066 -0.1168
10113TIP3    H151830   1.986   4.530   4.006 -0.4757  0.8607  2.0020
10113TIP3    H251831   1.842   4.531   4.055 -1.7182  0.7580 -1.3892
10114TIP3   OH251832   3.091   5.161   1.620  0.0517 -0.4055  0.2392
10114TIP3    H151833   3.103   5.147   1.714  0.1562  1.4587  0.5561
10114TIP3    H251834   2.999   5.141   1.604 -0.3040  0.4957  1.0325
10115TIP3   OH251835   3.841   3.165   2.200  0.5583  0.1112 -0.2276
10115TIP3    H151836   3.804   3.087   2.158 -1.1565  1.2183 -0.8848
10115TIP3    H251837   3.875   3.217   2.127 -1.4989  1.5719 -0.2249
10116TIP3   OH251838   1.100   6.268   2.292  0.3372 -0.0507 -0.4644
10116TIP3    H151839   1.058   6.192   2.332  2.1792 -1.5892 -1.2656
10116TIP3    H251840   1.062   6.343   2.336 -1.8807 -1.4035  0.0631
10117TIP3   OH251841   3.225   0.646  17.259  0.7906 -0.5573 -0.3669
10117TIP3    H151842   3.144   0.656  17.308  0.8096 -1.1554 -0.2043
10117TIP3    H251843   3.286   0.605  17.321  1.3304  0.2272 -0.3685
10118TIP3   OH251844   1.126   4.981  13.937 -0.1492 -0.0359  0.0775
10118TIP3    H151845   1.176   4.904  13.966 -1.1649 -0.5003  0.6455
10118TIP3    H251846   1.076   5.007  14.014 -1.3884 -0.0803 -0.6899
10119TIP3   OH251847   1.763   6.703   4.045  0.0549  0.3682 -0.3998
10119TIP3    H151848   1.748   6.729   4.136  0.9321 -1.1320  0.2110
10119TIP3    H251849   1.676   6.702   4.005 -0.9880 -3.0436  1.5860
10120TIP3   OH251850   4.245   5.458  16.200 -0.0265 -0.2003  0.0311
10120TIP3    H151851   4.177   5.507  16.246 -1.0776 -0.1264 -1.5221
10120TIP3    H251852   4.295   5.524  16.153  0.6969 -0.3235  0.6129
10121TIP3   OH251853   5.828   4.866   2.253  0.1838  0.3568  0.1170
10121TIP3    H151854   5.850   4.930   2.321 -0.1306  1.9222 -1.1907
10121TIP3    H251855   5.889   4.794   2.267  0.7811  1.0799  1.4349
10122TIP3   OH251856   5.347   1.405   4.830 -0.6433 -0.4583 -0.3694
10122TIP3    H151857   5.269   1.349   4.822 -0.8239  0.0544 -3.0507
10122TIP3    H251858   5.315   1.484   4.874 -0.9960 -1.3043  0.9573
10123TIP3   OH251859   5.712   5.072   6.207  0.0198 -0.1277  0.6972
10123TIP3    H151860   5.684   5.005   6.269 -1.1141 -0.2279  0.1049
10123TIP3    H251861   5.808   5.064   6.204 -0.1054 -1.9037  0.4197
10124TIP3   OH251862   3.072   1.797  13.446  0.0180 -0.0215 -0.1150
10124TIP3    H151863   3.058   1.703  13.459  0.1170 -0.0783 -0.4109
10124TIP3    H251864   3.122   1.803  13.364 -0.2926  0.3070 -0.2833
10125TIP3   OH251865   2.106   6.786   3.726  0.0279 -0.3087 -0.4633
10125TIP3    H151866   2.116   6.880   3.711  2.0601 -0.6089 -1.3420
10125TIP3    H251867   2.059   6.779   3.809  1.8667  1.5222  0.8278
10126TIP3   OH251868   5.336   0.114  16.441 -0.2554  0.2928 -0.2948
10126TIP3    H151869   5.240   0.110  16.445 -0.2825 -1.8868 -1.3776
10126TIP3    H251870   5.355   0.163  16.361 -0.4746  0.4895 -0.2269
10127TIP3   OH251871   2.836   3.208  14.780 -0.8900 -0.8283  0.0820
10127TIP3    H151872   2.895   3.217  14.854 -0.1702 -1.6642 -0.3667
10127TIP3    H251873   2.854   3.285  14.726  1.4689 -2.1431 -1.1657
10128TIP3   OH251874   3.899   4.275   0.925  0.4339 -0.0856 -0.5204
10128TIP3    H151875   3.972   4.337   0.914  0.1002  0.1636 -1.4392
10128TIP3    H251876   3.936   4.204   0.978  1.0742  0.4762 -0.1922
10129TIP3   OH251877   4.489   3.216   5.937  0.3168  0.4515 -0.3728
10129TIP3    H151878   4.548   3.235   5.865  0.2961  1.1429 -0.2073
10129TIP3    H251879   4.543   3.225   6.016 -0.3361  2.5606 -0.1152
10130TIP3   OH251880   1.767   1.658   3.665 -0.0233 -0.5516 -0.6240
10130TIP3    H151881   1.729   1.702   3.589 -0.1200  1.1453  0.3704
10130TIP3    H251882   1.849   1.705   3.681  0.3187 -1.3227 -0.0705
10131TIP3   OH251883   2.618   3.966  13.276 -0.2312  0.6814  0.1761
10131TIP3    H151884   2.694   4.007  13.236 -0.2665  0.0491 -0.5446
10131TIP3    H251885   2.651   3.928  13.357  0.0139  1.2273  0.3398
10132TIP3   OH251886   5.437   2.470  14.407 -0.1961  0.0693  0.2405
10132TIP3    H151887   5.424   2.521  14.487  1.1217  1.3876 -0.3379
10132TIP3    H251888   5.531   2.474  14.391 -0.5741  1.0125 -2.1065
10133TIP3   OH251889   0.839   1.590   4.786 -0.1165  0.1341  0.0967
10133TIP3    H151890   0.887   1.589   4.703 -1.3669 -0.5822 -0.6435
10133TIP3    H251891   0.749   1.610   4.762 -0.5232 -0.1996  1.2783
10134TIP3   OH251892   2.091   1.212   5.353 -0.6573  0.2627  0.6927
10134TIP3    H151893   2.095   1.119   5.373  1.9101  0.2825  0.6783
10134TIP3    H251894   2.067   1.254   5.436  1.2298 -0.2446  1.5385
10135TIP3   OH251895   0.626   2.443   3.532  0.3684 -0.3132  0.2807
10135TIP3    H151896   0.552   2.456   3.472  2.3898  0.5694 -2.2252
10135TIP3    H251897   0.676   2.524   3.527  1.8174 -1.0826  1.4066
10136TIP3   OH251898   6.211   0.392   0.078 -0.5931 -0.0200  0.8187
10136TIP3    H151899   6.298   0.416   0.110 -0.5299  2.0600 -0.7209
10136TIP3    H251900   6.199   0.302   0.107  2.2947 -0.5499  0.6229
10137TIP3   OH251901   0.614   0.353  15.310  0.0975 -0.2959 -0.0975
10137TIP3    H151902   0.651   0.296  15.378 -0.2811 -0.8739 -0.3686
10137TIP3    H251903   0.623   0.303  15.229  0.1679  0.2178 -0.4141
10138TIP3   OH251904   6.404   1.701   1.523  0.2262  0.3190  0.0454
10138TIP3    H151905   6.477   1.678   1.581 -1.9776 -2.8868  1.9076
10138TIP3    H251906   6.334   1.728   1.582 -0.9677  0.5444 -1.4160
10139TIP3   OH251907   2.935   1.408  11.806 -0.1486  0.1024  0.0299
10139TIP3    H151908   3.021   1.448  11.814  0.4586 -0.8621 -1.4780
10139TIP3    H251909   2.901   1.439  11.722 -1.3436  0.5630  0.6523
10140TIP3   OH251910   3.333   0.298  16.356 -0.2005 -0.0239 -0.0173
10140TIP3    H151911   3.363   0.377  16.312 -1.2764 -0.1954 -1.0994
10140TIP3    H251912   3.257   0.270  16.306  1.1987 -2.7734 -0.7786
10141TIP3   OH251913   6.718   5.262   5.791  0.1061 -0.1664  0.6216
10141TIP3    H151914   6.750   5.220   5.711  1.5337 -1.0565  1.6084
10141TIP3    H251915   6.623   5.267   5.780  0.2942 -0.0677 -1.2046
10142TIP3   OH251916   5.873   4.117  15.461 -0.8332  0.2476 -0.7030
10142TIP3    H151917   5.810   4.104  15.391 -0.6767 -1.2724 -0.5969
10142TIP3    H251918   5.822   4.152  15.534 -1.3144  0.1767 -1.0049
10143TIP3   OH251919   5.546   0.637  15.375 -0.5802 -0.3497  0.5710
10143TIP3    H151920   5.630   0.619  15.417 -1.4530 -1.8439  1.7530
10143TIP3    H251921   5.526   0.727  15.400  0.3200 -0.2146  0.8643
10144TIP3   OH251922   0.232   4.928  16.365  0.1262 -0.7453 -0.2582
10144TIP3    H151923   0.234   4.988  16.292  1.2797 -0.1747  0.2233
10144TIP3    H251924   0.275   4.974  16.437 -0.9946 -1.2683  0.8112
10145TIP3   OH251925   3.163   1.122   3.374 -0.5475  0.3690 -0.1850
10145TIP3    H151926   3.153   1.136   3.280  0.9416  1.2654 -0.2433
10145TIP3    H251927   3.087   1.070   3.399 -2.8619  3.0131 -1.2303
10146TIP3   OH251928   0.098   5.204   3.244 -0.8486 -0.8372 -0.3578
10146TIP3    H151929   0.024   5.197   3.305  0.6874  0.6597  1.8178
10146TIP3    H251930   0.146   5.122   3.256 -0.0970 -0.2142  1.1707
10147TIP3   OH251931   6.233   3.293  14.733  0.5255 -0.0608 -0.2516
10147TIP3    H151932   6.258   3.341  14.654 -0.9598  0.0585 -0.6813
10147TIP3    H251933   6.171   3.350  14.778  0.8767 -0.3986  0.6822
10148TIP3   OH251934   2.187   5.796  14.661 -0.5057  0.4001 -0.1228
10148TIP3    H151935   2.111   5.739  14.675  0.2774 -0.9783 -1.2878
10148TIP3    H251936   2.249   5.770  14.729 -1.2244  1.9182  1.1957
10149TIP3   OH251937   3.930   4.457   2.100  0.0306 -0.0980  0.1952
10149TIP3    H151938   3.902   4.368   2.124 -0.1635 -0.4756 -1.2890
10149TIP3    H251939   3.859   4.489   2.044  1.2422  0.0026 -1.3518
10150TIP3   OH251940   4.022   2.544  12.156  0.1922 -0.1933  0.3788
10150TIP3    H151941   4.050   2.453  12.147 -1.0162 -0.5697  0.2578
10150TIP3    H251942   4.004   2.572  12.066  0.8849  0.2850  0.3815
10151TIP3   OH251943   5.227   6.389   5.459 -0.0881 -0.6700 -0.1793
10151TIP3    H151944   5.185   6.469   5.428  1.1141 -0.5690 -1.7021
10151TIP3    H251945   5.180   6.318   5.416 -0.5851 -0.7280  0.4613
10152TIP3   OH251946   2.913   5.572   2.361 -0.0740  0.0631  0.1652
10152TIP3    H151947   2.920   5.551   2.454 -1.3471 -1.1345  0.0198
10152TIP3    H251948   2.819   5.581   2.345 -0.0170 -1.5270 -1.3441
10153TIP3   OH251949   4.509   4.320  11.117 -0.4460  0.5565  0.0493
10153TIP3    H151950   4.500   4.260  11.043 -1.2460  1.3248 -0.4985
10153TIP3    H251951   4.550   4.398  11.080  1.1772  0.1397  0.8824
10154TIP3   OH251952   6.063   4.876  11.857  0.5202 -0.3542  0.7400
10154TIP3    H151953   6.043   4.886  11.764  1.6368  0.5409  0.5669
10154TIP3    H251954   5.999   4.813  11.889 -1.0397  0.6719 -0.2289
10155TIP3   OH251955   0.320   1.593  14.148 -0.2932  0.9470  0.4684
10155TIP3    H151956   0.258   1.549  14.091  2.3719 -1.8076 -0.5438
10155TIP3    H251957   0.296   1.686  14.143 -3.0510  0.2425 -1.3373
10156TIP3   OH251958   3.105   1.758   4.557 -0.1358  0.1033  0.1217
10156TIP3    H151959   3.152   1.815   4.617 -0.1832  1.2589 -0.9012
10156TIP3    H251960   3.172   1.699   4.523  0.2871  0.7529 -0.1878
10157TIP3   OH251961   4.869   5.910  14.422 -0.0110 -0.1819 -1.1659
10157TIP3    H151962   4.853   5.839  14.485 -1.2358  2.8831  2.3356
10157TIP3    H251963   4.821   5.883  14.344 -0.4416 -3.1545 -0.0356
10158TIP3   OH251964   6.060   5.010   0.995 -0.4386  0.3408  0.9929
10158TIP3    H151965   6.065   4.977   0.905  1.1797 -0.4575  1.3477
10158TIP3    H251966   6.133   5.071   1.003 -0.1741 -0.0777  1.9526
10159TIP3   OH251967   6.399   0.608  13.719  0.2101  0.2099 -0.1607
10159TIP3    H151968   6.436   0.546  13.656  0.4029  1.0498 -0.8963
10159TIP3    H251969   6.472   0.666  13.741 -0.0021  0.2603  0.4091
10160TIP3   OH251970   5.686   4.873   5.402  0.1858 -0.3343  0.3177
10160TIP3    H151971   5.722   4.795   5.444 -3.9854 -2.4135  0.6076
10160TIP3    H251972   5.656   4.928   5.474  0.7117  0.3019  0.0690
10161TIP3   OH251973   4.720   3.534  13.213  0.2698  0.2518  0.0982
10161TIP3    H151974   4.787   3.518  13.147 -0.2537 -0.4715 -0.2854
10161TIP3    H251975   4.767   3.545  13.295  0.8100 -1.8568  0.1377
10162TIP3   OH251976   0.400   0.463   1.743  0.0470 -0.1053 -0.0349
10162TIP3    H151977   0.383   0.455   1.837 -0.7541 -0.2489 -0.1813
10162TIP3    H251978   0.480   0.414   1.728 -0.1966 -0.6601  0.4631
10163TIP3   OH251979   5.458   6.232   3.786 -0.1755 -0.3488  0.5674
10163TIP3    H151980   5.527   6.190   3.734 -0.3582 -0.1571  0.1610
10163TIP3    H251981   5.447   6.175   3.862  2.6004  1.2305  2.2822
10164TIP3   OH251982   5.057   4.646  15.737  0.2886  0.1163 -0.1975
10164TIP3    H151983   5.145   4.610  15.746  0.7303  1.1662 -0.2084
10164TIP3    H251984   5.014   4.624  15.819  0.3065 -1.0478 -0.4826
10165TIP3   OH251985   6.275   6.442  11.216  0.9134 -0.4403  0.9665
10165TIP3    H151986   6.353   6.419  11.165  0.1134  0.1959 -0.6215
10165TIP3    H251987   6.269   6.537  11.209  0.2086 -0.4493  1.3919
10166TIP3   OH251988   3.138   5.315   5.388 -0.2391 -0.4510  0.0489
10166TIP3    H151989   3.100   5.372   5.455  1.8354  0.8607  0.1896
10166TIP3    H251990   3.104   5.350   5.305  0.9565  1.0277  0.1378
10167TIP3   OH251991   4.371   3.677  11.245  0.2935 -0.4391  0.0859
10167TIP3    H151992   4.358   3.762  11.204 -1.1333 -0.4887  0.3860
10167TIP3    H251993   4.325   3.683  11.329 -2.3380 -2.3737 -1.0705
10168TIP3   OH251994   6.785   4.467  15.458  0.2086 -0.1186  0.1976
10168TIP3    H151995   6.866   4.487  15.412  0.5371  0.0429  0.8309
10168TIP3    H251996   6.764   4.548  15.505 -1.2069  0.4055 -1.2376
10169TIP3   OH251997   3.504   0.669  12.180  0.2124 -0.2125 -0.5215
10169TIP3    H151998   3.456   0.675  12.097  0.4807  1.5175 -0.6045
10169TIP3    H251999   3.443   0.628  12.240 -0.3235 -0.6540 -1.3484
10170TIP3   OH252000   2.424   5.586  13.421 -0.0030 -0.3359 -0.3274
10170TIP3    H152001   2.425   5.592  13.326 -1.1481 -0.0437 -0.3375
10170TIP3    H252002   2.346   5.534  13.441  2.0007 -3.3324  0.3426
10171TIP3   OH252003   0.209   2.736  15.663  0.3851 -0.0916  0.1064
10171TIP3    H152004   0.242   2.774  15.582 -0.6720 -1.0735 -0.8206
10171TIP3    H252005   0.231   2.643  15.655 -0.3678 -0.3171  0.6120
10172TIP3   OH252006   1.475   2.609   0.083 -0.3537 -0.3493  0.5004
10172TIP3    H152007   1.443   2.639  -0.002 -0.2793  1.8087  1.1655
10172TIP3    H252008   1.508   2.521   0.066 -2.4574 -0.9129 -1.1816
10173TIP3   OH252009   6.697   5.028   5.996  0.3126  0.1380 -0.1640
10173TIP3    H152010   6.759   5.061   6.061 -0.0438  4.3894 -1.6553
10173TIP3    H252011   6.752   4.980   5.934  1.5312  0.6617  0.4674
10174TIP3   OH252012   2.565   2.418  15.903  0.3310 -0.1020 -0.3347
10174TIP3    H152013   2.474   2.390  15.891  0.6430 -1.6181  0.5098
10174TIP3    H252014   2.615   2.336  15.907  1.8169  0.7058 -1.2673
10175TIP3   OH252015   6.810   4.354  13.886  0.3998  0.5816  0.6794
10175TIP3    H152016   6.832   4.326  13.797  0.5632 -0.2070  0.9654
10175TIP3    H252017   6.760   4.435  13.873 -0.8785 -0.3215 -0.1805
10176TIP3   OH252018   1.360   0.076   3.849  0.1615 -0.1445  0.1977
10176TIP3    H152019   1.414   0.117   3.917  0.0330 -1.3650  1.0781
10176TIP3    H252020   1.270   0.087   3.881  0.1204 -1.0156  0.4260
10177TIP3   OH252021   4.850   1.178   4.028  0.4081 -0.3758  0.1464
10177TIP3    H152022   4.765   1.177   3.983  0.7650 -2.0477 -0.5692
10177TIP3    H252023   4.897   1.251   3.986 -1.5027  2.3637  2.3586
10178TIP3   OH252024   6.483   1.138   3.814  0.1300 -0.0428  0.1611
10178TIP3    H152025   6.538   1.123   3.891 -0.0391  0.0289  0.2972
10178TIP3    H252026   6.518   1.078   3.748 -1.3529 -2.1070  1.1067
10179TIP3   OH252027   1.448   3.228   5.586  0.3695 -0.2733 -0.3205
10179TIP3    H152028   1.446   3.174   5.665 -0.4739 -2.8598 -1.9738
10179TIP3    H252029   1.511   3.185   5.529  1.3589  1.8519 -0.9245
10180TIP3   OH252030   1.667   0.043  11.691  0.5891 -0.2213  0.1609
10180TIP3    H152031   1.608   0.002  11.754  1.3921 -0.2430  0.9333
10180TIP3    H252032   1.610   0.077  11.623 -0.1131 -2.5193 -0.4813
10181TIP3   OH252033   2.561   4.522  14.334 -0.0495 -0.2055 -0.6235
10181TIP3    H152034   2.557   4.444  14.390 -0.8174  0.2696 -0.0106
10181TIP3    H252035   2.619   4.582  14.380  1.5799 -0.8640 -1.7049
10182TIP3   OH252036   3.416   4.575   4.063  0.0958 -0.4322  0.2703
10182TIP3    H152037   3.404   4.578   4.158  1.3573 -0.8422  0.4683
10182TIP3    H252038   3.424   4.482   4.043  1.0149 -0.2973 -0.0544
10183TIP3   OH252039   3.223   1.931  11.850 -0.0293 -0.1639  0.0063
10183TIP3    H152040   3.163   1.937  11.925  1.8074  1.0538  1.4981
10183TIP3    H252041   3.234   2.021  11.821  0.9061 -0.3704 -0.3327
10184TIP3   OH252042   3.044   3.358   4.895 -0.4153  0.3353  0.5322
10184TIP3    H152043   2.978   3.368   4.827 -0.5018  2.0370  0.8260
10184TIP3    H252044   2.999   3.381   4.976  0.0048 -0.4958  1.0146
10185TIP3   OH252045   3.190   6.447  11.222  0.3432  0.1205 -0.2890
10185TIP3    H152046   3.122   6.478  11.163  0.1261  0.1637 -0.0179
10185TIP3    H252047   3.219   6.364  11.183  1.8414  1.2689 -1.7284
10186TIP3   OH252048   3.875   4.202  16.954 -0.5574  0.5724 -0.2297
10186TIP3    H152049   3.854   4.173  16.865 -0.4301 -1.0312  0.2354
10186TIP3    H252050   3.961   4.243  16.945 -1.3064  2.0301 -1.1302
10187TIP3   OH252051   6.105   5.795  14.838 -0.4390 -0.0228  0.4614
10187TIP3    H152052   6.139   5.811  14.925  0.4088  2.0601 -0.1991
10187TIP3    H252053   6.107   5.880  14.794 -0.2394 -1.1010 -1.8100
10188TIP3   OH252054   6.241   4.470   5.839  0.3939  0.3143  0.8156
10188TIP3    H152055   6.320   4.510   5.802  0.2398 -0.7649 -0.7737
10188TIP3    H252056   6.180   4.464   5.766 -0.5991 -0.2622  1.6642
10189TIP3   OH252057   1.052   4.453  11.874 -0.0371  0.1942 -0.2600
10189TIP3    H152058   1.040   4.414  11.960  0.4041 -0.4835 -0.4979
10189TIP3    H252059   1.143   4.432  11.850 -0.3788 -0.2910 -1.2022
10190TIP3   OH252060   5.119   4.244  13.472  0.3586  0.0378 -0.2358
10190TIP3    H152061   5.070   4.315  13.429 -0.1186 -0.5576 -0.6947
10190TIP3    H252062   5.057   4.208  13.536  0.7857  0.3809  0.3795
10191TIP3   OH252063   3.588   1.065   4.358 -0.0527  0.4843 -0.3371
10191TIP3    H152064   3.674   1.058   4.318  0.7304  2.1962  0.8900
10191TIP3    H252065   3.526   1.038   4.290  1.4811 -2.4451 -0.7183
10192TIP3   OH252066   6.573   6.705   0.048  0.2191  0.3218 -0.4054
10192TIP3    H152067   6.633   6.778   0.060 -1.1847  1.4406  0.1203
10192TIP3    H252068   6.591   6.647   0.122 -1.0550  1.9271  1.2732
10193TIP3   OH252069   3.941   0.854  17.013  0.2737 -0.0633  0.1951
10193TIP3    H152070   3.882   0.865  16.938  0.7619  0.8218 -0.0831
10193TIP3    H252071   3.900   0.906  17.083  0.7340  0.6049 -0.0181
10194TIP3   OH252072   5.611   2.795   4.357  0.0261  0.1070 -0.0039
10194TIP3    H152073   5.658   2.861   4.307  0.5896  0.5485  1.0826
10194TIP3    H252074   5.589   2.727   4.293  1.8883  0.0174 -0.5956
10195TIP3   OH252075   0.493   0.007   2.968 -0.4007  0.1080  0.2112
10195TIP3    H152076   0.557  -0.030   2.907 -0.7560  3.3106 -2.3613
10195TIP3    H252077   0.409  -0.026   2.938 -0.3833 -0.3958  0.6859
10196TIP3   OH252078   1.491   1.664  12.486 -0.2680  0.1748  0.2412
10196TIP3    H152079   1.465   1.712  12.564 -0.7849  1.7887 -0.8791
10196TIP3    H252080   1.493   1.572  12.514 -1.3878  0.6033  1.8740
10197TIP3   OH252081   6.349   6.486  13.175  0.0514 -0.0763  0.1128
10197TIP3    H152082   6.272   6.508  13.228 -0.0145  1.1530 -0.4690
10197TIP3    H252083   6.342   6.541  13.098  0.6492 -1.1687 -0.7554
10198TIP3   OH252084   1.417   5.919  11.182 -0.9163  0.4679  0.2444
10198TIP3    H152085   1.373   5.896  11.100 -1.7869  1.3894  0.4316
10198TIP3    H252086   1.397   6.012  11.195 -2.4468 -0.0997  2.5001
10199TIP3   OH252087   3.038   6.402  17.063  0.3953  0.2102  0.1274
10199TIP3    H152088   3.109   6.456  17.098  1.1148 -0.6306  0.0058
10199TIP3    H252089   3.065   6.382  16.973  0.5935 -1.0897  0.4564
10200TIP3   OH252090   2.830   6.715  11.770 -0.5010  0.6406 -0.0217
10200TIP3    H152091   2.741   6.747  11.789 -0.5685  0.3789  0.0940
10200TIP3    H252092   2.887   6.770  11.823 -0.4779  1.7734 -1.1555
10201TIP3   OH252093   1.300   2.678   4.465  0.4916 -0.2931  0.1352
10201TIP3    H152094   1.281   2.762   4.424 -1.2839 -1.1639 -0.9594
10201TIP3    H252095   1.216   2.631   4.465  1.7200 -2.6931 -0.7529
10202TIP3   OH252096   0.897   4.177  16.688  0.1976 -0.4871 -0.2656
10202TIP3    H152097   0.909   4.163  16.782 -1.6736  1.7735  0.3807
10202TIP3    H252098   0.959   4.247  16.667  0.8295 -1.1945 -0.8378
10203TIP3   OH252099   5.896   2.636   1.790 -0.6784  1.0580  0.0889
10203TIP3    H152100   5.959   2.628   1.862 -0.4884  1.0636 -0.0757
10203TIP3    H252101   5.916   2.721   1.751  1.3109 -0.2221 -1.9296
10204TIP3   OH252102   2.203   1.763  12.029 -0.1854 -0.3252  0.0557
10204TIP3    H152103   2.159   1.845  12.053  0.0151 -0.0601 -0.4682
10204TIP3    H252104   2.173   1.700  12.094 -1.9092 -0.3321 -0.6778
10205TIP3   OH252105   2.314   6.470  15.973  0.5432  0.1115  0.7908
10205TIP3    H152106   2.345   6.534  15.908 -1.0164 -0.2722 -0.4039
10205TIP3    H252107   2.320   6.516  16.056  1.7560  0.9468  0.2778
10206TIP3   OH252108   0.194   1.871   4.188  0.1898  0.0806 -0.1821
10206TIP3    H152109   0.108   1.833   4.207  0.5349 -0.6111  0.0376
10206TIP3    H252110   0.205   1.856   4.094  1.6289 -3.2437  0.3801
10207TIP3   OH252111   4.788   5.819   4.506 -0.6545  0.3021 -0.7034
10207TIP3    H152112   4.844   5.878   4.457  0.1731 -0.2484 -0.4478
10207TIP3    H252113   4.703   5.863   4.510  0.3076  2.1592  0.7534
10208TIP3   OH252114   1.475   5.710  16.073  0.6660 -0.2700 -0.1271
10208TIP3    H152115   1.424   5.642  16.028  1.6715 -1.1496  0.0057
10208TIP3    H252116   1.517   5.663  16.145 -0.9856  1.1165  1.8399
10209TIP3   OH252117   6.516   6.346  11.103 -0.3526 -0.9879 -0.5455
10209TIP3    H152118   6.556   6.359  11.189  0.4528  0.0353 -1.0523
10209TIP3    H252119   6.579   6.291  11.056  1.1891  1.6007 -1.7570
10210TIP3   OH252120   1.377   2.273   2.411  0.0566 -0.4010 -0.6248
10210TIP3    H152121   1.357   2.340   2.345  2.2206  0.8018 -0.1604
10210TIP3    H252122   1.443   2.218   2.369  1.4336  0.3573  0.4769
10211TIP3   OH252123   0.022   1.561  13.743  0.2764  0.0165  0.3994
10211TIP3    H152124  -0.061   1.529  13.709  0.8193  0.5127 -1.5081
10211TIP3    H252125   0.065   1.483  13.780 -0.6051 -0.4170  0.5384
10212TIP3   OH252126   4.809   5.832  16.809  0.3728 -0.4592  0.1330
10212TIP3    H152127   4.778   5.858  16.896  1.3643  1.2750  0.0253
10212TIP3    H252128   4.741   5.863  16.749  0.7257  0.3736  0.1455
10213TIP3   OH252129   1.827   0.413   2.301 -0.7091 -0.4288 -0.5628
10213TIP3    H152130   1.843   0.452   2.215  0.7225  1.1641  0.3645
10213TIP3    H252131   1.855   0.322   2.292  4.3865  0.8651 -0.5611
10214TIP3   OH252132   6.425   4.031  10.703  0.4512  0.5835 -0.6015
10214TIP3    H152133   6.343   3.986  10.724  0.6210 -0.0204 -1.1995
10214TIP3    H252134   6.400   4.120  10.682 -0.2966 -0.0492 -2.6011
10215TIP3   OH252135   3.281   4.428   4.803  0.2303 -0.2813 -0.2122
10215TIP3    H152136   3.205   4.374   4.783 -1.0338  1.3624 -0.0643
10215TIP3    H252137   3.248   4.518   4.803  2.3288  0.5622 -0.8781
10216TIP3   OH252138   1.936   5.314   1.885 -0.3988 -0.3358  0.0541
10216TIP3    H152139   1.842   5.328   1.873 -0.3269  1.2027  0.9285
10216TIP3    H252140   1.973   5.321   1.797 -0.8629  1.3771 -0.0382
10217TIP3   OH252141   4.888   1.080   5.648  0.4323  1.2314 -0.5910
10217TIP3    H152142   4.800   1.054   5.621 -0.0460 -0.4091  2.1566
10217TIP3    H252143   4.943   1.004   5.631  0.9186  1.5702 -0.5617
10218TIP3   OH252144   2.065   5.305   1.626  0.1925  0.4616 -0.4836
10218TIP3    H152145   2.104   5.317   1.539 -1.3691  0.7096 -1.1737
10218TIP3    H252146   2.093   5.218   1.653  0.2575  0.1666 -1.4630
10219TIP3   OH252147   5.025   4.965   3.203  0.2454 -0.6181  0.3955
10219TIP3    H152148   5.106   4.914   3.207  0.1133 -1.1753 -2.3385
10219TIP3    H252149   4.959   4.904   3.170 -0.0187  1.1073 -2.6138
10220TIP3   OH252150   5.625   5.410  12.829 -1.0513 -0.8889 -0.5210
10220TIP3    H152151   5.708   5.362  12.826  0.0812  0.8339  0.9341
10220TIP3    H252152   5.581   5.387  12.747  0.9612 -1.6825 -1.4559
10221TIP3   OH252153   1.892   0.091   3.931  0.2395 -0.2105  0.2844
10221TIP3    H152154   1.857   0.006   3.957 -0.1614  0.2772  1.4312
10221TIP3    H252155   1.854   0.108   3.845 -1.3541 -0.2558  0.9461
10222TIP3   OH252156   3.255   1.869  16.931 -0.0969  0.1634 -0.0773
10222TIP3    H152157   3.295   1.817  17.001  0.4423  2.2470  1.2615
10222TIP3    H252158   3.328   1.892  16.874 -0.0892  0.5530  0.0861
10223TIP3   OH252159   1.258   0.883  16.781 -0.0638 -0.1954  0.4989
10223TIP3    H152160   1.255   0.823  16.707 -0.6558  1.0317 -0.5089
10223TIP3    H252161   1.351   0.904  16.791 -0.1791  1.7599 -1.7275
10224TIP3   OH252162   3.610   0.846   1.936 -1.0805 -0.5443 -0.1238
10224TIP3    H152163   3.601   0.819   2.027  1.0943  1.1189  0.6767
10224TIP3    H252164   3.676   0.787   1.899  1.0264  1.1946  0.6177
10225TIP3   OH252165   6.611   2.153   4.971  0.3068  0.1199 -0.5053
10225TIP3    H152166   6.521   2.132   4.997  0.5075 -0.7765 -0.4862
10225TIP3    H252167   6.617   2.127   4.879 -0.3078  2.9996 -1.4406
10226TIP3   OH252168   2.835   0.628   4.440  0.5834  0.1838 -0.1811
10226TIP3    H152169   2.823   0.674   4.523  0.3854  1.0591 -0.6884
10226TIP3    H252170   2.749   0.631   4.398  0.1320 -2.0181  0.4430
10227TIP3   OH252171   6.712   0.437  16.526 -0.0302 -0.1140  0.1458
10227TIP3    H152172   6.794   0.467  16.567  0.6947 -0.5253 -0.9597
10227TIP3    H252173   6.654   0.512  16.531  0.9925  0.7503 -0.5504
10228TIP3   OH252174   2.625   1.015  10.914  0.1652 -0.5045  0.2475
10228TIP3    H152175   2.664   1.099  10.888 -1.0002 -0.3059 -0.9967
10228TIP3    H252176   2.549   1.039  10.967 -0.4871 -0.7461 -0.5670
10229TIP3   OH252177   4.315   2.726   3.886  1.0344  0.0077  0.3448
10229TIP3    H152178   4.388   2.752   3.830  0.4528  1.8934  0.4260
10229TIP3    H252179   4.333   2.769   3.970 -0.9215  1.7568 -0.0867
10230TIP3   OH252180   6.389   0.765   2.462 -0.0377 -0.6829 -0.5522
10230TIP3    H152181   6.353   0.751   2.549  0.2736  0.3990 -0.2287
10230TIP3    H252182   6.370   0.684   2.414 -0.4980 -1.1598  0.4148
10231TIP3   OH252183   6.376   3.790   6.072 -0.3828  0.2475  0.1390
10231TIP3    H152184   6.380   3.881   6.100  1.9228  0.2801 -0.1076
10231TIP3    H252185   6.412   3.790   5.983 -0.2961 -0.9143  0.1566
10232TIP3   OH252186   5.091   4.881  16.521  0.2029  0.0429 -0.1384
10232TIP3    H152187   5.035   4.956  16.540  1.1130  0.4874  0.8660
10232TIP3    H252188   5.094   4.831  16.603 -1.5336 -1.9133 -1.1581
10233TIP3   OH252189   2.526   3.282  14.763  0.6498  0.6386  0.3809
10233TIP3    H152190   2.491   3.370  14.743  2.1995  1.0091 -0.9054
10233TIP3    H252191   2.617   3.286  14.735  0.1206 -2.1704 -2.2136
10234TIP3   OH252192   0.306   0.553  12.609  0.3891 -0.3441  0.2808
10234TIP3    H152193   0.368   0.596  12.668  2.7568 -2.3611 -0.5573
10234TIP3    H252194   0.327   0.460  12.616 -0.3680 -0.8013 -2.4810
10235TIP3   OH252195   4.205   0.209  11.630 -0.2685  0.2296 -0.3581
10235TIP3    H152196   4.161   0.190  11.547 -1.8185  0.2984  0.4184
10235TIP3    H252197   4.143   0.264  11.678 -0.2216 -1.3636  1.6166
10236TIP3   OH252198   5.548   6.588   4.261  0.0186  0.4155  0.4742
10236TIP3    H152199   5.566   6.676   4.294  0.1951  0.1816  1.0225
10236TIP3    H252200   5.569   6.531   4.335  0.9934 -0.1692 -0.2387
10237TIP3   OH252201   0.184   1.908   0.603 -0.3439  0.0031  0.4230
10237TIP3    H152202   0.089   1.902   0.599 -0.3420  0.4214 -1.9270
10237TIP3    H252203   0.203   1.954   0.685 -2.0444 -1.3759  1.6610
10238TIP3   OH252204   1.158   2.043  13.052 -0.1496 -0.2104 -0.3822
10238TIP3    H152205   1.224   2.070  13.116  0.5065 -1.9631 -0.2622
10238TIP3    H252206   1.092   1.997  13.104 -1.3521  1.2305 -0.5501
10239TIP3   OH252207   0.056   3.943  12.173 -0.2136  0.2928 -0.4454
10239TIP3    H152208  -0.005   3.875  12.142  0.4096  0.1051 -1.3007
10239TIP3    H252209   0.142   3.904  12.162  0.0737  0.6068  0.6410
10240TIP3   OH252210   0.620   0.356   2.190  0.2636  0.0769  0.2548
10240TIP3    H152211   0.675   0.433   2.203 -0.7378  1.4624 -2.6631
10240TIP3    H252212   0.674   0.297   2.137  0.0817 -0.0004  0.1553
10241TIP3   OH252213   6.718   2.448  17.289  0.2192 -0.6113 -0.3081
10241TIP3    H152214   6.680   2.506  17.355 -0.7088 -1.0333 -0.4531
10241TIP3    H252215   6.795   2.410  17.332 -0.7004 -1.3203  0.7519
10242TIP3   OH252216   4.854   4.915  13.163 -0.4624 -0.0687 -0.0277
10242TIP3    H152217   4.803   4.996  13.170 -1.5573 -0.7424  0.1389
10242TIP3    H252218   4.885   4.898  13.252 -1.7650 -0.7519  0.3370
10243TIP3   OH252219   0.563   0.239  14.310 -0.2660 -0.3268 -0.0948
10243TIP3    H152220   0.616   0.276  14.380 -1.1020 -0.1559  0.4678
10243TIP3    H252221   0.473   0.247  14.341 -0.6540 -0.2914 -1.1722
10244TIP3   OH252222   2.719   2.938  11.955  0.5608  0.1587  0.3015
10244TIP3    H152223   2.658   2.892  12.012  1.3233 -1.0438  0.1674
10244TIP3    H252224   2.689   2.919  11.866  0.5626  0.3793  0.2513
10245TIP3   OH252225   5.359   0.967   0.907 -0.5956  0.9609 -0.1628
10245TIP3    H152226   5.299   0.921   0.848 -1.4702 -1.1423  2.1779
10245TIP3    H252227   5.304   0.995   0.980  0.8426  1.1712  0.8854
10246TIP3   OH252228   0.911   1.896  14.512 -0.3762  0.0421  0.2462
10246TIP3    H152229   0.993   1.856  14.540  0.5924  0.4226 -1.8269
10246TIP3    H252230   0.895   1.966  14.576 -0.0438 -1.1459  1.6745
10247TIP3   OH252231   3.992   3.116   0.555  0.8717 -0.2475  0.9146
10247TIP3    H152232   4.019   3.043   0.500 -0.7170  0.1995 -0.5490
10247TIP3    H252233   3.981   3.078   0.642  0.6603 -1.6253  0.3130
10248TIP3   OH252234   6.680   6.288   1.630 -0.0499  0.6101  0.5727
10248TIP3    H152235   6.656   6.313   1.719 -2.2690  0.1025  0.1663
10248TIP3    H252236   6.661   6.195   1.625  1.1910  0.3670 -0.1135
10249TIP3   OH252237   1.971   2.262   1.290  0.0357 -0.0026 -0.1950
10249TIP3    H152238   1.921   2.311   1.354 -1.2511 -0.3720 -0.8742
10249TIP3    H252239   1.993   2.325   1.222  1.0378  0.2921  0.3737
10250TIP3   OH252240   6.768   0.202  12.724 -0.1813 -0.6360  0.2990
10250TIP3    H152241   6.786   0.108  12.718  0.3155 -0.5269 -0.0276
10250TIP3    H252242   6.781   0.223  12.817  0.9925 -0.6553  0.1601
10251TIP3   OH252243   0.621   6.461  15.969  0.3279  0.4122 -0.4254
10251TIP3    H152244   0.580   6.467  15.883  1.0290  1.5486 -0.7011
10251TIP3    H252245   0.597   6.542  16.013 -2.6098 -1.3800  1.6959
10252TIP3   OH252246   0.649   5.247   2.242 -0.5173  0.5794  0.1209
10252TIP3    H152247   0.743   5.227   2.241 -0.8608 -1.2141 -0.2237
10252TIP3    H252248   0.629   5.266   2.333  0.4394  2.4552 -0.0246
10253TIP3   OH252249   1.945   4.642  15.355 -0.7518 -0.3495  0.1565
10253TIP3    H152250   1.882   4.664  15.286 -0.7581  0.4612  0.4038
10253TIP3    H252251   1.951   4.722  15.407  0.8084 -0.2518 -0.1206
10254TIP3   OH252252   5.121   0.395  15.586  0.3014 -0.0156 -0.6091
10254TIP3    H152253   5.177   0.441  15.524  0.5831 -1.0328 -1.1286
10254TIP3    H252254   5.171   0.317  15.611  0.2217  0.3932  0.9534
10255TIP3   OH252255   2.121   2.881   0.457  0.3244  0.1764  0.0248
10255TIP3    H152256   2.081   2.955   0.411 -1.4121 -0.3129  0.6611
10255TIP3    H252257   2.213   2.906   0.466 -0.0582  1.9302 -0.4224
10256TIP3   OH252258   0.384   0.324   5.132  0.1570  0.2260 -0.0823
10256TIP3    H152259   0.332   0.367   5.064 -2.9637 -2.7825  0.1018
10256TIP3    H252260   0.361   0.231   5.123  2.7162 -0.7813  2.5637
10257TIP3   OH252261   2.497   5.161   3.183  0.5443  0.3251 -0.1974
10257TIP3    H152262   2.568   5.121   3.232  0.8295  1.7075  0.5764
10257TIP3    H252263   2.496   5.115   3.099  0.5735 -1.5420  0.7850
10258TIP3   OH252264   4.202   0.818  14.913  0.5074  0.0035  0.4892
10258TIP3    H152265   4.163   0.785  14.994 -1.0866  0.3052 -0.1306
10258TIP3    H252266   4.203   0.742  14.855  0.4908  0.0934  0.3714
10259TIP3   OH252267   0.521   1.901   1.454  0.4312 -0.3382 -0.1371
10259TIP3    H152268   0.489   1.897   1.364 -0.1384  0.4850  0.0118
10259TIP3    H252269   0.583   1.829   1.461  2.1154  0.8479 -1.8088
10260TIP3   OH252270   3.512   6.077   0.683 -0.4386  1.0614 -0.4685
10260TIP3    H152271   3.437   6.046   0.734  1.6422  0.5361  2.5468
10260TIP3    H252272   3.544   5.999   0.638 -0.1039  0.6328  0.4792
10261TIP3   OH252273   6.270   4.758   5.526  0.0109  0.1329  0.4873
10261TIP3    H152274   6.187   4.759   5.478  0.2794 -1.0644 -0.0270
10261TIP3    H252275   6.251   4.804   5.607 -0.9099  0.6814 -0.0254
10262TIP3   OH252276   4.312   4.760   2.310 -0.0737  0.0807 -0.1782
10262TIP3    H152277   4.314   4.841   2.361 -0.3856 -0.6481  1.0349
10262TIP3    H252278   4.223   4.726   2.323  0.2965 -0.8535 -0.0199
10263TIP3   OH252279   3.795   2.156   6.242  0.2594  0.2368  0.3221
10263TIP3    H152280   3.714   2.200   6.267 -0.0368 -0.2069  0.1476
10263TIP3    H252281   3.810   2.092   6.312 -1.4693 -2.1910 -1.3940
10264TIP3   OH252282   6.152   3.590   6.004 -0.8238  0.1209 -0.0751
10264TIP3    H152283   6.087   3.637   6.056 -1.3264 -1.1409  0.4927
10264TIP3    H252284   6.226   3.579   6.064 -1.2167 -0.9126  0.2477
10265TIP3   OH252285   4.227   1.711   1.686  0.4476 -0.1120 -0.0084
10265TIP3    H152286   4.307   1.755   1.656 -0.2963  0.9183 -0.5823
10265TIP3    H252287   4.169   1.714   1.610  0.6047 -2.7988 -0.3002
10266TIP3   OH252288   4.635   5.981  14.667 -0.1766  0.0322  0.1320
10266TIP3    H152289   4.655   5.925  14.742  1.0695  1.0894  0.6308
10266TIP3    H252290   4.717   6.028  14.649  0.0670 -1.2788 -2.8725
10267TIP3   OH252291   3.223   2.127   0.705  0.2697  0.1624  0.0481
10267TIP3    H152292   3.173   2.196   0.660 -1.1925  0.3683  1.8799
10267TIP3    H252293   3.179   2.117   0.789  1.7034 -1.6144  0.6346
10268TIP3   OH252294   1.248   3.410  15.301 -0.0951 -0.0521  0.4218
10268TIP3    H152295   1.342   3.393  15.303 -0.1173 -0.1411  2.5638
10268TIP3    H252296   1.230   3.456  15.383 -1.8365  0.5497 -0.2465
10269TIP3   OH252297   1.811   0.317  14.177 -0.2175 -0.7344 -0.0936
10269TIP3    H152298   1.794   0.349  14.266  0.4659 -0.1625 -0.1533
10269TIP3    H252299   1.860   0.236  14.189  1.2852  0.1673  0.0647
10270TIP3   OH252300   3.683   0.116   0.443  0.3006 -0.4192  0.2516
10270TIP3    H152301   3.662   0.196   0.492 -0.9230 -0.6633  0.1383
10270TIP3    H252302   3.679   0.046   0.508 -0.1580 -0.5922  0.0325
10271TIP3   OH252303   4.975   5.335   5.177  0.4844 -0.2649  0.3693
10271TIP3    H152304   5.061   5.322   5.136  0.3163 -0.7866  0.1664
10271TIP3    H252305   4.965   5.429   5.183  0.4838 -0.1766 -0.8688
10272TIP3   OH252306   0.555   3.664  13.943  0.5312 -0.4201  1.0056
10272TIP3    H152307   0.549   3.701  13.855 -0.0303 -1.8736  0.4005
10272TIP3    H252308   0.624   3.599  13.937  1.7747  0.7379  2.1577
10273TIP3   OH252309   2.166   1.060   2.718 -0.1071  0.1892  0.1918
10273TIP3    H152310   2.260   1.043   2.713 -0.2803 -0.6876 -0.2927
10273TIP3    H252311   2.126   0.986   2.672 -1.0084  0.8740 -0.1516
10274TIP3   OH252312   0.142   3.479   2.548 -0.1507 -0.8254  0.3984
10274TIP3    H152313   0.089   3.536   2.604  0.3949 -0.9382  1.0429
10274TIP3    H252314   0.142   3.395   2.593  0.5233 -0.8428  0.3755
10275TIP3   OH252315   0.444   0.943  16.572  0.1661 -0.3379 -0.3472
10275TIP3    H152316   0.419   0.851  16.568 -1.5409 -0.0392  1.5463
10275TIP3    H252317   0.468   0.966  16.482 -0.1478 -2.4104 -1.0013
10276TIP3   OH252318   1.257   3.930   1.916  0.5288 -0.0228  0.5310
10276TIP3    H152319   1.278   3.838   1.934 -1.3230 -0.4412  0.7253
10276TIP3    H252320   1.221   3.929   1.827  2.3351  0.8544 -0.2605
10277TIP3   OH252321   2.945   1.790  17.026  0.0659  0.2062 -0.6434
10277TIP3    H152322   2.935   1.704  16.984  0.8624 -1.0655  1.5772
10277TIP3    H252323   3.033   1.818  17.002  0.4949 -0.4838  0.0693
10278TIP3   OH252324   0.236   2.446  11.863  0.2077  0.4275  0.4325
10278TIP3    H152325   0.282   2.516  11.909  0.8296  0.2179  0.1318
10278TIP3    H252326   0.145   2.456  11.891  0.3842  1.0038  0.8308
10279TIP3   OH252327   4.948   2.254  12.671  0.2823  0.2735  0.0706
10279TIP3    H152328   4.963   2.165  12.703  0.7541  0.6560  0.9395
10279TIP3    H252329   4.991   2.255  12.585  0.8650 -0.1443  0.3500
10280TIP3   OH252330   0.102   3.806   0.827 -0.2664 -0.2728  0.3426
10280TIP3    H152331   0.165   3.853   0.882 -1.0356  0.7623  0.3816
10280TIP3    H252332   0.156   3.754   0.768  0.6273  0.5250  0.4295
10281TIP3   OH252333   0.443   0.294   5.945  0.1961 -0.1823  0.1115
10281TIP3    H152334   0.394   0.292   5.863  0.0451 -0.5962  0.2104
10281TIP3    H252335   0.422   0.379   5.983 -1.4619 -0.8478  0.7589
10282TIP3   OH252336   2.686   1.863   4.106 -0.3819  0.0813  0.2891
10282TIP3    H152337   2.688   1.939   4.164 -1.2686  1.0658 -0.9284
10282TIP3    H252338   2.740   1.889   4.031 -0.1112 -0.7780  0.1747
10283TIP3   OH252339   0.511   2.703  15.925 -0.2208 -0.2404 -0.5988
10283TIP3    H152340   0.529   2.792  15.894  0.6857  0.7456  2.3674
10283TIP3    H252341   0.418   2.689  15.906  0.0350  0.5743 -2.7296
10284TIP3   OH252342   3.777   2.415  16.429 -0.1135 -0.2703  0.2525
10284TIP3    H152343   3.711   2.410  16.360  1.0360  0.1777 -0.9286
10284TIP3    H252344   3.796   2.509  16.438  0.3263 -0.3894  0.6085
10285TIP3   OH252345   5.197   2.407  13.760 -0.2838  0.6250 -0.3293
10285TIP3    H152346   5.267   2.365  13.710 -1.2199 -0.6195 -0.6662
10285TIP3    H252347   5.121   2.403  13.701 -1.4825 -1.0873  1.2074
10286TIP3   OH252348   5.786   2.109   3.999 -0.3303 -0.0714 -0.0808
10286TIP3    H152349   5.868   2.077   4.035 -0.0727  1.1015  0.4229
10286TIP3    H252350   5.785   2.202   4.019 -3.4366 -0.6005  3.1931
10287TIP3   OH252351   4.053   0.401   6.143  0.1095 -0.4524 -0.8025
10287TIP3    H152352   3.966   0.360   6.151  0.2408 -0.8139 -1.1690
10287TIP3    H252353   4.036   0.495   6.150 -0.2119 -0.5602 -0.0531
10288TIP3   OH252354   0.217   1.616   3.121  0.7039 -0.0334 -0.0048
10288TIP3    H152355   0.233   1.710   3.117 -1.6162  0.6195  2.5428
10288TIP3    H252356   0.132   1.604   3.079  0.1416 -0.6679  1.2560
10289TIP3   OH252357   3.847   6.683  11.197  0.0895  0.4039 -1.1695
10289TIP3    H152358   3.870   6.597  11.162 -0.1910 -0.0605 -0.2336
10289TIP3    H252359   3.900   6.745  11.146  1.8601 -0.4754 -0.4696
10290TIP3   OH252360   0.069   1.564  14.879  0.0601  0.0670  0.7020
10290TIP3    H152361   0.054   1.640  14.822  1.3713 -0.1700 -0.0045
10290TIP3    H252362   0.023   1.493  14.835 -2.6307  0.7234  2.2421
10291TIP3   OH252363   1.785   1.751  14.346  0.1107  0.0546  0.1812
10291TIP3    H152364   1.706   1.716  14.304 -0.1794  1.1266 -0.1947
10291TIP3    H252365   1.846   1.677  14.348  0.0196 -0.1163 -1.8444
10292TIP3   OH252366   6.179   1.038  10.874 -0.3146  0.1004  0.2719
10292TIP3    H152367   6.140   1.115  10.915 -0.8835  0.3836 -0.7555
10292TIP3    H252368   6.179   1.059  10.780 -0.7011 -1.2453 -0.0473
10293TIP3   OH252369   6.439   0.774  11.108 -0.0200 -0.5230  0.7346
10293TIP3    H152370   6.516   0.719  11.115  0.7797  0.4048 -0.4345
10293TIP3    H252371   6.389   0.737  11.035 -0.5010 -0.8636  1.2177
10294TIP3   OH252372   0.115   4.509  17.260 -0.1063  0.1971 -0.3726
10294TIP3    H152373   0.101   4.530  17.353 -0.4917 -1.0927 -0.1197
10294TIP3    H252374   0.105   4.414  17.255  1.5385  0.0341 -1.4644
10295TIP3   OH252375   4.201   4.299   3.552 -0.1193  0.2063  0.5107
10295TIP3    H152376   4.194   4.394   3.557  2.4559  0.4059  1.4261
10295TIP3    H252377   4.179   4.279   3.461 -0.9391  1.6240  0.3620
10296TIP3   OH252378   4.199   4.523  16.293  0.2357 -0.1700  0.4181
10296TIP3    H152379   4.203   4.614  16.265 -0.7188 -0.7307 -1.7975
10296TIP3    H252380   4.107   4.498  16.281  0.5165 -1.4620  0.7993
10297TIP3   OH252381   4.514   6.217  13.453 -0.6091  0.1753  0.1959
10297TIP3    H152382   4.547   6.175  13.374  0.2296 -1.9400  1.5795
10297TIP3    H252383   4.420   6.231  13.436 -0.7016 -1.3744 -0.7178
10298TIP3   OH252384   6.510   2.281  13.028 -0.4300 -0.2318 -0.6328
10298TIP3    H152385   6.567   2.282  13.105 -0.5800 -0.1070 -0.5218
10298TIP3    H252386   6.516   2.192  12.995 -0.2507 -0.2468 -0.5613
10299TIP3   OH252387   0.971   2.445  15.878  0.6414 -0.2569  0.8815
10299TIP3    H152388   0.952   2.504  15.805  1.2443 -1.9547 -0.7193
10299TIP3    H252389   0.902   2.464  15.942  0.0410  1.2127 -0.1350
10300TIP3   OH252390   2.627   5.765  14.357 -0.4356  0.1303  0.0666
10300TIP3    H152391   2.626   5.839  14.296 -0.1776  0.3832  0.3640
10300TIP3    H252392   2.565   5.789  14.425 -0.1469  0.1985  0.3085
10301TIP3   OH252393   5.187   4.012  13.359 -0.0798  0.1742 -0.6552
10301TIP3    H152394   5.152   4.100  13.378  0.3548 -0.2422  2.6750
10301TIP3    H252395   5.111   3.954  13.368  0.2674 -0.1105  0.5322
10302TIP3   OH252396   4.020   0.644  15.397 -0.6282 -0.8185  0.1713
10302TIP3    H152397   3.926   0.661  15.389 -0.6259 -0.3939  0.9751
10302TIP3    H252398   4.041   0.662  15.489 -0.2063 -3.2064  0.5980
10303TIP3   OH252399   5.632   4.896   2.480 -0.1850  0.0222 -0.0295
10303TIP3    H152400   5.618   4.990   2.483  0.0667  0.1067 -1.0963
10303TIP3    H252401   5.699   4.880   2.547  1.6823  0.9917 -1.5604
10304TIP3   OH252402   2.855   5.157   3.468  0.9121  0.0419  0.3925
10304TIP3    H152403   2.942   5.183   3.497  1.0126  0.6891 -0.4518
10304TIP3    H252404   2.797   5.225   3.501  1.0056  0.6957 -0.7433
10305TIP3   OH252405   0.101   2.997   2.480  0.1240 -0.0399  0.3363
10305TIP3    H152406   0.179   2.949   2.508 -1.5189 -1.7549  2.2992
10305TIP3    H252407   0.099   3.075   2.535  0.4440  0.0250  0.2577
10306TIP3   OH252408   6.657   0.512   0.816 -0.1333  0.2323 -0.4008
10306TIP3    H152409   6.726   0.531   0.754 -0.7694  1.3167 -0.8071
10306TIP3    H252410   6.601   0.447   0.773 -0.8862  1.3924 -1.2285
10307TIP3   OH252411   5.597   5.853   5.882  0.6024 -0.1859 -0.0537
10307TIP3    H152412   5.503   5.850   5.897  0.4954 -0.8491 -0.7817
10307TIP3    H252413   5.627   5.931   5.929 -0.3744  0.2742 -0.1740
10308TIP3   OH252414   3.525   3.329  13.734 -0.5633 -0.0213 -0.3673
10308TIP3    H152415   3.611   3.363  13.760  0.7412 -1.5606 -2.3653
10308TIP3    H252416   3.538   3.297  13.645 -3.1932 -0.5124 -0.6524
10309TIP3   OH252417   4.536   1.287  13.367 -0.4820  0.0270 -0.6164
10309TIP3    H152418   4.468   1.228  13.401 -0.8639  1.6822  1.6735
10309TIP3    H252419   4.615   1.262  13.414  0.0787 -0.5270 -1.7922
10310TIP3   OH252420   2.222   3.143   3.073  0.3378  0.2903 -0.2980
10310TIP3    H152421   2.127   3.141   3.080  0.3968 -0.4065  0.5033
10310TIP3    H252422   2.240   3.111   2.984 -0.1460 -0.6770 -0.0599
10311TIP3   OH252423   5.143   1.015   1.150  0.3040  0.0234  0.7274
10311TIP3    H152424   5.129   0.970   1.234  2.8438 -1.4030  0.4901
10311TIP3    H252425   5.190   1.095   1.173 -0.1804  0.3048  0.7558
10312TIP3   OH252426   5.970   4.174  11.007  0.0111 -0.3364 -0.4570
10312TIP3    H152427   5.959   4.120  10.929 -3.0655  0.3860 -0.6500
10312TIP3    H252428   5.963   4.264  10.976 -3.5427 -0.0376  0.7434
10313TIP3   OH252429   5.000   1.016  11.673  0.3358  0.7278  0.0358
10313TIP3    H152430   4.999   0.944  11.736  1.6894 -1.0308 -1.8195
10313TIP3    H252431   4.924   1.070  11.697  0.8502  0.2342  3.1701
10314TIP3   OH252432   6.646   2.641   0.484 -0.7964 -0.3851 -0.4623
10314TIP3    H152433   6.678   2.730   0.498  0.0883 -0.7653 -0.0047
10314TIP3    H252434   6.562   2.638   0.528 -0.0866 -0.2429  0.9375
10315TIP3   OH252435   6.142   5.391  14.496 -0.6442  0.3297 -0.0767
10315TIP3    H152436   6.177   5.469  14.538  0.4965 -0.1405 -0.1397
10315TIP3    H252437   6.051   5.385  14.527 -0.5346  1.3049  0.4371
10316TIP3   OH252438   1.972   2.857   3.005  0.0262  0.3110 -0.6417
10316TIP3    H152439   2.017   2.801   3.069 -0.3344  1.4150  0.6197
10316TIP3    H252440   1.889   2.812   2.989 -0.1098  0.2846  0.0868
10317TIP3   OH252441   5.928   0.870  17.213  0.1818  0.1959 -0.6741
10317TIP3    H152442   5.992   0.939  17.233  1.1809  0.2822 -3.7247
10317TIP3    H252443   5.952   0.839  17.126 -0.4802 -3.7828  0.3817
10318TIP3   OH252444   5.910   5.213   2.184  0.4393 -0.1642  0.1163
10318TIP3    H152445   5.845   5.168   2.130  0.2089  0.4285 -0.1036
10318TIP3    H252446   5.902   5.173   2.270 -0.2979 -0.0161  0.1232
10319TIP3   OH252447   3.484   1.090  12.703  0.1775 -0.2296  0.0349
10319TIP3    H152448   3.500   1.045  12.620  1.7210 -0.5425  0.4674
10319TIP3    H252449   3.503   1.182  12.685  0.3944 -0.2793  0.0050
10320TIP3   OH252450   0.530   6.669  11.333  0.1855  0.1215 -0.1993
10320TIP3    H152451   0.548   6.705  11.420 -1.3822 -0.9939  0.6414
10320TIP3    H252452   0.486   6.586  11.350  1.4216 -0.9992 -2.0786
10321TIP3   OH252453   5.640   3.357  10.654  0.1256 -0.3859  0.1239
10321TIP3    H152454   5.719   3.357  10.600 -0.2477  0.3289 -0.4481
10321TIP3    H252455   5.670   3.380  10.742  0.5611 -0.2168 -0.0673
10322TIP3   OH252456   4.612   1.694   3.330 -0.4372 -0.9678  0.4726
10322TIP3    H152457   4.580   1.605   3.346 -2.7456 -0.6909 -1.9571
10322TIP3    H252458   4.630   1.696   3.235 -0.8395  1.2618  0.4035
10323TIP3   OH252459   0.414   5.759   2.799 -0.5200 -0.0526  0.0928
10323TIP3    H152460   0.489   5.727   2.750 -1.1165 -1.1106 -0.1655
10323TIP3    H252461   0.411   5.853   2.781 -1.0229 -0.4706 -2.3670
10324TIP3   OH252462   3.538   1.901  14.432 -0.3460 -0.1037  0.3100
10324TIP3    H152463   3.624   1.936  14.411 -0.8945  2.1138  1.5009
10324TIP3    H252464   3.478   1.949  14.376 -0.9991 -0.0465  1.0356
10325TIP3   OH252465   5.841   6.443   6.242 -0.1431  0.1719  0.6138
10325TIP3    H152466   5.780   6.416   6.310  2.8917 -1.7684  2.8302
10325TIP3    H252467   5.865   6.533   6.264  0.4518 -0.2817  1.9098
10326TIP3   OH252468   1.588   1.619  13.275  0.1391 -0.3894  0.0593
10326TIP3    H152469   1.661   1.642  13.333  0.6424  0.4911 -0.8771
10326TIP3    H252470   1.629   1.574  13.201  0.0726  1.8994 -1.4776
10327TIP3   OH252471   5.732   1.659  14.437  0.0299 -0.1378  0.0166
10327TIP3    H152472   5.762   1.749  14.448 -1.3349  0.3383  0.1180
10327TIP3    H252473   5.673   1.644  14.511 -0.3037 -0.8626 -0.3767
10328TIP3   OH252474   5.356   0.791  15.125  0.2961 -0.2895  0.0954
10328TIP3    H152475   5.365   0.762  15.035 -0.9552 -0.1145 -0.1062
10328TIP3    H252476   5.309   0.721  15.169  2.1548 -1.0399  1.0078
10329TIP3   OH252477   5.215   2.344  14.964 -0.7335 -0.1289 -0.7233
10329TIP3    H152478   5.190   2.347  14.871  0.2299 -1.4871 -1.0594
10329TIP3    H252479   5.204   2.252  14.989  2.1591 -0.5058 -0.4471
10330TIP3   OH252480   2.999   4.709   3.958  0.3483  0.3085  0.1031
10330TIP3    H152481   3.019   4.633   4.013  0.0194  0.6887  0.7727
10330TIP3    H252482   2.930   4.755   4.006  0.3033  0.8454 -0.4650
10331TIP3   OH252483   0.389   2.187   1.514  0.0859 -0.0668 -0.2539
10331TIP3    H152484   0.398   2.093   1.532 -3.2716 -0.7644 -1.5533
10331TIP3    H252485   0.349   2.192   1.427  2.1504  2.7181 -1.2134
10332TIP3   OH252486   5.112   4.582  15.270  0.4643  0.0833  0.3028
10332TIP3    H152487   5.100   4.542  15.356  0.1128  2.1178  1.2628
10332TIP3    H252488   5.067   4.667  15.277  1.0167  0.5803 -1.6674
10333TIP3   OH252489   2.556   1.375  14.954  0.2779  0.0154 -0.1671
10333TIP3    H152490   2.539   1.462  14.919 -0.3077 -0.3030 -0.6923
10333TIP3    H252491   2.532   1.381  15.047  1.1771  0.6742  0.0265
10334TIP3   OH252492   3.651   3.483  11.874 -0.7142 -0.4331  0.2276
10334TIP3    H152493   3.580   3.533  11.832  0.4768  0.6326 -0.5892
10334TIP3    H252494   3.681   3.422  11.807 -0.2842 -0.2806  0.2811
10335TIP3   OH252495   0.298   2.430   2.845 -0.5934 -0.4729 -0.0630
10335TIP3    H152496   0.360   2.383   2.790 -1.3393 -1.4081 -0.1327
10335TIP3    H252497   0.277   2.369   2.916 -1.7217 -0.3400 -0.2550
10336TIP3   OH252498   3.579   4.728   3.665  0.0764 -0.6561  0.1879
10336TIP3    H152499   3.530   4.684   3.734 -0.6291 -2.3385 -1.2880
10336TIP3    H252500   3.670   4.720   3.691 -0.2339 -0.1085  1.5275
10337TIP3   OH252501   1.977   0.544   3.914  0.1548  0.3175 -0.3681
10337TIP3    H152502   1.988   0.630   3.874  0.1235  0.7823  0.5754
10337TIP3    H252503   1.891   0.514   3.884 -0.0210  0.8089 -0.3624
10338TIP3   OH252504   4.322   4.857   4.218 -0.4893  0.1921 -0.2303
10338TIP3    H152505   4.271   4.857   4.299  0.6693 -0.7949  0.5338
10338TIP3    H252506   4.413   4.853   4.247 -0.0847 -1.6296 -1.5628
10339TIP3   OH252507   3.085   2.639   0.478 -0.2229  0.4308  0.7374
10339TIP3    H152508   3.106   2.665   0.388 -0.2888 -1.7190  0.0464
10339TIP3    H252509   3.152   2.575   0.501 -1.0933 -0.1820  1.6458
10340TIP3   OH252510   4.637   1.811  10.662  0.5801  0.0741  0.5611
10340TIP3    H152511   4.724   1.822  10.701  0.5838 -1.9177  1.2429
10340TIP3    H252512   4.652   1.814  10.568  1.4172 -0.4321  0.6680
10341TIP3   OH252513   0.138   5.862   2.066 -0.9900  0.3593 -0.1887
10341TIP3    H152514   0.103   5.883   1.980  0.2429  0.8516 -0.5885
10341TIP3    H252515   0.217   5.811   2.048  0.6274  2.4526  0.5338
10342TIP3   OH252516   3.913   2.146   2.877  0.0867  0.1093 -0.6250
10342TIP3    H152517   3.970   2.124   2.950  0.5485 -0.5894 -1.1817
10342TIP3    H252518   3.942   2.089   2.806 -2.8640 -2.1023 -0.2312
10343TIP3   OH252519   2.197   4.139   6.033  0.3619  0.2678 -0.3801
10343TIP3    H152520   2.236   4.057   6.061  1.0704  0.6528 -0.2163
10343TIP3    H252521   2.192   4.192   6.113 -1.5653 -0.1789 -0.1543
10344TIP3   OH252522   2.657   4.360   5.278 -0.7043  0.0213  0.1467
10344TIP3    H152523   2.639   4.278   5.232 -0.9639 -0.8318  1.6734
10344TIP3    H252524   2.727   4.337   5.340  0.9620  1.6003 -1.0688
10345TIP3   OH252525   6.079   6.354   5.565 -0.0924  0.4174  0.1697
10345TIP3    H152526   6.170   6.378   5.544  0.4270 -1.7902 -0.3905
10345TIP3    H252527   6.039   6.336   5.480 -0.5581 -0.1779  0.5103
10346TIP3   OH252528   3.623   5.988  13.114 -0.5385 -0.3946 -0.1903
10346TIP3    H152529   3.665   6.070  13.139  0.0223 -0.4110 -1.0404
10346TIP3    H252530   3.530   6.002  13.130 -0.3560  0.0980  0.4849
10347TIP3   OH252531   0.250   0.748   3.985 -0.7240 -0.2627 -0.0339
10347TIP3    H152532   0.302   0.827   3.969 -1.0248  0.0556  0.5218
10347TIP3    H252533   0.314   0.677   3.989 -0.2259  0.2441  1.5347
10348TIP3   OH252534   5.821   3.349   3.392 -0.5705  0.0664 -0.3010
10348TIP3    H152535   5.871   3.324   3.314 -2.5132  0.4070 -1.7230
10348TIP3    H252536   5.755   3.280   3.401  0.1200 -0.4089  1.5789
10349TIP3   OH252537   3.760   0.300   2.875  0.0714 -0.2196 -0.5614
10349TIP3    H152538   3.726   0.326   2.790 -0.0747 -1.2302 -0.8210
10349TIP3    H252539   3.851   0.329   2.875  0.0207 -0.0591 -0.9910
10350TIP3   OH252540   2.056   1.346  11.046 -0.8316 -0.1136 -0.3475
10350TIP3    H152541   1.968   1.381  11.060 -1.3805 -1.7691  0.5546
10350TIP3    H252542   2.048   1.286  10.972 -0.2893  0.2851 -0.7399
10351TIP3   OH252543   0.919   1.521   1.168 -0.7298 -0.4724  0.0045
10351TIP3    H152544   1.012   1.541   1.168 -0.4131 -1.7999  1.0061
10351TIP3    H252545   0.888   1.551   1.083  1.1236 -2.1833 -1.3652
10352TIP3   OH252546   6.410   4.848  12.401  0.0421  0.0172 -0.0131
10352TIP3    H152547   6.366   4.931  12.385  1.5862  0.8314 -0.1806
10352TIP3    H252548   6.448   4.823  12.317  2.4678  0.9178  0.7120
10353TIP3   OH252549   5.952   6.439   0.938 -0.4557  0.2325  0.0392
10353TIP3    H152550   5.936   6.355   0.897 -0.1738 -0.1899  0.7708
10353TIP3    H252551   6.047   6.445   0.945 -0.5061 -0.2174  1.6157
10354TIP3   OH252552   4.884   0.036  11.064 -0.3996 -0.0033 -0.1494
10354TIP3    H152553   4.893   0.074  10.976  0.9132  0.9691  0.3697
10354TIP3    H252554   4.806  -0.019  11.058 -0.1229 -0.2693 -2.0327
10355TIP3   OH252555   5.600   4.206   0.913  0.3615 -0.4198  0.4274
10355TIP3    H152556   5.644   4.182   0.832 -0.4818 -0.1642 -0.1221
10355TIP3    H252557   5.668   4.244   0.968  0.7060  0.5863 -0.6571
10356TIP3   OH252558   5.821   4.337   6.558 -0.3063 -0.1591  0.2497
10356TIP3    H152559   5.874   4.330   6.637 -0.5829 -0.8754  0.3757
10356TIP3    H252560   5.873   4.295   6.490  0.0135  0.6235  0.0034
10357TIP3   OH252561   5.627   3.945   5.172  0.1525  0.1738  0.1593
10357TIP3    H152562   5.619   4.027   5.124 -1.5449  1.4190  2.3760
10357TIP3    H252563   5.558   3.889   5.136  1.3781 -0.3882 -1.4250
10358TIP3   OH252564   3.790   3.975  15.197 -0.2710  0.9102 -0.3189
10358TIP3    H152565   3.840   4.054  15.218 -1.7961  1.2169  2.8500
10358TIP3    H252566   3.847   3.903  15.225  0.4028  0.9449 -1.5449
10359TIP3   OH252567   3.260   4.840   3.975 -0.0900 -0.3492 -0.0052
10359TIP3    H152568   3.296   4.753   3.992 -0.3178 -0.2707  0.8933
10359TIP3    H252569   3.167   4.825   3.956 -0.1833 -0.2842  0.3880
10360TIP3   OH252570   4.381   3.940   0.722 -0.2954 -0.1416  0.3772
10360TIP3    H152571   4.332   4.005   0.772 -1.5112  0.8680 -1.9451
10360TIP3    H252572   4.316   3.874   0.698 -0.3763  0.6305 -1.7875
10361TIP3   OH252573   5.636   3.592   1.339  0.1556  0.0910  0.1008
10361TIP3    H152574   5.706   3.559   1.282 -0.7148  1.2780 -1.7251
10361TIP3    H252575   5.589   3.513   1.366 -1.0697 -0.4130 -3.0978
10362TIP3   OH252576   6.806   5.399  10.647 -0.2207  0.1385  0.3299
10362TIP3    H152577   6.725   5.396  10.698  0.4838 -2.4601  1.4209
10362TIP3    H252578   6.781   5.367  10.560 -0.4163 -0.5205  0.6219
10363TIP3   OH252579   0.549   4.715   1.872 -0.0286 -0.2894 -0.4643
10363TIP3    H152580   0.625   4.726   1.929  0.9711  0.0226 -1.8392
10363TIP3    H252581   0.562   4.630   1.830  0.1999  0.3190 -1.6374
10364TIP3   OH252582   1.527   3.639  12.432 -0.3863  0.0022  0.3662
10364TIP3    H152583   1.537   3.655  12.338  0.9140 -0.8074  0.3420
10364TIP3    H252584   1.569   3.554  12.447  0.9424  0.8749  1.9387
10365TIP3   OH252585   2.509   3.691   5.128  0.7006 -0.3369  0.2059
10365TIP3    H152586   2.422   3.730   5.117  0.6240  0.0164  1.8332
10365TIP3    H252587   2.568   3.765   5.142  1.3249 -0.5603 -1.1038
10366TIP3   OH252588   6.789   4.546   2.398  0.6292 -0.2164 -0.3429
10366TIP3    H152589   6.827   4.575   2.315  0.7931 -1.6562 -0.8067
10366TIP3    H252590   6.821   4.456   2.409 -0.5174 -0.5425  0.5692
10367TIP3   OH252591   3.973   2.346  14.637  0.3282  0.2696 -0.0046
10367TIP3    H152592   4.005   2.272  14.689 -1.1747 -0.2984  0.1633
10367TIP3    H252593   4.041   2.359  14.570  1.2462 -0.3949  0.7662
10368TIP3   OH252594   0.624   0.373   6.226  0.0847  0.0933 -0.5714
10368TIP3    H152595   0.710   0.332   6.235  0.3255  0.9769  1.9895
10368TIP3    H252596   0.638   0.447   6.167  0.3334 -1.5132 -2.6551
10369TIP3   OH252597   0.116   4.550  10.965 -0.3223 -0.0108 -0.0606
10369TIP3    H152598   0.140   4.471  10.916  1.3828 -0.2757  1.1241
10369TIP3    H252599   0.026   4.533  10.994 -1.3727  0.1212 -2.9229
10370TIP3   OH252600   4.869   5.180   3.597  0.1497 -0.2162  0.1510
10370TIP3    H152601   4.935   5.246   3.579 -0.1450  0.7042  2.1594
10370TIP3    H252602   4.906   5.099   3.562  0.0571  1.0921 -3.3498
10371TIP3   OH252603   1.390   5.481  13.739 -0.4692 -0.2991  0.3903
10371TIP3    H152604   1.332   5.445  13.806  0.2636 -2.7945 -0.2248
10371TIP3    H252605   1.415   5.406  13.686  1.0557  1.1880 -1.1102
10372TIP3   OH252606   2.709   5.078   0.065 -0.8298 -0.2860 -0.2403
10372TIP3    H152607   2.762   5.113  -0.007 -0.9452  0.8836  0.2261
10372TIP3    H252608   2.765   5.015   0.109 -0.1893  0.1833 -0.3809
10373TIP3   OH252609   6.259   0.608   5.535 -0.4501  0.0231  0.0373
10373TIP3    H152610   6.196   0.541   5.508 -0.7329  0.6236 -0.8120
10373TIP3    H252611   6.345   0.567   5.524 -0.6411 -1.6235  3.2934
10374TIP3   OH252612   1.054   5.101   0.136  0.2608  0.7344 -0.2537
10374TIP3    H152613   1.146   5.087   0.117  0.0886 -0.0848 -0.5252
10374TIP3    H252614   1.053   5.139   0.224  0.9576  2.7566 -1.0528
10375TIP3   OH252615   3.917   4.990   6.000 -0.0549  0.0743  0.0300
10375TIP3    H152616   3.968   4.909   5.989 -1.2447 -0.8620  1.1707
10375TIP3    H252617   3.840   4.977   5.945 -0.7603 -0.0309  1.0244
10376TIP3   OH252618   3.365   6.754  15.274  0.1612  0.2895 -0.6458
10376TIP3    H152619   3.377   6.808  15.353 -0.3536 -0.7579  0.1633
10376TIP3    H252620   3.442   6.773  15.221  1.0156  0.2653  0.5536
10377TIP3   OH252621   0.112   6.510  10.486  0.3172 -0.2590 -0.1564
10377TIP3    H152622   0.191   6.505  10.432 -0.1543 -0.6992 -0.8212
10377TIP3    H252623   0.050   6.452  10.442 -0.5006  0.3733  0.1478
10378TIP3   OH252624   1.197   2.029  15.681 -0.3133  0.2640  0.2586
10378TIP3    H152625   1.199   1.947  15.730 -1.3627 -0.3438 -0.6577
10378TIP3    H252626   1.154   2.091  15.739  1.7443  0.5829  1.5112
10379TIP3   OH252627   0.302   0.045   4.278 -0.2829 -0.6472  0.4355
10379TIP3    H152628   0.297   0.138   4.256 -2.1942 -0.3268  1.9447
10379TIP3    H252629   0.217   0.010   4.251 -0.0317 -1.7046  0.9675
10380TIP3   OH252630   0.837   3.186   3.057  0.1221 -0.5423  0.1416
10380TIP3    H152631   0.833   3.188   2.961 -3.3581 -0.3607  0.1542
10380TIP3    H252632   0.890   3.262   3.081 -0.5145  0.5237 -1.6321
10381TIP3   OH252633   1.975   5.895   4.650 -0.2791  0.2262  0.1380
10381TIP3    H152634   1.939   5.983   4.634 -0.4182 -0.3003 -3.3130
10381TIP3    H252635   2.068   5.903   4.626 -0.1910 -0.4471  0.2488
10382TIP3   OH252636   4.060   4.070   0.595  0.8831  0.0999  0.7217
10382TIP3    H152637   4.044   3.976   0.593  1.6399 -0.0153 -0.3012
10382TIP3    H252638   3.978   4.107   0.630  1.0284 -1.0062  2.3423
10383TIP3   OH252639   4.125   1.837  12.949  0.0624 -0.1772 -0.5520
10383TIP3    H152640   4.116   1.864  12.858  0.9268 -0.8807 -0.8511
10383TIP3    H252641   4.152   1.917  12.995 -1.7132  0.5173 -0.6514
10384TIP3   OH252642   2.917   5.211  16.859  0.2868  0.1255  1.0002
10384TIP3    H152643   2.926   5.172  16.946  2.9817 -1.2511  0.2177
10384TIP3    H252644   2.924   5.305  16.874  1.1349 -0.1159  2.2799
10385TIP3   OH252645   4.425   0.327   4.330  0.1618 -0.2545  0.2664
10385TIP3    H152646   4.383   0.408   4.302  2.5618  0.7263 -0.6719
10385TIP3    H252647   4.353   0.276   4.368 -1.9378  1.1597 -1.5263
10386TIP3   OH252648   0.655   3.837  12.881  0.4523  0.0742 -0.0545
10386TIP3    H152649   0.638   3.925  12.848 -0.5304 -0.3513 -0.7286
10386TIP3    H252650   0.734   3.809  12.836 -0.5409 -0.2696 -1.6783
10387TIP3   OH252651   2.830   2.332  12.131  0.0052  0.2101 -0.2724
10387TIP3    H152652   2.815   2.315  12.037  0.4499 -0.2055 -0.2734
10387TIP3    H252653   2.907   2.388  12.133  0.1643 -0.0113 -0.1464
10388TIP3   OH252654   0.722   3.435   1.809 -0.5007  0.4503 -0.0969
10388TIP3    H152655   0.633   3.401   1.807 -0.2253 -0.3259  0.3670
10388TIP3    H252656   0.720   3.511   1.751 -1.6354  0.8600  0.4401
10389TIP3   OH252657   1.885   6.365  14.978 -0.2572 -0.2138 -0.2982
10389TIP3    H152658   1.952   6.432  14.992 -1.9742  1.8888 -1.3251
10389TIP3    H252659   1.905   6.296  15.040  1.8655  1.0954  0.5638
10390TIP3   OH252660   5.963   1.454  15.406 -0.1298  0.3247 -0.1764
10390TIP3    H152661   5.933   1.476  15.317 -1.5555  1.4797  0.5485
10390TIP3    H252662   6.044   1.505  15.416  0.4077 -0.3247 -1.0257
10391TIP3   OH252663   2.375   2.782  11.650  0.1837 -0.0462 -0.6557
10391TIP3    H152664   2.290   2.771  11.693 -0.8201  0.7127 -2.3116
10391TIP3    H252665   2.424   2.704  11.673 -0.6643 -0.1384  0.9825
10392TIP3   OH252666   2.901   2.773  14.442 -0.6836  0.2427 -0.1669
10392TIP3    H152667   2.883   2.858  14.484 -1.8302 -0.0996  0.0714
10392TIP3    H252668   2.823   2.756  14.389 -0.9686 -1.1643  0.6463
10393TIP3   OH252669   0.469   1.994   0.067  0.8549 -0.1151 -0.1890
10393TIP3    H152670   0.406   1.930   0.100  1.7363 -0.9967 -0.1850
10393TIP3    H252671   0.463   1.987  -0.028  2.5571 -1.8719 -0.2215
10394TIP3   OH252672   2.461   2.963   3.230 -0.3311  0.3680 -0.8058
10394TIP3    H152673   2.389   2.978   3.291 -0.0582 -1.3117 -0.0118
10394TIP3    H252674   2.539   2.957   3.286  0.1104  0.0429 -1.4455
10395TIP3   OH252675   4.334   0.673   2.983 -0.4691 -0.5401  0.7225
10395TIP3    H152676   4.338   0.680   2.887 -2.7186 -0.3662  0.6082
10395TIP3    H252677   4.353   0.580   3.000 -0.2972 -0.6285  0.1052
10396TIP3   OH252678   4.674   1.126   3.574 -0.4257  0.0604 -0.8295
10396TIP3    H152679   4.640   1.037   3.589 -1.6550  0.6393 -0.0331
10396TIP3    H252680   4.671   1.136   3.479  0.5621 -1.0555 -1.0054
10397TIP3   OH252681   1.812   2.425   1.456  0.4431  0.4124 -0.8633
10397TIP3    H152682   1.746   2.426   1.525  2.9585  1.3102  1.7308
10397TIP3    H252683   1.825   2.517   1.432  0.4803  0.2115 -1.6602
10398TIP3   OH252684   4.094   6.267   0.191 -0.4301 -0.9481  0.1546
10398TIP3    H152685   4.185   6.251   0.165  0.4362  0.8897  1.7587
10398TIP3    H252686   4.076   6.199   0.256  0.1777 -0.7166  0.5807
10399TIP3   OH252687   5.981   2.653  13.127 -0.8032  0.1350  0.0988
10399TIP3    H152688   6.012   2.742  13.108  1.8462 -0.5604  0.7662
10399TIP3    H252689   6.019   2.632  13.212  1.2808 -2.7184 -1.3807
10400TIP3   OH252690   0.934   2.270  16.190 -0.1445  0.4375 -0.1922
10400TIP3    H152691   0.840   2.285  16.183 -0.2911  0.2121  1.1278
10400TIP3    H252692   0.949   2.189  16.141 -0.8313 -0.1994  0.6378
10401TIP3   OH252693   2.403   4.672  15.991 -0.1098 -0.5682 -0.5152
10401TIP3    H152694   2.308   4.673  15.980 -0.0647  0.8184 -1.0161
10401TIP3    H252695   2.420   4.732  16.063  0.3391 -1.4431  0.1192
10402TIP3   OH252696   2.502   1.697   4.831 -0.2080  0.2227  0.8051
10402TIP3    H152697   2.417   1.694   4.787 -0.1690  1.1592  0.6357
10402TIP3    H252698   2.507   1.615   4.880 -2.0170  0.9429  2.3139
10403TIP3   OH252699   1.628   2.596  12.651 -0.8564 -0.0528 -0.4493
10403TIP3    H152700   1.549   2.543  12.636  0.2251 -1.7870 -0.2484
10403TIP3    H252701   1.679   2.546  12.713  0.5380  0.9269 -0.7579
10404TIP3   OH252702   2.408   0.784  16.435  0.5396 -0.0952 -0.6933
10404TIP3    H152703   2.351   0.741  16.372  0.8356 -0.4510 -0.7229
10404TIP3    H252704   2.493   0.741  16.423  1.5221  2.1377 -2.4544
10405TIP3   OH252705   0.029   6.819  14.472 -0.3883  0.3519  0.2760
10405TIP3    H152706   0.107   6.806  14.526 -0.7128  1.4658  1.0505
10405TIP3    H252707   0.058   6.875  14.400 -0.1632 -0.3901 -0.2191
10406TIP3   OH252708   3.634   5.233  13.275 -0.5404  0.1082  0.6809
10406TIP3    H152709   3.621   5.219  13.369  1.8780  1.6541  1.3238
10406TIP3    H252710   3.728   5.222  13.262 -0.9349 -1.1610 -1.8164
10407TIP3   OH252711   6.819   4.207  11.016 -0.2999 -0.1263 -0.0832
10407TIP3    H152712   6.781   4.135  11.066  1.9963 -1.6541 -0.3547
10407TIP3    H252713   6.913   4.189  11.016 -0.0757 -0.1742 -4.7894
10408TIP3   OH252714   6.208   6.812  11.917  0.3844 -0.2925  0.6370
10408TIP3    H152715   6.188   6.817  12.010 -0.4518 -0.4211  0.4815
10408TIP3    H252716   6.173   6.727  11.890 -1.1169  0.5287 -0.1592
10409TIP3   OH252717   2.325   2.294   4.954  0.4143 -0.2844 -0.2982
10409TIP3    H152718   2.391   2.312   4.888  0.9597  1.6890  0.7304
10409TIP3    H252719   2.242   2.320   4.913  0.9291  2.6222  0.3112
10410TIP3   OH252720   4.000   3.132  15.884 -0.3025 -0.2009  0.7025
10410TIP3    H152721   3.943   3.205  15.859  0.3532  0.2325  0.4627
10410TIP3    H252722   4.010   3.142  15.979 -0.5074 -0.1979  0.7263
10411TIP3   OH252723   2.600   4.906  12.129 -0.8548 -0.3411 -0.3313
10411TIP3    H152724   2.579   4.813  12.131 -1.6337 -0.1566  1.0970
10411TIP3    H252725   2.599   4.929  12.036 -0.9061 -1.6979 -0.6787
10412TIP3   OH252726   0.627   4.626  14.462  0.4009 -0.0635  0.1853
10412TIP3    H152727   0.619   4.672  14.546 -0.4330  0.9657 -0.4199
10412TIP3    H252728   0.553   4.659  14.410  1.8564  0.6299 -1.5519
10413TIP3   OH252729   2.397   1.067  16.981  0.2189 -0.2683  0.0394
10413TIP3    H152730   2.367   1.077  17.071 -0.6771  0.2374 -0.3077
10413TIP3    H252731   2.458   1.139  16.968 -0.4713  0.2957 -0.0913
10414TIP3   OH252732   4.816   2.216  16.620 -0.3767  0.9682  0.0183
10414TIP3    H152733   4.879   2.263  16.565  0.0124 -1.3582 -1.6817
10414TIP3    H252734   4.846   2.232  16.709  1.8145  1.1226 -0.6717
10415TIP3   OH252735   1.656   5.318  12.934 -0.5388 -0.5873  0.0735
10415TIP3    H152736   1.664   5.411  12.955  0.3750 -1.1987  3.0370
10415TIP3    H252737   1.679   5.312  12.842  1.1306  1.9364  0.2137
10416TIP3   OH252738   0.842   3.033  16.285 -0.3986  0.4823 -0.2734
10416TIP3    H152739   0.890   2.970  16.231 -1.2760 -0.1243 -0.3674
10416TIP3    H252740   0.908   3.069  16.344  0.4814  0.8267 -1.4367
10417TIP3   OH252741   0.179   2.273   1.999  0.5518 -0.1502  0.4119
10417TIP3    H152742   0.186   2.178   2.010  0.4951 -0.1672  0.2991
10417TIP3    H252743   0.213   2.290   1.912  1.3193  0.0236  0.7343
10418TIP3   OH252744   6.606   0.242   2.636  0.2430 -0.0046  0.4053
10418TIP3    H152745   6.599   0.275   2.547  1.6690 -2.4688 -0.7351
10418TIP3    H252746   6.529   0.187   2.648 -1.0968  2.0180  1.5688
10419TIP3   OH252747   5.253   3.352   5.241  0.5438 -0.3186  0.3222
10419TIP3    H152748   5.175   3.365   5.187  1.5200  1.3503 -0.7724
10419TIP3    H252749   5.240   3.411   5.316  0.8887  0.2241 -0.0377
10420TIP3   OH252750   1.675   3.984   4.041 -0.1457  0.2337  0.7218
10420TIP3    H152751   1.670   4.004   4.134  1.3984  0.9051  0.6885
10420TIP3    H252752   1.758   4.022   4.012 -1.1390  1.1166 -1.1866
10421TIP3   OH252753   2.895   2.595   2.206 -0.5084 -0.2704 -0.4532
10421TIP3    H152754   2.841   2.532   2.158 -1.9387 -0.7308  1.5850
10421TIP3    H252755   2.944   2.541   2.269  0.2976  0.4116 -0.4874
10422TIP3   OH252756   5.778   5.377  12.282  0.0248 -0.2946 -0.4206
10422TIP3    H152757   5.728   5.415  12.210 -1.7351 -1.5528  0.0639
10422TIP3    H252758   5.832   5.310  12.241 -0.2108 -0.3175 -0.6971
10423TIP3   OH252759   2.846   5.986  11.680 -0.0771 -0.3023 -0.1809
10423TIP3    H152760   2.883   6.073  11.666  2.2261 -0.9461  1.2818
10423TIP3    H252761   2.906   5.945  11.742 -2.1523 -2.2789  0.6273
10424TIP3   OH252762   0.284   3.542  13.070  0.1864  0.0323  0.1695
10424TIP3    H152763   0.358   3.603  13.065  0.8416 -0.3718  3.1378
10424TIP3    H252764   0.325   3.456  13.081 -0.7296 -0.3595  0.5883
10425TIP3   OH252765   1.103   0.575   5.874 -0.3283 -0.1805  0.5832
10425TIP3    H152766   1.128   0.578   5.782  1.0565 -0.1854  0.9231
10425TIP3    H252767   1.012   0.547   5.874 -0.4671  0.1903 -0.7912
10426TIP3   OH252768   2.904   3.309   3.330  0.1150  0.4816  0.5848
10426TIP3    H152769   2.953   3.296   3.248 -2.8787  1.0212 -1.4427
10426TIP3    H252770   2.889   3.404   3.333 -1.2655  0.2719  0.8163
10427TIP3   OH252771   1.984   0.437  11.923  0.5877 -0.5427  0.3793
10427TIP3    H152772   1.960   0.377  11.853  0.0679 -2.6791  2.2575
10427TIP3    H252773   1.931   0.516  11.907  1.0820 -0.6258 -1.9923
10428TIP3   OH252774   6.189   6.031   0.912  0.5007  0.1687 -0.3442
10428TIP3    H152775   6.263   6.055   0.968 -0.3173 -0.4759  1.0663
10428TIP3    H252776   6.159   5.947   0.946 -0.4731  0.0924 -1.3217
10429TIP3   OH252777   5.389   1.028  11.449 -0.0008  0.3150 -0.2100
10429TIP3    H152778   5.344   0.945  11.431  0.9736 -0.0455 -1.0529
10429TIP3    H252779   5.440   1.011  11.528  0.0198  0.1778 -0.2525
10430TIP3   OH252780   1.861   5.151  17.034 -0.4895 -0.4491 -0.3527
10430TIP3    H152781   1.891   5.241  17.046  1.3816 -0.7828 -2.1232
10430TIP3    H252782   1.862   5.114  17.123  3.4148 -0.0711 -0.0689
10431TIP3   OH252783   6.586   2.929  12.010 -0.0262 -0.7187 -0.1661
10431TIP3    H152784   6.656   2.960  12.067  0.0763 -2.7323  0.9149
10431TIP3    H252785   6.508   2.927  12.065 -0.9722  1.3657 -1.3228
10432TIP3   OH252786   2.899   1.158  17.187 -0.2486  0.2605  0.1553
10432TIP3    H152787   2.972   1.126  17.240  0.1835 -0.5565 -0.8884
10432TIP3    H252788   2.858   1.079  17.152 -0.7026  0.7612 -0.4689
10433TIP3   OH252789   1.163   6.182  16.026 -0.0191  0.2924  0.1566
10433TIP3    H152790   1.072   6.206  16.043  0.4819  2.0453  0.5590
10433TIP3    H252791   1.204   6.179  16.113  0.4110 -0.0493 -0.0545
10434TIP3   OH252792   6.022   4.292   5.382  0.0226 -0.3190 -0.0989
10434TIP3    H152793   6.048   4.332   5.299  1.8299  0.6787  0.8964
10434TIP3    H252794   5.978   4.211   5.356  1.2099 -0.4178 -2.0250
10435TIP3   OH252795   3.804   5.894  12.588 -0.0871 -0.0638 -0.2536
10435TIP3    H152796   3.759   5.940  12.659  1.4043 -1.9077  2.0317
10435TIP3    H252797   3.792   5.801  12.608 -0.0038 -0.6678 -2.7311
10436TIP3   OH252798   1.375   2.749   2.166 -0.3269 -0.3121  0.3213
10436TIP3    H152799   1.351   2.841   2.156  1.1899  0.1091  0.2818
10436TIP3    H252800   1.417   2.727   2.083  0.9067 -0.5160  0.9804
10437TIP3   OH252801   5.285   5.839  13.637 -0.1460 -0.2402  0.6591
10437TIP3    H152802   5.376   5.810  13.635  0.0381  0.3532 -0.0266
10437TIP3    H252803   5.271   5.869  13.726  1.1722  2.1869  0.1462
10438TIP3   OH252804   5.365   3.779   5.324 -0.0999 -0.2648  0.0846
10438TIP3    H152805   5.407   3.788   5.239 -0.6793 -1.1179 -0.3002
10438TIP3    H252806   5.342   3.686   5.330 -1.7941  0.1422  0.3436
10439TIP3   OH252807   5.292   6.377  16.485 -0.1811 -0.0763  0.1497
10439TIP3    H152808   5.308   6.467  16.457 -0.6760  0.5103  1.6959
10439TIP3    H252809   5.198   6.374  16.505 -0.3441 -1.1718 -0.6647
10440TIP3   OH252810   1.713   4.914  13.037 -0.6773 -0.1593 -0.0865
10440TIP3    H152811   1.628   4.952  13.014 -0.5219 -0.0948 -0.5628
10440TIP3    H252812   1.732   4.853  12.965  0.6618  1.3865 -1.1002
10441TIP3   OH252813   3.304   6.396   0.812 -0.6702  0.4695 -0.0499
10441TIP3    H152814   3.364   6.350   0.870 -0.9473  1.5093  1.0938
10441TIP3    H252815   3.284   6.478   0.857 -2.5371  0.3895 -0.6472
10442TIP3   OH252816   0.386   1.370   0.059  0.2361  0.2036  0.0718
10442TIP3    H152817   0.379   1.289   0.010 -0.0110  0.1145  0.2535
10442TIP3    H252818   0.450   1.351   0.128 -0.7583 -0.2255  0.8837
10443TIP3   OH252819   6.700   4.182  11.680 -0.5833 -0.6539  0.0765
10443TIP3    H152820   6.768   4.115  11.675 -0.8125 -0.8706 -0.1209
10443TIP3    H252821   6.618   4.135  11.666 -0.6498 -0.1504 -1.4005
10444TIP3   OH252822   3.823   3.336  13.039  0.0324 -0.5948  0.1214
10444TIP3    H152823   3.894   3.400  13.032  0.1485 -0.6160  1.0166
10444TIP3    H252824   3.851   3.262  12.984  0.8348 -0.7215  0.6890
10445TIP3   OH252825   6.272   1.811   3.365 -0.2316  0.2470 -0.2436
10445TIP3    H152826   6.234   1.724   3.373  0.4651 -0.0501 -0.1191
10445TIP3    H252827   6.292   1.838   3.455  0.9938 -0.1249 -0.3869
10446TIP3   OH252828   1.333   1.209  13.503 -0.3570  0.0036  0.2638
10446TIP3    H152829   1.264   1.193  13.568 -1.2189  0.2690 -0.5631
10446TIP3    H252830   1.362   1.299  13.520  1.5580 -0.9044  2.2104
10447TIP3   OH252831   1.438   3.570   4.509 -0.1333  0.1557 -0.9699
10447TIP3    H152832   1.434   3.609   4.422  0.5566  1.5494 -0.4005
10447TIP3    H252833   1.530   3.579   4.535  0.3459 -2.8283 -1.2169
10448TIP3   OH252834   1.253   5.361   3.050  0.2434 -0.2533  0.4450
10448TIP3    H152835   1.225   5.445   3.015 -1.8505 -1.1619 -0.2023
10448TIP3    H252836   1.217   5.358   3.139  0.4207 -0.4268  0.5122
10449TIP3   OH252837   3.560   0.288   3.772  0.6106 -0.0938 -0.0561
10449TIP3    H152838   3.603   0.220   3.823 -0.1423  1.0151  2.1722
10449TIP3    H252839   3.490   0.242   3.724  1.1175 -1.1115  0.1678
10450TIP3   OH252840   3.284   1.419  12.187  0.1633  0.2812  0.5659
10450TIP3    H152841   3.312   1.497  12.138  1.3421 -0.5250 -0.0862
10450TIP3    H252842   3.197   1.442  12.220  0.1523  1.5806 -0.2837
10451TIP3   OH252843   6.795   0.385   5.734  0.3301 -0.0671 -0.3026
10451TIP3    H152844   6.858   0.407   5.803  0.1472  1.5898 -0.6156
10451TIP3    H252845   6.710   0.403   5.774  0.2537  1.9740 -1.2358
10452TIP3   OH252846   4.372   6.742   3.186 -0.1443  0.0524  0.0340
10452TIP3    H152847   4.321   6.823   3.198 -2.8369 -1.4293 -0.6288
10452TIP3    H252848   4.345   6.710   3.100  0.4799 -1.8192  0.5068
10453TIP3   OH252849   4.513   6.405   3.361  0.0976  0.1155  0.6354
10453TIP3    H152850   4.605   6.429   3.349  0.5271 -1.3531  0.8306
10453TIP3    H252851   4.509   6.368   3.449 -0.2634 -1.5559 -0.0427
10454TIP3   OH252852   2.091   2.870   4.357  0.3247  0.0109  0.4577
10454TIP3    H152853   2.151   2.803   4.325  1.1282  1.0086 -0.1472
10454TIP3    H252854   2.145   2.928   4.409 -0.0463  1.1016 -0.3474
10455TIP3   OH252855   2.529   4.591   1.388 -0.6469  0.1022  0.2078
10455TIP3    H152856   2.524   4.496   1.393  1.6669 -0.0490  1.5340
10455TIP3    H252857   2.544   4.610   1.296  0.1110 -0.9441  0.0935
10456TIP3   OH252858   0.540   1.677   2.034  0.3687 -0.1051  0.1190
10456TIP3    H152859   0.635   1.668   2.024  0.0006 -3.0379 -1.8263
10456TIP3    H252860   0.509   1.702   1.947 -0.8048 -1.1950  0.1976
10457TIP3   OH252861   4.906   5.363  11.263 -0.1542  0.1901 -0.3743
10457TIP3    H152862   4.840   5.336  11.200 -0.1141 -2.8237  0.6990
10457TIP3    H252863   4.986   5.318  11.234 -0.3170 -1.9197  2.0947
10458TIP3   OH252864   5.421   3.319   0.723 -0.8214  0.4996  0.2482
10458TIP3    H152865   5.400   3.293   0.813 -1.6595 -0.3022 -0.1669
10458TIP3    H252866   5.342   3.299   0.673 -0.7943  2.0396 -0.4682
10459TIP3   OH252867   1.951   4.200  15.994  0.9962 -0.3327 -0.2325
10459TIP3    H152868   1.898   4.122  16.010  2.4376 -1.1216  0.8387
10459TIP3    H252869   2.017   4.172  15.931  1.0451  0.2371 -0.4403
10460TIP3   OH252870   5.144   6.261  15.353  0.4586 -0.1197  0.1629
10460TIP3    H152871   5.067   6.317  15.356  0.8955  0.4560  1.7523
10460TIP3    H252872   5.114   6.180  15.311 -1.2026 -0.1845  1.3778
10461TIP3   OH252873   6.592   5.545  12.911 -0.8799  0.0259  0.7773
10461TIP3    H152874   6.562   5.454  12.917 -0.0382 -0.4276 -1.2953
10461TIP3    H252875   6.515   5.594  12.880 -0.6913 -0.4156 -0.4382
10462TIP3   OH252876   4.648   2.486   1.420 -0.1656 -0.1120 -0.8199
10462TIP3    H152877   4.644   2.390   1.424 -0.8040 -0.0365  0.9174
10462TIP3    H252878   4.557   2.513   1.413 -0.0614  0.4070 -0.1913
10463TIP3   OH252879   4.285   4.587   3.825  0.3446 -0.0583 -0.4500
10463TIP3    H152880   4.231   4.577   3.747  0.3124  2.2625 -0.8051
10463TIP3    H252881   4.350   4.652   3.801  0.3730  0.6779  1.4136
10464TIP3   OH252882   0.071   5.536  14.996  0.1305  0.3107 -0.5520
10464TIP3    H152883   0.143   5.542  14.933  1.4956  2.6900  1.0873
10464TIP3    H252884   0.114   5.531  15.081 -1.6840 -1.4205  0.3315
10465TIP3   OH252885   3.353   3.298   2.314  0.5486 -0.6260  0.1023
10465TIP3    H152886   3.369   3.316   2.406  2.0558 -1.3072  0.0009
10465TIP3    H252887   3.298   3.371   2.284 -1.1721 -1.1320  1.8399
10466TIP3   OH252888   1.064   2.112   1.849  0.5736 -0.2808  0.5155
10466TIP3    H152889   0.994   2.177   1.851  1.1427  0.4771 -1.6879
10466TIP3    H252890   1.069   2.080   1.939  0.2397  2.6887  1.7072
10467TIP3   OH252891   0.076   4.574   2.102  0.3842  0.1805 -0.5552
10467TIP3    H152892   0.146   4.611   2.155  0.2282 -1.1996  0.6951
10467TIP3    H252893   0.114   4.564   2.015  0.9947  1.5198 -0.4614
10468TIP3   OH252894   3.396   2.218   5.465  0.1449 -0.1399  0.2107
10468TIP3    H152895   3.404   2.165   5.545  0.4857 -0.7962 -0.2493
10468TIP3    H252896   3.487   2.232   5.437  0.0501  0.5498  0.2305
10469TIP3   OH252897   5.496   5.476   1.893 -0.6432 -0.7713  0.3448
10469TIP3    H152898   5.585   5.476   1.928 -0.2410 -0.7245 -0.6320
10469TIP3    H252899   5.498   5.545   1.826 -1.8342  0.2676  1.3270
10470TIP3   OH252900   4.111   2.570   0.628  0.0708  0.5073  0.6860
10470TIP3    H152901   4.033   2.517   0.643 -1.5489  1.8981 -1.9903
10470TIP3    H252902   4.147   2.538   0.545  0.1305  2.3005 -0.0232
10471TIP3   OH252903   0.950   3.633  13.975  0.2285 -0.4949  0.1544
10471TIP3    H152904   1.029   3.640  14.029 -0.0236  0.8658  0.3849
10471TIP3    H252905   0.973   3.676  13.893 -0.3109  0.0612  0.2832
10472TIP3   OH252906   0.227   0.790   1.272  0.0550  0.6427  0.0231
10472TIP3    H152907   0.139   0.781   1.233  0.2592 -2.5409  0.0804
10472TIP3    H252908   0.286   0.791   1.196  0.0601  2.4190  0.0038
10473TIP3   OH252909   2.920   6.457  12.832  0.4981 -0.0161  0.0250
10473TIP3    H152910   2.949   6.384  12.776  3.6740  0.7175  0.5228
10473TIP3    H252911   2.934   6.425  12.921  0.1496  0.5718  0.2909
10474TIP3   OH252912   5.968   4.614  13.468 -0.4123  0.2161 -0.2531
10474TIP3    H152913   5.964   4.705  13.499  0.2585  0.2423 -0.2423
10474TIP3    H252914   5.879   4.581  13.481 -0.5614  0.7482  0.1141
10475TIP3   OH252915   4.094   6.558  12.887  0.1438  0.4007  0.1020
10475TIP3    H152916   4.150   6.634  12.872  0.4554 -0.0599 -1.1414
10475TIP3    H252917   4.154   6.489  12.915 -0.0871  0.4737  0.8113
10476TIP3   OH252918   0.864   1.032   6.587 -0.4006 -0.3889  0.1787
10476TIP3    H152919   0.867   1.068   6.675 -1.4368 -1.2082  0.5769
10476TIP3    H252920   0.861   1.108   6.529  1.1442  0.1616  0.7896
10477TIP3   OH252921   0.887   4.526   2.777  0.3099  0.2010  0.8556
10477TIP3    H152922   0.827   4.459   2.809  1.3729 -0.9460  0.5122
10477TIP3    H252923   0.908   4.578   2.854 -1.1554  0.6857  0.9736
10478TIP3   OH252924   0.650   2.772  14.905 -0.6073  0.2069  0.4047
10478TIP3    H152925   0.688   2.852  14.941  0.4409  0.2277 -0.7035
10478TIP3    H252926   0.708   2.702  14.935 -1.2752 -0.1035  1.0064
10479TIP3   OH252927   4.928   2.068  15.790  0.4852  0.6773 -0.2668
10479TIP3    H152928   4.945   2.049  15.698  0.8091  2.2242 -0.5550
10479TIP3    H252929   4.833   2.073  15.797  0.3655 -1.0620 -0.1378
10480TIP3   OH252930   3.339   3.585  17.184  0.4310 -0.6876 -0.5279
10480TIP3    H152931   3.370   3.672  17.161 -0.3671 -0.3382 -0.2778
10480TIP3    H252932   3.252   3.579  17.145  0.7730 -1.6634 -1.2118
10481TIP3   OH252933   6.355   0.511  17.022  0.0100 -0.4061 -0.1788
10481TIP3    H152934   6.306   0.572  17.076  1.5540  0.2401  0.5293
10481TIP3    H252935   6.420   0.565  16.977 -0.7728 -1.0338 -2.1807
10482TIP3   OH252936   3.650   1.283  13.031 -0.5461 -0.3204 -0.0393
10482TIP3    H152937   3.709   1.341  12.983 -0.2108 -0.4377  0.2275
10482TIP3    H252938   3.638   1.208  12.973 -0.4845 -0.2684 -0.1195
10483TIP3   OH252939   4.596   3.268   2.774 -0.3306  0.3996  0.4003
10483TIP3    H152940   4.676   3.233   2.812 -0.3901  0.8421  0.9310
10483TIP3    H252941   4.539   3.191   2.764 -0.4633  0.3312  1.5750
10484TIP3   OH252942   2.845   2.977  11.458 -0.1934  0.3702  0.1260
10484TIP3    H152943   2.880   2.921  11.390  0.1156  1.3601 -0.5505
10484TIP3    H252944   2.802   3.048  11.411  0.1431  1.1459  0.9563
10485TIP3   OH252945   2.883   5.072   2.038 -0.7387 -0.3443  0.4063
10485TIP3    H152946   2.840   4.996   2.001  0.6878  0.2939 -2.8663
10485TIP3    H252947   2.822   5.144   2.022 -0.7187 -0.2811  0.6094
10486TIP3   OH252948   2.690   0.454  14.751 -0.0144 -0.2014 -0.2471
10486TIP3    H152949   2.642   0.524  14.706 -1.1456 -1.6476 -1.4331
10486TIP3    H252950   2.729   0.403  14.680  0.8928 -0.6983  0.5931
10487TIP3   OH252951   0.893   2.556  13.655  0.4370 -0.1467 -0.7231
10487TIP3    H152952   0.871   2.563  13.748  1.9360  1.0205 -0.4025
10487TIP3    H252953   0.942   2.474  13.648 -0.2164 -0.5515 -0.6152
10488TIP3   OH252954   3.894   4.686  15.654  0.1504  0.5473 -0.0530
10488TIP3    H152955   3.859   4.652  15.572  0.9191 -1.6107  0.4344
10488TIP3    H252956   3.846   4.639  15.722  0.5689  1.1873  0.6984
10489TIP3   OH252957   1.829   4.953   2.861 -0.2529 -0.1059 -0.3317
10489TIP3    H152958   1.862   4.880   2.914 -0.5892 -0.7382 -0.9783
10489TIP3    H252959   1.797   4.912   2.781  2.6227  1.0564 -2.2292
10490TIP3   OH252960   5.192   5.307   5.465  0.3063 -0.0705  0.2491
10490TIP3    H152961   5.221   5.394   5.491  1.2226 -0.1236 -0.5413
10490TIP3    H252962   5.184   5.311   5.370 -0.6711 -0.5517  0.3025
10491TIP3   OH252963   2.597   1.567   2.747  0.0034  0.1388 -0.6442
10491TIP3    H152964   2.656   1.545   2.820 -1.0776 -1.7633 -0.2784
10491TIP3    H252965   2.555   1.649   2.774  0.4527  0.0593  0.3385
10492TIP3   OH252966   1.388   2.589  13.188 -0.2388  0.8595 -0.0540
10492TIP3    H152967   1.370   2.588  13.094  0.4485  0.6091 -0.1928
10492TIP3    H252968   1.471   2.543  13.196  0.2155  1.7574  0.5693
10493TIP3   OH252969   4.612   1.602   0.122 -0.3038  0.3342 -0.2809
10493TIP3    H152970   4.521   1.600   0.091  0.4160 -1.9036 -2.5312
10493TIP3    H252971   4.665   1.600   0.042  1.7144 -1.1507  1.0040
10494TIP3   OH252972   6.448   5.985   2.266 -0.1008 -0.1262  0.2508
10494TIP3    H152973   6.525   6.007   2.318  1.4575 -1.0936 -1.5391
10494TIP3    H252974   6.436   6.060   2.208 -0.2875 -0.1461  0.2614
10495TIP3   OH252975   6.365   5.889   0.744  0.1192  0.5679 -0.6110
10495TIP3    H152976   6.407   5.826   0.803  0.7534 -0.2691 -1.9077
10495TIP3    H252977   6.310   5.942   0.801  0.4512 -0.4233  0.6857
10496TIP3   OH252978   2.291   6.220  15.859 -0.1216  0.6580  0.1671
10496TIP3    H152979   2.276   6.302  15.907  0.8856  0.6832  0.4699
10496TIP3    H252980   2.220   6.162  15.887  1.2932  0.1195  3.0131
10497TIP3   OH252981   4.044   6.767   2.121  0.2240 -0.0556  0.6753
10497TIP3    H152982   3.975   6.701   2.132 -0.6361  0.7147  0.0134
10497TIP3    H252983   4.008   6.846   2.161 -0.3903  1.0732 -1.8874
10498TIP3   OH252984   1.653   3.279   2.546  0.4912 -0.6947 -0.3615
10498TIP3    H152985   1.695   3.253   2.464  1.3636  1.6251 -0.7609
10498TIP3    H252986   1.711   3.246   2.615  0.0982 -2.0859 -0.6671
10499TIP3   OH252987   2.657   3.507  11.192  0.1963 -0.3526 -0.1847
10499TIP3    H152988   2.636   3.490  11.284  0.9975 -0.8257 -0.0771
10499TIP3    H252989   2.710   3.431  11.166  0.2624 -0.0488 -0.9347
10500TIP3   OH252990   0.486   3.223   1.802  0.1200  0.2007  0.0185
10500TIP3    H152991   0.437   3.274   1.867  0.5445 -3.0388  3.1609
10500TIP3    H252992   0.418   3.182   1.748 -0.7359 -1.9297  2.4915
10501TIP3   OH252993   5.834   4.679   3.870  0.3122  0.0382 -0.1414
10501TIP3    H152994   5.804   4.770   3.872 -0.3587 -0.1578 -0.6897
10501TIP3    H252995   5.927   4.684   3.891  0.0072  0.7101  1.1397
10502TIP3   OH252996   4.604   3.071  17.220  0.7226 -0.2842 -0.5396
10502TIP3    H152997   4.679   3.090  17.164  0.5228 -0.2095 -0.7824
10502TIP3    H252998   4.609   3.136  17.290  0.0927  0.6332 -1.3193
10503TIP3   OH252999   4.920   1.762  13.183  0.2137 -0.0848 -0.0355
10503TIP3    H153000   4.898   1.828  13.117 -0.6770  0.5337  0.8407
10503TIP3    H253001   4.926   1.680  13.134 -3.2649 -0.1787 -0.5769
10504TIP3   OH253002   6.005   2.112   0.015 -0.5693  0.7574 -0.5617
10504TIP3    H153003   6.050   2.087  -0.066  1.1705  2.7009 -0.2839
10504TIP3    H253004   6.057   2.185   0.049 -1.6845  0.4752  1.9314
10505TIP3   OH253005   2.931   6.116  14.420  0.0087  0.5887  0.1582
10505TIP3    H153006   2.863   6.182  14.419 -2.2098 -1.5551 -1.0541
10505TIP3    H253007   2.917   6.068  14.501 -0.0972  0.0016 -0.1991
10506TIP3   OH253008   6.530   6.194   5.158  0.0531 -0.4486 -0.0227
10506TIP3    H153009   6.571   6.113   5.189 -0.5690 -0.6835  0.2217
10506TIP3    H253010   6.494   6.233   5.238  1.5862  0.8110  0.0878
10507TIP3   OH253011   1.004   0.703  12.099 -0.3951 -0.2329  0.1683
10507TIP3    H153012   1.053   0.753  12.165  0.7231  2.8305 -2.7112
10507TIP3    H253013   0.920   0.747  12.094 -0.6423 -0.7357 -0.1271
10508TIP3   OH253014   0.513   6.447  15.191 -0.4724 -0.3933  0.4541
10508TIP3    H153015   0.574   6.375  15.180 -1.0979 -0.7924 -0.5415
10508TIP3    H253016   0.480   6.464  15.103 -0.4407  1.0215  0.6962
10509TIP3   OH253017   3.488   5.569  12.851 -0.1451  0.0818  0.1452
10509TIP3    H153018   3.438   5.649  12.865 -1.3810 -0.7899  0.8944
10509TIP3    H253019   3.473   5.547  12.760 -1.0392 -0.0945  0.3246
10510TIP3   OH253020   4.474   2.779   5.965  0.2089  0.0348 -0.1020
10510TIP3    H153021   4.426   2.861   5.954  0.1289 -0.0192 -0.1613
10510TIP3    H253022   4.523   2.790   6.046  0.8563  0.4658 -0.5397
10511TIP3   OH253023   0.068   3.493  13.266 -0.3413  0.1548  0.2951
10511TIP3    H153024   0.049   3.565  13.327  0.7886  0.9530 -0.2611
10511TIP3    H253025   0.142   3.525  13.214  2.1272 -2.4314  1.8870
10512TIP3   OH253026   0.040   3.652  15.795 -0.2591 -0.1421 -0.0288
10512TIP3    H153027  -0.021   3.666  15.722  0.4360 -2.8442 -1.2650
10512TIP3    H253028  -0.002   3.586  15.850  0.1854  0.2785  0.8410
10513TIP3   OH253029   4.212   1.714  16.306  0.7320 -0.1884 -0.0462
10513TIP3    H153030   4.258   1.633  16.283 -0.8068 -1.0236 -0.3684
10513TIP3    H253031   4.225   1.724  16.400  0.0798 -1.4175  0.1953
10514TIP3   OH253032   5.718   4.626   4.169 -0.9072  0.7715  0.0093
10514TIP3    H153033   5.658   4.613   4.242  0.9065  1.3923  1.7108
10514TIP3    H253034   5.711   4.547   4.117 -0.6204 -0.7317  2.1364
10515TIP3   OH253035   6.646   6.128  13.365  0.7383  0.0652 -0.0646
10515TIP3    H153036   6.656   6.065  13.294  2.1390 -0.1602  0.2987
10515TIP3    H253037   6.568   6.098  13.412 -1.4642  1.3930 -2.6064
10516TIP3   OH253038   1.313   3.686   0.871  0.4090 -0.4970 -0.0389
10516TIP3    H153039   1.370   3.760   0.852  0.0416  0.1070  1.1299
10516TIP3    H253040   1.224   3.723   0.871 -0.0017 -1.3768 -1.6048
10517TIP3   OH253041   1.350   0.758   5.013 -0.5537 -0.6950 -0.1735
10517TIP3    H153042   1.264   0.725   4.985 -0.3931 -0.2250 -1.2952
10517TIP3    H253043   1.412   0.712   4.955 -0.2581  0.8475 -1.1303
10518TIP3   OH253044   4.033   4.609  12.367  0.0455  0.0114 -0.2497
10518TIP3    H153045   3.970   4.540  12.348  0.6912 -0.3614 -1.1214
10518TIP3    H253046   4.001   4.685  12.317  0.0022 -0.0246 -0.2764
10519TIP3   OH253047   2.725   0.577   0.512  0.0589 -0.0385  0.2030
10519TIP3    H153048   2.778   0.499   0.526 -0.3877 -0.4957 -0.5890
10519TIP3    H253049   2.785   0.650   0.529  0.0540 -0.5032  2.5900
10520TIP3   OH253050   1.807   6.359  12.803  0.5713  0.2569 -0.3050
10520TIP3    H153051   1.712   6.349  12.801  0.7646 -2.1284 -1.1255
10520TIP3    H253052   1.834   6.318  12.885  0.8341  2.3330  0.7151
10521TIP3   OH253053   2.165   4.275   1.887  0.0163  0.2677  0.6325
10521TIP3    H153054   2.236   4.262   1.951  1.3711  0.2939 -0.8057
10521TIP3    H253055   2.187   4.216   1.815  0.4037  2.6452 -1.3006
10522TIP3   OH253056   1.709   1.258  14.042  0.0019  0.1049  0.2029
10522TIP3    H153057   1.697   1.183  13.984 -0.2165 -0.6087  1.1463
10522TIP3    H253058   1.673   1.332  13.993  0.7888 -0.2848 -0.9938
10523TIP3   OH253059   2.372   5.924   5.243 -0.3121 -0.2849  0.4754
10523TIP3    H153060   2.382   5.865   5.317 -0.5191 -2.0421 -0.8283
10523TIP3    H253061   2.307   5.881   5.187  1.7199 -0.3898 -1.9806
10524TIP3   OH253062   0.208   6.275  15.506 -0.6296 -0.4447  0.3643
10524TIP3    H153063   0.301   6.252  15.497 -0.7156 -0.4209 -0.7450
10524TIP3    H253064   0.203   6.364  15.471 -1.2500 -0.8510 -0.6148
10525TIP3   OH253065   5.888   2.520   1.534  0.1629 -0.1651 -0.0338
10525TIP3    H153066   5.978   2.493   1.516 -0.0760  0.5461 -2.6652
10525TIP3    H253067   5.896   2.584   1.604  1.4959 -1.3992  1.0035
10526TIP3   OH253068   1.203   2.129  16.690 -0.1992  0.0586  0.6429
10526TIP3    H153069   1.139   2.068  16.726  1.2611 -1.1413  1.3124
10526TIP3    H253070   1.214   2.101  16.599 -2.0923  1.5766 -0.1339
10527TIP3   OH253071   5.108   3.284  10.594 -0.2457  0.3013  0.2914
10527TIP3    H153072   5.201   3.295  10.615 -0.4043 -0.2114  1.3353
10527TIP3    H253073   5.088   3.356  10.534  0.9667  0.0657 -0.4472
10528TIP3   OH253074   2.978   2.640  16.049  0.3383 -0.7229 -0.9235
10528TIP3    H153075   2.908   2.596  16.001  0.6217 -0.3582 -1.6785
10528TIP3    H253076   3.059   2.609  16.009  0.6239 -1.0922 -0.0961
10529TIP3   OH253077   4.523   1.994  13.040  0.3677 -0.0429  0.2266
10529TIP3    H153078   4.455   2.023  13.101 -0.9105 -1.2172 -0.5623
10529TIP3    H253079   4.484   2.005  12.954  0.8976 -1.3809 -0.2169
10530TIP3   OH253080   4.416   0.495   2.583  0.3872  0.8588 -0.3277
10530TIP3    H153081   4.495   0.444   2.601 -2.5106 -4.1262  0.1874
10530TIP3    H253082   4.373   0.504   2.668 -0.8527  0.9618 -0.9409
10531TIP3   OH253083   4.273   4.037  12.662 -0.0036  0.5301 -0.4020
10531TIP3    H153084   4.232   4.115  12.624  1.9240  0.4444 -2.9583
10531TIP3    H253085   4.283   3.977  12.589  0.5186 -1.2673  1.0691
10532TIP3   OH253086   4.306   5.102  14.699  0.1456 -0.1754 -0.0738
10532TIP3    H153087   4.383   5.151  14.727 -0.4190  0.5680  0.2142
10532TIP3    H253088   4.338   5.012  14.686  1.4497  0.4764 -1.7547
10533TIP3   OH253089   2.832   3.006  15.638 -0.2310 -0.7071 -0.0930
10533TIP3    H153090   2.738   3.004  15.620 -0.4439  1.7660  0.4469
10533TIP3    H253091   2.839   3.030  15.730  0.9461 -1.7537  0.1183
10534TIP3   OH253092   4.647   3.227   3.168 -0.0631  0.4288  0.9197
10534TIP3    H153093   4.693   3.225   3.252  0.9971  0.5805  0.3623
10534TIP3    H253094   4.679   3.307   3.125 -0.3501  0.1887  0.2392
10535TIP3   OH253095   1.864   5.579  10.915  0.3200 -0.4035  0.1255
10535TIP3    H153096   1.917   5.500  10.915  1.6606  0.4393 -1.0977
10535TIP3    H253097   1.839   5.592  11.006  2.6012 -0.6114  0.8278
10536TIP3   OH253098   3.817   1.949   0.500 -0.4337  0.0456  0.1058
10536TIP3    H153099   3.886   2.015   0.494 -0.0962 -0.4309 -1.8382
10536TIP3    H253100   3.792   1.949   0.593  2.0111  0.4138  0.8475
10537TIP3   OH253101   6.655   4.687   4.588  0.3390  0.0539 -0.1501
10537TIP3    H153102   6.631   4.762   4.534 -2.0403 -0.7436 -0.3233
10537TIP3    H253103   6.737   4.655   4.549 -0.1836  0.7773 -1.9602
10538TIP3   OH253104   3.960   0.369   5.362 -0.1723 -0.0275  0.5571
10538TIP3    H153105   3.935   0.398   5.274 -1.2918  0.2907  0.9589
10538TIP3    H253106   4.055   0.382   5.365 -0.1681  0.3110 -0.4688
10539TIP3   OH253107   3.396   2.475  16.468 -0.3260  0.1632 -0.3695
10539TIP3    H153108   3.438   2.558  16.445 -0.3016  0.5797  1.0454
10539TIP3    H253109   3.409   2.467  16.563 -0.9481 -1.1128 -0.3667
10540TIP3   OH253110   6.476   0.812   0.384 -0.3237 -0.0583 -0.7735
10540TIP3    H153111   6.388   0.822   0.420  0.0076  0.7903 -0.1497
10540TIP3    H253112   6.512   0.736   0.430 -0.7123 -0.3895 -1.0087
10541TIP3   OH253113   3.488   1.197  14.184 -0.0328 -0.2551  0.3050
10541TIP3    H153114   3.497   1.258  14.257 -0.3723  0.3790 -0.1669
10541TIP3    H253115   3.507   1.111  14.222 -0.4921  0.0245  1.2023
10542TIP3   OH253116   2.676   2.655   3.136  0.1500  0.1400  0.4064
10542TIP3    H153117   2.707   2.727   3.191 -0.1004 -0.7220  1.7291
10542TIP3    H253118   2.582   2.670   3.128  0.0460 -0.1968  0.9454
10543TIP3   OH253119   0.352   5.884  14.417 -0.9405 -0.2751 -0.2429
10543TIP3    H153120   0.444   5.910  14.404 -0.7530 -0.8783 -0.1450
10543TIP3    H253121   0.320   5.865  14.329 -1.3941  1.2888 -0.4412
10544TIP3   OH253122   5.244   4.223   0.247  0.0805  0.6596  0.0716
10544TIP3    H153123   5.295   4.143   0.233 -0.7761  0.3156 -1.4654
10544TIP3    H253124   5.156   4.191   0.267  0.0682  1.2351  0.9700
10545TIP3   OH253125   2.335   6.402   3.904  0.1096 -0.3854  0.0229
10545TIP3    H153126   2.324   6.497   3.897 -0.9934 -0.4539  0.6262
10545TIP3    H253127   2.273   6.366   3.841  0.8896 -0.7145 -0.5783
10546TIP3   OH253128   5.320   3.780  11.065 -0.0405 -0.2107 -0.9257
10546TIP3    H153129   5.257   3.719  11.027  2.0933 -2.4743 -1.0756
10546TIP3    H253130   5.351   3.832  10.991 -2.2108  1.5076 -0.7253
10547TIP3   OH253131   3.360   5.168   5.416 -0.1655  0.6309  0.6534
10547TIP3    H153132   3.292   5.235   5.419  0.4438  1.2250  1.7177
10547TIP3    H253133   3.319   5.090   5.453 -0.6708  0.5895  0.0279
10548TIP3   OH253134   0.923   6.491   4.118  0.0226  0.2918 -0.3612
10548TIP3    H153135   0.905   6.427   4.049 -1.6288  1.0719 -0.7140
10548TIP3    H253136   0.846   6.548   4.118 -0.4324 -0.1685  2.6874
10549TIP3   OH253137   3.936   2.088  17.155 -0.0634  0.4768  0.2499
10549TIP3    H153138   3.950   2.176  17.119  2.4711  0.1165  0.1571
10549TIP3    H253139   3.896   2.039  17.083 -0.4374  1.2456 -0.0807
10550TIP3   OH253140   4.080   2.486  11.361 -0.0010  0.5430  0.6286
10550TIP3    H153141   4.039   2.566  11.328  0.6543  0.7555  0.3195
10550TIP3    H253142   4.016   2.417  11.340  0.6912  0.5550 -1.8221
10551TIP3   OH253143   3.477   5.300   3.886  0.1723  0.8295 -0.5558
10551TIP3    H153144   3.569   5.289   3.863  0.1345 -1.1515  0.0950
10551TIP3    H253145   3.439   5.213   3.874 -1.7700  1.7323 -1.3951
10552TIP3   OH253146   1.472   0.555   1.730 -0.6016 -0.2162 -0.2166
10552TIP3    H153147   1.382   0.558   1.698 -0.9583 -1.0910  0.6278
10552TIP3    H253148   1.517   0.496   1.670 -0.8228 -0.4851 -0.1199
10553TIP3   OH253149   5.711   2.134  11.453 -0.0861  0.1823  0.1022
10553TIP3    H153150   5.731   2.065  11.516 -2.0767  0.0692  0.6865
10553TIP3    H253151   5.686   2.087  11.373  0.4730  0.2835 -0.1376
10554TIP3   OH253152   0.747   1.521  12.825 -0.0645  0.4140  0.2740
10554TIP3    H153153   0.771   1.517  12.733  0.9860  0.0003  0.5538
10554TIP3    H253154   0.709   1.608  12.836  0.4460  0.7285 -0.4008
10555TIP3   OH253155   3.775   4.776   2.051 -0.8647 -0.6292  0.4203
10555TIP3    H153156   3.777   4.807   1.961 -1.2650  0.9694  0.9214
10555TIP3    H253157   3.687   4.740   2.063 -1.3715  0.6001  0.5866
10556TIP3   OH253158   3.401   2.924   2.493  0.1729  0.4946 -0.0226
10556TIP3    H153159   3.464   2.938   2.564 -0.3574  1.6267  0.2354
10556TIP3    H253160   3.316   2.914   2.538  0.0084 -0.0176 -0.4315
10557TIP3   OH253161   6.758   1.018   0.506 -0.0559 -0.1788  0.5966
10557TIP3    H153162   6.727   1.062   0.427  2.5187 -1.8091 -1.5154
10557TIP3    H253163   6.758   1.086   0.573 -0.8972  1.6876 -1.1773
10558TIP3   OH253164   1.338   2.174   5.813 -0.3422  0.1749 -0.1339
10558TIP3    H153165   1.425   2.192   5.779  0.2679 -0.4263  1.0715
10558TIP3    H253166   1.349   2.100   5.872 -1.9731 -1.0900 -1.2823
10559TIP3   OH253167   2.874   1.286   3.202  0.2226  0.4175  0.1542
10559TIP3    H153168   2.926   1.255   3.128  0.2265 -1.0536  0.7402
10559TIP3    H253169   2.895   1.225   3.273 -1.9104  0.0949  0.5593
10560TIP3   OH253170   5.091   0.269  11.508  0.0608  0.2133  0.5044
10560TIP3    H153171   4.997   0.285  11.516 -0.2167 -1.7147  1.9877
10560TIP3    H253172   5.104   0.247  11.416 -0.7254  1.6199  0.0322
10561TIP3   OH253173   6.571   5.594   1.707  0.3562  0.0526  0.2734
10561TIP3    H153174   6.487   5.623   1.742  0.1868 -2.0551  1.8346
10561TIP3    H253175   6.632   5.663   1.732 -0.9415  1.9802 -1.5145
10562TIP3   OH253176   0.827   1.632  11.479  0.1346  0.0011  0.1141
10562TIP3    H153177   0.761   1.701  11.480 -0.2818 -0.3838 -0.3708
10562TIP3    H253178   0.874   1.642  11.562  0.8253  1.5692 -0.4303
10563TIP3   OH253179   0.168   4.453   4.228  0.0512  0.2222  0.2774
10563TIP3    H153180   0.076   4.468   4.208  0.0309  0.3942  0.4959
10563TIP3    H253181   0.189   4.517   4.297  0.5395  0.7301 -0.3257
10564TIP3   OH253182   6.523   5.398  17.272 -0.9495  0.3028 -0.2930
10564TIP3    H153183   6.439   5.404  17.226 -0.6028 -0.3155 -1.0484
10564TIP3    H253184   6.588   5.422  17.206 -0.3088 -2.1441 -0.6532
10565TIP3   OH253185   0.192   1.336  16.901  0.1015  0.3101  0.4638
10565TIP3    H153186   0.204   1.277  16.975  0.8882  0.0339  0.1238
10565TIP3    H253187   0.242   1.297  16.830 -0.4300  0.7130 -0.1402
10566TIP3   OH253188   6.628   0.907   0.173  0.0695  0.1786  0.3401
10566TIP3    H153189   6.666   0.989   0.203  1.2322 -0.4074  0.5407
10566TIP3    H253190   6.567   0.882   0.243  0.2052  0.5325  0.5856
10567TIP3   OH253191   5.635   5.533  11.715  0.2582  0.8410 -0.1043
10567TIP3    H153192   5.606   5.589  11.787 -0.3574  0.2184  0.1381
10567TIP3    H253193   5.728   5.519  11.732 -0.0216  0.1584  0.9531
10568TIP3   OH253194   0.454   4.325   6.226  0.2490  0.2203 -0.4464
10568TIP3    H153195   0.487   4.369   6.148 -0.8191  0.7697 -0.5940
10568TIP3    H253196   0.389   4.384   6.262  1.7747  0.7065  1.7537
10569TIP3   OH253197   3.375   1.872   2.319 -0.7747 -0.4772 -0.3111
10569TIP3    H153198   3.293   1.891   2.274 -1.8316 -2.3058  0.7168
10569TIP3    H253199   3.373   1.926   2.398  0.0862  1.1290 -1.3410
10570TIP3   OH253200   3.955   3.310  15.045  0.0161  0.1819 -0.0312
10570TIP3    H153201   3.862   3.296  15.063 -0.5959 -0.3625 -3.0715
10570TIP3    H253202   3.992   3.222  15.039  0.3886  0.3616 -0.4134
10571TIP3   OH253203   6.152   2.695  11.430 -0.7305  0.0177  0.3055
10571TIP3    H153204   6.065   2.732  11.440 -1.3196 -0.7820 -1.4501
10571TIP3    H253205   6.138   2.601  11.421  0.3826 -0.2065  0.6749
10572TIP3   OH253206   5.874   5.682   1.034 -0.1873  0.2974  0.1637
10572TIP3    H153207   5.829   5.700   1.117 -0.4105  0.0515  0.0984
10572TIP3    H253208   5.922   5.601   1.051 -1.9030 -0.9329 -0.5758
10573TIP3   OH253209   2.886   2.593  17.031 -0.1189  0.0741 -0.2764
10573TIP3    H153210   2.946   2.657  16.994  1.6555 -1.2504  0.1457
10573TIP3    H253211   2.862   2.537  16.956  0.5198 -0.3927 -0.1368
10574TIP3   OH253212   6.337   5.461   3.737  0.1385 -0.3433  0.8209
10574TIP3    H153213   6.259   5.421   3.699  1.1117 -1.0227 -0.5799
10574TIP3    H253214   6.316   5.554   3.741 -0.7572 -0.5182  0.4915
10575TIP3   OH253215   6.123   6.740   0.070  0.3107  0.2984 -0.3402
10575TIP3    H153216   6.149   6.651   0.093  0.0719  0.6448  1.4199
10575TIP3    H253217   6.047   6.758   0.126 -0.1823  1.3032 -1.2884
10576TIP3   OH253218   4.557   1.747  11.243  0.7301 -0.5890  0.1019
10576TIP3    H153219   4.558   1.842  11.236  1.1333 -0.5790  0.2302
10576TIP3    H253220   4.487   1.718  11.184 -0.3482 -0.1296  1.1136
10577TIP3   OH253221   5.450   3.820  11.749  0.4133 -0.3073 -0.3336
10577TIP3    H153222   5.486   3.851  11.666  0.1868 -1.0207 -0.7062
10577TIP3    H253223   5.363   3.859  11.754  1.4242  1.9715  0.8868
10578TIP3   OH253224   5.890   0.191  16.587  0.0787  0.0099  0.1230
10578TIP3    H153225   5.837   0.270  16.593  2.1893  1.6144 -0.9108
10578TIP3    H253226   5.906   0.165  16.677  0.5499  1.6507  0.5335
10579TIP3   OH253227   0.038   1.859   5.913 -0.2442  0.1660  0.2055
10579TIP3    H153228   0.019   1.788   5.974  1.4903 -2.7728 -2.3657
10579TIP3    H253229  -0.048   1.897   5.894 -1.3516 -1.6190  1.2639
10580TIP3   OH253230   5.482   1.218  14.992  0.1831 -0.0843  0.1172
10580TIP3    H153231   5.542   1.182  15.058  1.5872  0.9094 -0.5814
10580TIP3    H253232   5.539   1.264  14.931 -1.2323  0.1320 -1.0682
10581TIP3   OH253233   0.831   4.979  14.699 -0.2763  0.1882  0.3781
10581TIP3    H153234   0.923   5.006  14.691 -0.1696 -0.6672 -1.7921
10581TIP3    H253235   0.785   5.035  14.637 -1.3521  1.0123  1.8760
10582TIP3   OH253236   5.775   0.162   5.359 -0.4330 -0.1265 -0.5548
10582TIP3    H153237   5.703   0.109   5.393  1.1005 -2.1242 -0.2142
10582TIP3    H253238   5.814   0.203   5.436 -1.5711  1.5345 -0.8109
10583TIP3   OH253239   1.921   0.765   0.334  0.1285  0.1875 -0.3509
10583TIP3    H153240   1.987   0.817   0.379  1.6583 -0.9299 -1.1994
10583TIP3    H253241   1.872   0.827   0.281  0.2781  1.0759  0.5268
10584TIP3   OH253242   1.179   3.506  17.054  0.3808 -0.1305 -0.1915
10584TIP3    H153243   1.097   3.526  17.099 -0.8985  1.3897 -2.9669
10584TIP3    H253244   1.245   3.558  17.099 -0.8634  1.4313 -0.0958
10585TIP3   OH253245   2.583   3.564  15.327 -0.3961 -0.2758  0.2181
10585TIP3    H153246   2.600   3.553  15.233  2.8441  0.6215  0.5631
10585TIP3    H253247   2.570   3.475  15.360  0.1321 -0.7490 -0.8226
10586TIP3   OH253248   0.886   4.593  10.747 -0.0652 -0.4634  0.1602
10586TIP3    H153249   0.928   4.542  10.816  0.8306  1.2959  0.9994
10586TIP3    H253250   0.836   4.660  10.793 -1.0431 -0.4380 -0.8884
10587TIP3   OH253251   6.626   5.007  12.971  0.1688 -0.2548  0.4169
10587TIP3    H153252   6.693   5.011  12.902  1.0387  0.0246  1.2562
10587TIP3    H253253   6.667   4.954  13.040 -0.3151  0.2675  1.1126
10588TIP3   OH253254   3.047   3.470  14.743 -0.6302  0.2501 -0.1995
10588TIP3    H153255   3.000   3.517  14.811 -0.0883  0.8549 -0.2350
10588TIP3    H253256   3.136   3.507  14.744  0.3641 -1.9651  0.9787
10589TIP3   OH253257   6.094   3.803  14.430  0.1163 -0.5725 -0.3040
10589TIP3    H153258   6.098   3.709  14.450  1.1479 -0.4620  0.0625
10589TIP3    H253259   6.175   3.820  14.381 -0.2684  0.0409 -0.7268
10590TIP3   OH253260   5.992   2.424  12.667 -0.2870 -0.1720 -0.1570
10590TIP3    H153261   5.948   2.353  12.714  0.0275  0.9185  1.8882
10590TIP3    H253262   5.955   2.504  12.704 -0.1035  0.7691 -1.8915
10591TIP3   OH253263   4.277   5.670  16.458  0.3901  0.4465  0.0706
10591TIP3    H153264   4.210   5.605  16.437  1.3395 -1.1942  1.8226
10591TIP3    H253265   4.229   5.739  16.504 -0.4529  0.4619 -0.7905
10592TIP3   OH253266   4.649   3.295  11.690 -0.0357  0.4391 -0.1020
10592TIP3    H153267   4.628   3.282  11.598  0.1032  1.2281 -0.2475
10592TIP3    H253268   4.573   3.260  11.737 -0.7008  1.2427 -0.5579
10593TIP3   OH253269   4.860   3.166   6.830 -0.2168 -0.3342  0.0791
10593TIP3    H153270   4.852   3.168   6.735 -0.5467 -2.7961 -0.0252
10593TIP3    H253271   4.816   3.085   6.856 -0.4303  0.4347  2.3785
10594TIP3   OH253272   5.150   5.007   0.963 -0.4198 -0.4990 -0.3432
10594TIP3    H153273   5.065   5.026   0.921 -0.7813 -1.2037  0.0504
10594TIP3    H253274   5.134   4.927   1.013 -0.5575  1.2577  2.7013
10595TIP3   OH253275   0.942   6.426   0.358  0.1850  0.6454 -0.5870
10595TIP3    H153276   0.973   6.516   0.350  0.9948  0.2106 -4.0873
10595TIP3    H253277   0.872   6.419   0.292  0.9872 -1.5558 -1.2879
10596TIP3   OH253278   4.252   5.296  11.735  0.0799 -0.0558  0.9037
10596TIP3    H153279   4.225   5.347  11.659  0.0465  1.6113  1.9784
10596TIP3    H253280   4.314   5.231  11.700 -0.6048  0.0769 -0.6495
10597TIP3   OH253281   2.731   3.707  11.991 -0.1356 -0.2126 -0.0740
10597TIP3    H153282   2.743   3.733  11.900 -2.5909  0.3886 -0.3095
10597TIP3    H253283   2.758   3.615  11.994  0.3958 -0.1086 -1.2903
10598TIP3   OH253284   5.550   5.704  13.610  0.0361  0.1094 -0.0036
10598TIP3    H153285   5.600   5.766  13.662 -1.0191  0.0947  1.0663
10598TIP3    H253286   5.595   5.620  13.622 -1.3256 -0.3548  2.6703
10599TIP3   OH253287   3.846   2.174  13.866  0.2085  0.5646 -0.2672
10599TIP3    H153288   3.888   2.104  13.916 -1.4225 -0.8831 -0.8202
10599TIP3    H253289   3.814   2.235  13.933 -1.6080 -1.1465  0.5438
10600TIP3   OH253290   3.759   5.570  15.155  0.6951 -0.2424  0.1161
10600TIP3    H153291   3.767   5.577  15.251 -0.6158 -1.4557  0.3374
10600TIP3    H253292   3.684   5.513  15.141  1.5430 -0.9814 -1.6522
10601TIP3   OH253293   2.550   3.623  11.685  0.1096  0.0092  0.3019
10601TIP3    H153294   2.461   3.653  11.705  0.3979  0.9655  0.1876
10601TIP3    H253295   2.545   3.593  11.594  0.0230  0.5714  0.1165
10602TIP3   OH253296   0.177   0.123   3.120 -0.5879 -0.1151  0.3194
10602TIP3    H153297   0.147   0.189   3.058  1.4338  0.8625  0.3160
10602TIP3    H253298   0.255   0.085   3.079 -0.4453 -0.9302  1.3164
10603TIP3   OH253299   1.795   6.246   2.890 -0.2303 -0.0805 -0.0794
10603TIP3    H153300   1.824   6.177   2.949  0.5774  1.0276  0.8522
10603TIP3    H253301   1.702   6.255   2.908 -0.0300  0.1205  0.9077
10604TIP3   OH253302   5.516   0.063  11.092 -0.5560  0.0003 -0.1423
10604TIP3    H153303   5.517  -0.023  11.134 -0.3574 -0.1169 -0.3846
10604TIP3    H253304   5.487   0.046  11.002 -1.2124  0.2815  0.0082
10605TIP3   OH253305   4.609   1.633   1.648 -0.0819 -0.1383  0.2299
10605TIP3    H153306   4.575   1.650   1.560  1.9737 -1.0128 -0.8116
10605TIP3    H253307   4.704   1.637   1.637  0.2634 -1.9223  2.0602
10606TIP3   OH253308   2.114   6.064   6.158  0.3217  0.1711 -0.4897
10606TIP3    H153309   2.059   6.008   6.104  0.6870  0.1714 -0.8691
10606TIP3    H253310   2.117   6.147   6.111 -2.5965  1.5527  1.4841
10607TIP3   OH253311   0.784   4.272   2.027 -0.4780  0.4525  0.2383
10607TIP3    H153312   0.861   4.257   1.972 -1.0730 -1.6700 -0.1227
10607TIP3    H253313   0.820   4.296   2.112  0.4856  2.4664 -0.6783
10608TIP3   OH253314   2.929   5.368  14.948 -0.0178 -0.0040  0.2808
10608TIP3    H153315   2.939   5.304  15.019  0.5593  2.5576  2.6846
10608TIP3    H253316   2.842   5.349  14.911 -0.4581 -1.2778  1.8584
10609TIP3   OH253317   2.284   4.195  16.099  0.3574  0.3335 -0.2369
10609TIP3    H153318   2.337   4.155  16.030  2.2714  1.7972  0.2933
10609TIP3    H253319   2.334   4.180  16.179 -1.8443 -1.3811  0.9443
10610TIP3   OH253320   3.797   6.073   3.934 -0.3167  0.4764  0.1054
10610TIP3    H153321   3.891   6.071   3.915 -0.0480 -1.3599  1.3550
10610TIP3    H253322   3.791   6.118   4.019 -0.4013 -0.6545  0.7118
10611TIP3   OH253323   2.390   1.228  15.703  0.2649 -0.0682  0.5293
10611TIP3    H153324   2.405   1.257  15.793 -1.2814 -0.1836  0.8480
10611TIP3    H253325   2.308   1.179  15.707  1.5192 -2.3676 -0.4676
10612TIP3   OH253326   5.972   2.672  14.355 -0.0587 -0.3586 -0.3010
10612TIP3    H153327   6.011   2.620  14.426  1.1837  0.2505 -0.5048
10612TIP3    H253328   6.047   2.697  14.300 -0.7713  0.6876 -0.8247
10613TIP3   OH253329   3.979   6.305   0.897 -0.6422 -0.5502 -0.1874
10613TIP3    H153330   4.005   6.309   0.805  0.5416  1.4321  0.1783
10613TIP3    H253331   4.057   6.271   0.942 -0.0393  1.5254  0.4257
10614TIP3   OH253332   4.312   3.571   1.986  0.1115  0.2384 -0.3784
10614TIP3    H153333   4.267   3.524   1.916 -0.5027  0.5393 -0.1960
10614TIP3    H253334   4.280   3.531   2.067  0.2903  0.3539 -0.2475
10615TIP3   OH253335   3.243   0.844   1.210 -0.0368  0.5963  0.0737
10615TIP3    H153336   3.263   0.926   1.254  0.0543  1.3322 -1.2741
10615TIP3    H253337   3.323   0.822   1.163 -0.4503  0.3887 -0.5487
10616TIP3   OH253338   4.571   1.254   0.628  0.7036 -0.0923 -0.3707
10616TIP3    H153339   4.637   1.208   0.679  0.0754  0.2336  0.7760
10616TIP3    H253340   4.608   1.341   0.614  0.9394 -0.2290 -0.6297
10617TIP3   OH253341   1.907   3.092   4.571  0.5549 -0.0084  0.0700
10617TIP3    H153342   1.998   3.079   4.545  0.6390 -0.9404  0.7819
10617TIP3    H253343   1.897   3.039   4.650 -0.9395 -0.9374 -0.6932
10618TIP3   OH253344   0.856   1.389   4.206 -0.2774 -0.0324 -0.0922
10618TIP3    H153345   0.793   1.351   4.268  1.1397 -3.3358 -0.5154
10618TIP3    H253346   0.932   1.412   4.259 -0.5639  0.9103 -0.0679
10619TIP3   OH253347   2.151   3.914  10.327 -0.1723 -0.2428  0.1387
10619TIP3    H153348   2.185   3.926  10.238  0.5932  2.3289  0.7059
10619TIP3    H253349   2.226   3.931  10.384 -1.5190  2.2329  1.3480
10620TIP3   OH253350   1.167   3.163   3.002 -0.1711  0.3416  0.2069
10620TIP3    H153351   1.105   3.228   3.035 -0.2305  0.3451  0.0909
10620TIP3    H253352   1.210   3.206   2.928  0.5385  0.6295  0.7669
10621TIP3   OH253353   6.025   1.726  11.205  0.1268  0.0177 -0.6634
10621TIP3    H153354   5.974   1.655  11.164  0.5835  0.4053 -1.9640
10621TIP3    H253355   6.000   1.723  11.297  0.4808 -2.1412 -0.5768
10622TIP3   OH253356   3.943   1.746   5.200 -0.1062 -0.2022  0.0504
10622TIP3    H153357   3.947   1.817   5.135 -1.1257 -0.1738  0.0017
10622TIP3    H253358   3.849   1.725   5.207  0.2659 -2.6931 -1.1880
10623TIP3   OH253359   5.354   0.535  12.833  0.5284 -0.7155 -0.1416
10623TIP3    H153360   5.304   0.577  12.903 -0.4455 -0.3691 -1.0153
10623TIP3    H253361   5.315   0.447  12.826 -0.2548 -0.3115 -1.0876
10624TIP3   OH253362   0.293   3.875  13.854  0.2324 -0.1408 -0.7612
10624TIP3    H153363   0.197   3.884  13.860  0.2569 -0.5776  0.6316
10624TIP3    H253364   0.324   3.965  13.843 -0.3088  0.0821 -0.5445
10625TIP3   OH253365   1.775   2.372   3.137  0.4416 -0.4425 -0.1273
10625TIP3    H153366   1.710   2.302   3.149 -1.7007  1.3438 -0.6003
10625TIP3    H253367   1.785   2.379   3.042 -0.5299  0.8447 -0.1585
10626TIP3   OH253368   6.065   0.519  14.934 -0.3803  0.4454  0.0307
10626TIP3    H153369   6.152   0.525  14.895  0.5281 -0.3083  1.8361
10626TIP3    H253370   6.006   0.510  14.859  1.0539  1.1958 -1.2409
10627TIP3   OH253371   0.756   1.209   0.945  0.1438 -0.7116 -1.1712
10627TIP3    H153372   0.675   1.257   0.965  2.2764  2.2337  1.5199
10627TIP3    H253373   0.764   1.145   1.016  0.7510 -0.0324 -0.5966
10628TIP3   OH253374   5.164   3.571   6.023  0.6601 -0.1542 -0.2558
10628TIP3    H153375   5.220   3.594   6.098  0.0216  2.3239 -0.4482
10628TIP3    H253376   5.091   3.633   6.028 -0.3773 -1.1807 -1.8752
10629TIP3   OH253377   2.462   1.350   4.759  0.3565  0.2268  0.1016
10629TIP3    H153378   2.521   1.295   4.810  1.6509 -0.0131 -1.5743
10629TIP3    H253379   2.408   1.395   4.825  0.5206 -1.6182  1.5735
10630TIP3   OH253380   4.629   0.388   1.287 -0.0701  0.6773 -0.4205
10630TIP3    H153381   4.688   0.356   1.354 -0.5961  1.1060  0.2656
10630TIP3    H253382   4.556   0.426   1.336 -1.7430 -1.2956 -1.2201
10631TIP3   OH253383   0.648   3.975  15.174  0.1906  0.5512 -0.0563
10631TIP3    H153384   0.567   3.976  15.226 -0.4037 -1.9355 -0.8087
10631TIP3    H253385   0.627   4.028  15.097 -0.8063 -0.1284 -0.2822
10632TIP3   OH253386   0.401   6.389   4.427  0.2071  0.1215 -0.1920
10632TIP3    H153387   0.488   6.361   4.454 -0.5706 -0.7272  1.5699
10632TIP3    H253388   0.374   6.323   4.363  0.3521 -0.3497  0.2255
10633TIP3   OH253389   5.313   4.546  17.063 -0.2032 -0.1722  0.2584
10633TIP3    H153390   5.300   4.573  16.972 -0.4848  1.0367  0.6429
10633TIP3    H253391   5.351   4.458  17.057 -2.1440 -0.9657 -0.9848
10634TIP3   OH253392   3.149   1.712  16.715  0.0701  0.1201  0.5962
10634TIP3    H153393   3.057   1.738  16.710 -0.1420 -0.5055  1.1749
10634TIP3    H253394   3.189   1.776  16.774  0.0447  0.4786  0.2318
10635TIP3   OH253395   1.687   1.273   4.639 -0.0646  0.2851  0.4948
10635TIP3    H153396   1.744   1.300   4.711  0.8839 -1.7528  0.5812
10635TIP3    H253397   1.639   1.197   4.674  0.0671 -0.4450 -0.8395
10636TIP3   OH253398   2.487   6.152   6.800 -0.0395 -0.5171  0.0017
10636TIP3    H153399   2.453   6.196   6.722 -1.0521 -1.6164 -0.2149
10636TIP3    H253400   2.521   6.223   6.855 -1.6709  0.5702 -0.2920
10637TIP3   OH253401   2.795   1.808  14.883 -0.4866 -0.3888  0.3725
10637TIP3    H153402   2.721   1.748  14.878 -0.8350  0.1113 -1.3508
10637TIP3    H253403   2.779   1.871  14.813  0.6844  0.7737  1.1039
10638TIP3   OH253404   5.154   5.646  17.099  0.4181 -0.6166 -0.0702
10638TIP3    H153405   5.161   5.728  17.148 -1.3567 -0.5269  0.1103
10638TIP3    H253406   5.222   5.652  17.032 -0.7256  1.7998 -1.1480
10639TIP3   OH253407   1.628   5.265   1.897 -0.1337  0.1096 -0.7465
10639TIP3    H153408   1.542   5.265   1.856  0.2327 -2.7721 -1.6926
10639TIP3    H253409   1.652   5.173   1.904  1.9360  0.7156  1.5755
10640TIP3   OH253410   6.560   4.712  14.266 -0.0784  0.1034  0.0285
10640TIP3    H153411   6.565   4.618  14.250  0.7801  0.1304  0.0690
10640TIP3    H253412   6.521   4.720  14.353 -2.0960 -0.1380 -0.8170
10641TIP3   OH253413   6.403   1.268  11.923 -0.5872 -0.0421 -0.5854
10641TIP3    H153414   6.371   1.312  11.844 -0.6781  1.1182  0.0818
10641TIP3    H253415   6.489   1.234  11.897 -0.5656  0.4246 -1.1575
10642TIP3   OH253416   3.252   4.810  14.017 -0.1695 -0.1455  0.0724
10642TIP3    H153417   3.346   4.825  14.024 -0.5241  1.5960  1.9796
10642TIP3    H253418   3.216   4.894  13.990 -1.2330 -0.6266 -0.0651
10643TIP3   OH253419   5.171   1.165  12.552  0.1646 -0.7544 -0.3293
10643TIP3    H153420   5.214   1.140  12.470 -1.0211  0.2715 -1.3016
10643TIP3    H253421   5.163   1.083  12.600  0.9574 -1.3655 -1.1982
10644TIP3   OH253422   4.253   5.683  11.604 -0.2698 -0.4424 -0.5825
10644TIP3    H153423   4.268   5.687  11.699 -2.1495 -0.2241 -0.2686
10644TIP3    H253424   4.298   5.760  11.570 -1.2716  0.6130  0.4072
10645TIP3   OH253425   0.942   2.607   0.764 -0.4923  0.0256 -0.4039
10645TIP3    H153426   0.961   2.599   0.858  0.8317 -0.5785 -0.6961
10645TIP3    H253427   0.932   2.701   0.749  1.0848  0.2915  0.0373
10646TIP3   OH253428   3.677   0.252   5.910  0.4521  0.2182 -0.1652
10646TIP3    H153429   3.624   0.231   5.987  1.5752 -2.6376 -0.0528
10646TIP3    H253430   3.624   0.221   5.836  1.3153 -1.3644 -0.1518
10647TIP3   OH253431   6.030   0.171   3.657  0.5540 -0.1263  0.4802
10647TIP3    H153432   6.054   0.201   3.569  0.0420 -0.9760  0.0400
10647TIP3    H253433   6.111   0.135   3.693  0.1420 -2.5078 -0.7992
10648TIP3   OH253434   3.610   2.542  12.667 -0.6027  0.1738  0.3285
10648TIP3    H153435   3.704   2.560  12.671 -0.7861  1.2474  0.0849
10648TIP3    H253436   3.604   2.458  12.621  0.2609 -0.2209  0.9109
10649TIP3   OH253437   5.206   2.011   4.552 -0.6545  0.0769  0.5553
10649TIP3    H153438   5.183   1.922   4.523  1.6148 -0.3832 -0.0640
10649TIP3    H253439   5.281   1.998   4.610 -0.9011  1.5462  1.2482
10650TIP3   OH253440   1.120   4.793  11.398 -0.1837  0.2703 -0.0981
10650TIP3    H153441   1.113   4.699  11.380  1.6031  0.1541 -0.3537
10650TIP3    H253442   1.141   4.798  11.492  1.4612  0.2905 -0.4383
10651TIP3   OH253443   2.374   4.801   3.034 -0.5497  0.1928  0.2927
10651TIP3    H153444   2.347   4.722   3.080  0.3691 -0.8566 -0.9045
10651TIP3    H253445   2.465   4.815   3.061 -0.5254  0.5072  0.0565
10652TIP3   OH253446   3.738   5.625   5.425  0.9167 -0.2966  0.0098
10652TIP3    H153447   3.694   5.564   5.484  1.0066  0.1291  0.5368
10652TIP3    H253448   3.785   5.570   5.363 -1.1967 -0.7784 -1.2643
10653TIP3   OH253449   1.979   0.899   5.101  0.7821 -0.4095  0.4368
10653TIP3    H153450   2.054   0.944   5.061 -0.8421  0.7493 -1.5902
10653TIP3    H253451   2.012   0.814   5.128  2.3304 -0.9364 -2.6659
10654TIP3   OH253452   0.099   2.307  15.166 -0.0017  0.3163  0.1553
10654TIP3    H153453   0.160   2.327  15.236  1.5856 -0.0325 -1.0769
10654TIP3    H253454   0.153   2.303  15.087 -1.7783  1.1167 -1.1743
10655TIP3   OH253455   4.345   6.638  11.511  0.6529 -0.4777 -0.3064
10655TIP3    H153456   4.266   6.685  11.485  1.4556  0.2478 -1.5371
10655TIP3    H253457   4.367   6.585  11.435  0.4711 -1.9149  0.6160
10656TIP3   OH253458   4.504   0.569   5.748  0.5840  0.2764 -0.1657
10656TIP3    H153459   4.563   0.495   5.761 -0.1773 -0.2351  0.5045
10656TIP3    H253460   4.473   0.591   5.836 -2.4295 -1.3400 -0.6857
10657TIP3   OH253461   0.389   6.351   5.889 -0.2617 -0.6411 -0.1862
10657TIP3    H153462   0.476   6.332   5.854  0.1948 -0.8433  1.0026
10657TIP3    H253463   0.331   6.350   5.813  0.9517  0.6994 -1.1788
10658TIP3   OH253464   5.955   6.274  15.771  0.0826 -0.2523  0.1430
10658TIP3    H153465   5.905   6.202  15.809 -1.1167  0.2415 -0.4620
10658TIP3    H253466   5.953   6.343  15.837 -0.4266 -0.0649 -0.0691
10659TIP3   OH253467   2.864   3.100  15.226 -0.6071  0.1012  0.4706
10659TIP3    H153468   2.950   3.082  15.264  0.3278 -0.0602 -1.6163
10659TIP3    H253469   2.846   3.025  15.170 -0.6104  1.5428 -1.5888
10660TIP3   OH253470   0.118   1.120  15.775 -0.0687 -0.3572  0.1764
10660TIP3    H153471   0.163   1.038  15.757  0.4680  0.0249 -0.2391
10660TIP3    H253472   0.083   1.148  15.690  0.3050  0.1698  0.1951
10661TIP3   OH253473   5.689   1.925   2.154  0.1547 -0.5379  0.0943
10661TIP3    H153474   5.604   1.936   2.196  1.0374 -1.5696  2.3113
10661TIP3    H253475   5.737   2.005   2.176  0.1164 -0.4271 -0.2273
10662TIP3   OH253476   3.095   2.324   0.570  0.5233 -0.3347  0.6251
10662TIP3    H153477   3.161   2.347   0.505  0.0850  0.6701  0.5104
10662TIP3    H253478   3.021   2.290   0.519  0.0503  0.7623  0.5395
10663TIP3   OH253479   2.609   1.693  15.327  0.7374  0.1906 -0.4183
10663TIP3    H153480   2.652   1.746  15.260 -1.3186  0.1501 -1.8706
10663TIP3    H253481   2.674   1.685  15.397  2.6536  0.9773 -2.0124
10664TIP3   OH253482   6.025   5.601   0.091  0.4009  0.2205  0.4413
10664TIP3    H153483   6.115   5.609   0.061 -0.3782 -0.4290 -2.3320
10664TIP3    H253484   5.981   5.679   0.056 -0.0751  0.7782  2.1690
10665TIP3   OH253485   5.462   5.616  17.126 -0.0634 -0.0985  0.6970
10665TIP3    H153486   5.481   5.673  17.052 -2.3467 -0.6973 -0.4286
10665TIP3    H253487   5.500   5.531  17.100 -1.3001 -0.4423 -0.0656
10666TIP3   OH253488   3.443   5.816  15.700  0.1322 -0.0328 -0.3563
10666TIP3    H153489   3.497   5.894  15.711 -0.1684  0.1898 -0.4462
10666TIP3    H253490   3.425   5.786  15.790 -1.5364  1.2420 -0.2134
10667TIP3   OH253491   6.610   2.227   4.492  0.0623  0.0175  0.4670
10667TIP3    H153492   6.661   2.269   4.422 -0.7827 -0.6411 -0.5868
10667TIP3    H253493   6.522   2.264   4.483 -0.2842 -0.7525  0.5626
10668TIP3   OH253494   5.000   2.243  11.522  0.1352  0.0075 -0.0719
10668TIP3    H153495   4.940   2.300  11.474 -0.2638 -0.3966 -0.0600
10668TIP3    H253496   5.074   2.230  11.463 -0.6026 -0.9457 -0.8291
10669TIP3   OH253497   3.114   3.234   0.451 -0.4971 -0.4164 -0.0169
10669TIP3    H153498   3.151   3.205   0.368 -2.2496 -0.2399 -0.9041
10669TIP3    H253499   3.024   3.200   0.451  0.1696 -2.7030  3.0006
10670TIP3   OH253500   4.732   1.238  16.960  0.3124 -0.6289  0.3543
10670TIP3    H153501   4.827   1.228  16.972  0.6300  2.0553  0.5707
10670TIP3    H253502   4.723   1.302  16.890 -1.3674 -1.0305  0.1645
10671TIP3   OH253503   3.031   4.636  13.501  0.1479 -0.0522  0.1081
10671TIP3    H153504   3.022   4.679  13.586  0.3862 -2.6294  1.5383
10671TIP3    H253505   3.126   4.625  13.490  0.5050  3.7882 -2.5105
10672TIP3   OH253506   0.313   6.366  13.902 -0.1871  0.1979  0.6802
10672TIP3    H153507   0.226   6.401  13.923  0.1469  1.5026  0.0297
10672TIP3    H253508   0.324   6.292  13.961 -2.3841 -1.0074 -0.2813
10673TIP3   OH253509   3.208   6.153   3.778 -0.2331  0.0337  0.3410
10673TIP3    H153510   3.272   6.094   3.738 -0.2014  0.2344  0.0958
10673TIP3    H253511   3.162   6.194   3.705  0.0081  0.6014  0.4982
10674TIP3   OH253512   1.100   2.490  11.372  0.3968  0.2717 -0.5299
10674TIP3    H153513   1.117   2.398  11.391 -0.2332  0.3185  0.3406
10674TIP3    H253514   1.151   2.538  11.436 -0.7525  0.4669  0.2742
10675TIP3   OH253515   0.151   5.294  14.148 -0.1619  0.8451 -0.3358
10675TIP3    H153516   0.166   5.274  14.240 -1.0687 -0.3416 -0.4277
10675TIP3    H253517   0.121   5.385  14.148 -0.0410  0.8937  0.5109
10676TIP3   OH253518   5.299   4.964   5.449 -0.4576  0.0004 -0.5560
10676TIP3    H153519   5.228   4.900   5.456 -0.8074  0.1792 -2.1196
10676TIP3    H253520   5.329   4.956   5.359  1.7039 -0.2428  0.1392
10677TIP3   OH253521   5.111   4.184  11.426 -0.4049  0.5998  0.0581
10677TIP3    H153522   5.131   4.096  11.394  0.8877  1.2824 -1.1112
10677TIP3    H253523   5.171   4.196  11.500 -2.1318 -0.2968  1.6728
10678TIP3   OH253524   2.877   5.834  13.780  0.1100  0.4195 -0.0599
10678TIP3    H153525   2.830   5.835  13.697 -0.8348  0.4191  0.4618
10678TIP3    H253526   2.935   5.759  13.774 -1.2424 -0.6685 -0.0301
10679TIP3   OH253527   2.166   4.541   3.136  0.5554  0.0102  0.3815
10679TIP3    H153528   2.164   4.593   3.216  0.3178 -2.1133  1.8347
10679TIP3    H253529   2.114   4.463   3.156  1.2452 -1.0208 -1.5199
10680TIP3   OH253530   1.198   1.779  13.895  0.4913 -0.0575 -0.2971
10680TIP3    H153531   1.137   1.788  13.821 -0.4391 -0.9739  0.3334
10680TIP3    H253532   1.190   1.862  13.942 -0.5542 -0.3023 -0.0205
10681TIP3   OH253533   3.642   5.236   6.382 -0.1069  0.3087  0.6191
10681TIP3    H153534   3.614   5.296   6.312  2.1942  2.1060  1.1068
10681TIP3    H253535   3.632   5.287   6.462  0.7344 -0.4291  1.2040
10682TIP3   OH253536   4.266   2.797  10.170 -0.3157 -0.1834  0.1306
10682TIP3    H153537   4.224   2.877  10.202 -0.8159 -0.3034 -0.2108
10682TIP3    H253538   4.330   2.774  10.237 -0.7834  0.0199  0.6468
10683TIP3   OH253539   0.571   3.473  14.399 -0.3953 -0.3471  0.0933
10683TIP3    H153540   0.520   3.504  14.474 -1.7032 -1.1208 -0.4342
10683TIP3    H253541   0.586   3.380  14.417 -1.1156 -0.6485 -0.7926
10684TIP3   OH253542   4.953   3.045   1.097  0.3373  0.3438  0.4473
10684TIP3    H153543   4.889   2.995   1.148 -1.2221  3.3934  1.8032
10684TIP3    H253544   4.934   3.023   1.006 -1.4873 -0.1765  0.9067
10685TIP3   OH253545   2.484   6.028  15.487 -0.7524  0.3610 -0.1207
10685TIP3    H153546   2.406   6.003  15.437 -1.4544 -0.6695  1.3989
10685TIP3    H253547   2.541   5.951  15.482 -0.9417  0.1451  0.8265
10686TIP3   OH253548   0.539   2.051  12.903  0.2525  0.2631 -0.0759
10686TIP3    H153549   0.605   2.021  12.965 -0.6521 -0.0522  0.7765
10686TIP3    H253550   0.456   2.036  12.949 -0.3783  1.0991 -0.9185
10687TIP3   OH253551   3.256   5.490   6.014  0.4626  0.1811  0.1381
10687TIP3    H153552   3.181   5.521   5.963 -0.0212 -1.9079 -0.4942
10687TIP3    H253553   3.227   5.498   6.105 -0.5836 -0.6854 -0.0998
10688TIP3   OH253554   5.329   0.042  11.701  0.7651  0.4496  0.2646
10688TIP3    H153555   5.347   0.016  11.792  2.0636 -0.1225 -0.1327
10688TIP3    H253556   5.317   0.137  11.706 -0.7405  0.2515  1.2459
10689TIP3   OH253557   2.462   0.508   3.909 -0.2650  0.4198 -0.1667
10689TIP3    H153558   2.398   0.440   3.890 -0.1416 -0.0988  1.1484
10689TIP3    H253559   2.413   0.573   3.960  0.3404 -0.2142  1.2668
10690TIP3   OH253560   2.025   1.493  10.672 -0.1248  0.2277 -0.1247
10690TIP3    H153561   2.077   1.439  10.731  0.1624  0.8930  0.2422
10690TIP3    H253562   2.057   1.470  10.584 -0.0978 -0.2870  0.0166
10691TIP3   OH253563   4.685   4.173  15.726 -0.1893 -0.8478  0.1231
10691TIP3    H153564   4.665   4.215  15.642 -0.0264 -0.4362  0.2886
10691TIP3    H253565   4.625   4.098  15.730  0.1433 -1.1651 -0.5880
10692TIP3   OH253566   2.553   5.440   3.182 -0.2975  0.7058  0.3521
10692TIP3    H153567   2.539   5.346   3.191  0.8032  0.2379 -2.0197
10692TIP3    H253568   2.645   5.449   3.158 -0.6494  2.2770 -0.6087
10693TIP3   OH253569   0.711   3.245  14.253 -0.1642  0.0882 -0.2635
10693TIP3    H153570   0.773   3.172  14.253 -1.2805 -0.8857 -0.4638
10693TIP3    H253571   0.659   3.232  14.332  0.9839  1.9038  0.8709
10694TIP3   OH253572   0.243   4.133   2.744  0.4444 -0.0158  0.6445
10694TIP3    H153573   0.204   4.219   2.729  0.6069  0.2996  1.9285
10694TIP3    H253574   0.337   4.148   2.743  0.4761 -0.1990  0.7491
10695TIP3   OH253575   1.285   3.058   2.399 -0.2690 -0.2601 -0.1415
10695TIP3    H153576   1.239   2.977   2.424 -2.0796  1.0660  1.0835
10695TIP3    H253577   1.216   3.113   2.361  0.4811  1.4662  0.9168
10696TIP3   OH253578   5.395   2.388  13.999 -0.3605 -0.4220  0.0052
10696TIP3    H153579   5.329   2.387  13.930 -2.2238  0.5003  1.6695
10696TIP3    H253580   5.455   2.459  13.974 -1.9427  1.0023  0.0924
10697TIP3   OH253581   3.525   2.938  16.446 -0.2838  0.0861  0.6016
10697TIP3    H153582   3.573   2.863  16.481 -0.8074 -0.2894  0.5290
10697TIP3    H253583   3.451   2.899  16.399 -0.0447  0.6053 -0.2309
10698TIP3   OH253584   2.675   6.450  16.357  0.2874  0.0470  0.1018
10698TIP3    H153585   2.711   6.410  16.278  0.6980 -0.6671  0.6402
10698TIP3    H253586   2.652   6.539  16.330  0.7919 -0.0573 -0.7138
10699TIP3   OH253587   3.000   1.496  16.299 -0.2007 -0.3243  0.2161
10699TIP3    H153588   3.005   1.415  16.350 -0.4173 -0.1410  0.5333
10699TIP3    H253589   2.927   1.544  16.337  1.0145  0.8274  1.2220
10700TIP3   OH253590   0.821   6.253   4.006  0.1182  0.3823 -0.7269
10700TIP3    H153591   0.852   6.184   3.947  1.8659 -0.5414  1.1326
10700TIP3    H253592   0.794   6.207   4.085 -2.0317  1.5936 -0.6847
10701TIP3   OH253593   1.775   3.501   0.526 -0.0450 -0.3267  0.4316
10701TIP3    H153594   1.789   3.592   0.502  0.8493 -0.1552  1.5339
10701TIP3    H253595   1.751   3.458   0.444  0.6861  0.6651 -0.3216
10702TIP3   OH253596   3.055   6.234   3.543 -0.5127 -0.0204 -0.1143
10702TIP3    H153597   3.107   6.281   3.478 -0.0198 -2.0660 -1.2778
10702TIP3    H253598   2.966   6.235   3.508 -0.5185  0.1147 -0.0958
10703TIP3   OH253599   3.133   3.232   6.809 -0.1810 -0.0982 -0.0840
10703TIP3    H153600   3.074   3.218   6.883  1.7154 -0.0058  1.5252
10703TIP3    H253601   3.076   3.260   6.737 -1.8804  2.1510  1.9770
10704TIP3   OH253602   2.423   1.775   4.405 -0.0453 -0.0319  0.0750
10704TIP3    H153603   2.359   1.841   4.380 -1.5121 -1.5536 -0.3589
10704TIP3    H253604   2.481   1.768   4.330 -1.2535 -0.8153 -0.8232
10705TIP3   OH253605   5.856   5.975  13.193  0.3363 -0.3768 -0.6361
10705TIP3    H153606   5.814   5.997  13.277  0.0672 -0.4532 -0.7493
10705TIP3    H253607   5.946   6.008  13.202 -0.1468  1.0989 -0.9178
10706TIP3   OH253608   4.428   1.381   2.046  0.1530  0.0752  0.1370
10706TIP3    H153609   4.347   1.429   2.030  0.2525  0.7351  1.5289
10706TIP3    H253610   4.492   1.423   1.988 -0.2331  0.3154 -0.1199
10707TIP3   OH253611   6.167   6.650  14.107  0.3846  0.6482  0.1722
10707TIP3    H153612   6.110   6.575  14.089  0.7759  0.2685  0.4894
10707TIP3    H253613   6.110   6.726  14.099 -0.1337  0.2815  0.3484
10708TIP3   OH253614   1.739   1.363  15.104 -0.2262 -0.8361 -0.7071
10708TIP3    H153615   1.821   1.386  15.060 -1.5470 -0.8766 -3.3199
10708TIP3    H253616   1.752   1.272  15.132  1.2899 -0.2490  0.6886
10709TIP3   OH253617   5.178   2.540   3.001  0.6534  0.3234  0.5148
10709TIP3    H153618   5.270   2.525   3.023  0.9643  1.0270 -0.2609
10709TIP3    H253619   5.161   2.629   3.032  0.1658  0.1163  0.8528
10710TIP3   OH253620   4.853   1.451  12.787 -0.4563 -0.0249  0.2221
10710TIP3    H153621   4.805   1.473  12.707  0.0313  0.0054 -0.0701
10710TIP3    H253622   4.872   1.357  12.778  0.7270  0.2406 -0.3332
10711TIP3   OH253623   2.909   4.629  12.718 -0.2288 -0.0705 -0.3507
10711TIP3    H153624   2.887   4.673  12.636 -1.8275 -0.1267  0.0112
10711TIP3    H253625   3.002   4.608  12.710 -0.2445  0.3477 -1.9372
10712TIP3   OH253626   5.934   5.375  13.453  0.3242 -0.4421  0.0453
10712TIP3    H153627   6.027   5.356  13.464  0.2400 -0.9562 -0.1137
10712TIP3    H253628   5.928   5.413  13.365  0.4617  0.1246  0.2767
10713TIP3   OH253629   0.548   1.239   3.933  0.2114  0.2998 -0.1891
10713TIP3    H153630   0.455   1.216   3.936  0.2572 -0.0308 -0.9960
10713TIP3    H253631   0.554   1.304   3.863  0.8665 -1.1451 -1.5247
10714TIP3   OH253632   5.271   4.541   0.873 -0.3066 -0.2936 -0.0388
10714TIP3    H153633   5.330   4.490   0.817  0.5227  0.4095  0.1848
10714TIP3    H253634   5.255   4.484   0.948  3.3128  0.9212  1.9040
10715TIP3   OH253635   2.628   0.004   2.172 -0.3134  0.2159 -0.4330
10715TIP3    H153636   2.617  -0.023   2.081  0.2000 -0.4243 -0.3112
10715TIP3    H253637   2.554  -0.035   2.218 -2.0679  2.6557 -0.9759
10716TIP3   OH253638   3.638   4.319   1.043  0.0912  0.3481  0.5105
10716TIP3    H153639   3.588   4.283   0.970 -1.9220  0.5300  1.7400
10716TIP3    H253640   3.728   4.324   1.010 -0.0174 -3.1202 -0.6506
10717TIP3   OH253641   1.462   5.135  16.206 -0.1474  0.4087  0.2257
10717TIP3    H153642   1.511   5.120  16.125 -0.7974  1.5977 -0.4319
10717TIP3    H253643   1.517   5.100  16.275  0.5924 -0.3125 -0.7053
10718TIP3   OH253644   3.973   5.197  13.573  0.3793 -0.4361 -0.4466
10718TIP3    H153645   3.927   5.156  13.500  1.4519 -1.6294 -0.4971
10718TIP3    H253646   4.053   5.145  13.583  1.0588  0.7344  0.5031
10719TIP3   OH253647   5.696   4.103   2.007  0.4671 -0.3255 -0.1874
10719TIP3    H153648   5.740   4.168   1.952 -1.7576  0.7805 -0.7649
10719TIP3    H253649   5.642   4.053   1.946 -0.1263 -0.7304  0.6543
10720TIP3   OH253650   5.433   3.270   1.165 -0.3408  0.8706 -0.2878
10720TIP3    H153651   5.520   3.276   1.203  0.0506  0.6528 -1.1427
10720TIP3    H253652   5.380   3.332   1.217  0.4407  1.4188 -0.1326
10721TIP3   OH253653   3.505   2.427  11.881  0.3051 -0.4473 -0.4123
10721TIP3    H153654   3.476   2.437  11.790 -1.0945  1.7551  0.2069
10721TIP3    H253655   3.575   2.491  11.891 -1.5839  1.5975  0.7797
10722TIP3   OH253656   4.041   4.395  15.669 -0.0292  0.0473 -0.1753
10722TIP3    H153657   4.006   4.309  15.648  1.3367  0.0353 -2.9718
10722TIP3    H253658   4.015   4.450  15.595 -0.0650  1.8108  1.0850
10723TIP3   OH253659   5.000   4.668  11.567  0.0358 -0.0629 -0.2228
10723TIP3    H153660   5.016   4.722  11.490 -1.1436 -1.8610 -1.7911
10723TIP3    H253661   5.087   4.635  11.591  0.1591 -1.5099 -2.3762
10724TIP3   OH253662   5.874   3.807  15.746 -0.0901  0.0122 -0.0732
10724TIP3    H153663   5.822   3.856  15.809 -1.8754  2.4448 -3.1585
10724TIP3    H253664   5.828   3.724  15.735 -1.3315  0.6948 -0.1677
10725TIP3   OH253665   4.122   5.783   1.423 -0.2261  0.0480 -0.0527
10725TIP3    H153666   4.079   5.717   1.368  0.2890 -0.2203 -0.1328
10725TIP3    H253667   4.152   5.849   1.360  0.4355 -0.2989 -0.1056
10726TIP3   OH253668   6.294   4.405   0.485  0.2754  0.7134 -0.0682
10726TIP3    H153669   6.270   4.374   0.572 -0.3933 -1.1639 -0.8819
10726TIP3    H253670   6.225   4.468   0.462 -0.0945  0.4697  0.3613
10727TIP3   OH253671   2.497   3.635   5.556  0.4302 -0.5134  0.2071
10727TIP3    H153672   2.469   3.702   5.618 -1.7431 -0.6866 -0.4851
10727TIP3    H253673   2.522   3.561   5.610  1.1634  0.2331  0.9248
10728TIP3   OH253674   6.664   4.883  15.085 -0.2671 -0.6607  0.1383
10728TIP3    H153675   6.577   4.880  15.045  0.4689 -1.0008 -1.4736
10728TIP3    H253676   6.652   4.840  15.170 -1.7686 -0.2742  0.1604
10729TIP3   OH253677   0.679   1.310   4.413 -0.1151  0.0305  0.0619
10729TIP3    H153678   0.682   1.344   4.502  1.1852 -0.3810  0.1991
10729TIP3    H253679   0.587   1.318   4.387 -0.3689  0.8679  1.1499
10730TIP3   OH253680   4.863   0.375   0.211  0.3657  0.6140  0.3213
10730TIP3    H153681   4.772   0.344   0.215  0.6062 -0.1589  0.0949
10730TIP3    H253682   4.857   0.462   0.173 -0.2938  0.6123  0.4053
10731TIP3   OH253683   3.893   3.813   1.579  0.1186  0.0555 -0.2146
10731TIP3    H153684   3.827   3.766   1.631 -0.0660 -0.3533 -0.8020
10731TIP3    H253685   3.931   3.876   1.640  0.2343 -0.7220  0.5454
10732TIP3   OH253686   4.110   2.501   5.025 -0.2785  0.2622 -0.1394
10732TIP3    H153687   4.104   2.412   4.989 -0.3861  0.3150 -0.2513
10732TIP3    H253688   4.201   2.525   5.012 -0.4707  0.5461 -1.0075
10733TIP3   OH253689   4.592   2.246  14.008  0.5835 -0.1019  0.0237
10733TIP3    H153690   4.511   2.256  14.058  1.2190 -0.1452  1.1141
10733TIP3    H253691   4.636   2.330  14.018  1.1854 -0.4555  0.4151
10734TIP3   OH253692   2.864   1.799   2.303 -0.6689 -0.2665  0.1070
10734TIP3    H153693   2.869   1.840   2.217 -0.0110 -0.8148 -0.1186
10734TIP3    H253694   2.793   1.735   2.295 -0.8549 -0.0550  0.0798
10735TIP3   OH253695   5.800   6.286  13.345  0.5017 -0.2396 -0.0954
10735TIP3    H153696   5.706   6.271  13.341  0.5369 -0.7215  0.5695
10735TIP3    H253697   5.827   6.241  13.426  1.0978  0.9477  0.3816
10736TIP3   OH253698   2.075   3.480   2.729 -0.7076 -0.9312  0.1301
10736TIP3    H153699   2.165   3.446   2.726  0.6912  2.4807 -0.6111
10736TIP3    H253700   2.046   3.461   2.818 -0.3058 -4.3141 -0.3178
10737TIP3   OH253701   1.109   0.805  16.993 -0.1361 -0.2184 -0.0803
10737TIP3    H153702   1.175   0.851  16.941 -0.0381 -0.6191 -0.3159
10737TIP3    H253703   1.037   0.789  16.932  0.5309 -1.8787 -0.4696
10738TIP3   OH253704   5.284   3.981   5.506  0.1321 -0.2732  0.2490
10738TIP3    H153705   5.330   3.920   5.448  0.9542  1.6657 -1.2687
10738TIP3    H253706   5.193   3.953   5.503  0.5031 -1.5039 -0.2651
10739TIP3   OH253707   3.397   2.646   6.535 -0.1139 -0.0051  0.1563
10739TIP3    H153708   3.389   2.716   6.470 -0.5008 -0.6336 -0.4753
10739TIP3    H253709   3.340   2.674   6.607 -3.1107 -1.2821 -1.5385
10740TIP3   OH253710   1.061   0.693   0.340  0.0395  0.6602  0.3778
10740TIP3    H153711   1.023   0.674   0.426 -0.5510 -0.8446 -0.1806
10740TIP3    H253712   0.986   0.715   0.286  0.3475  1.0649  0.1174
10741TIP3   OH253713   3.918   0.354  15.370  0.1065 -0.0246 -0.7406
10741TIP3    H153714   3.983   0.310  15.315  0.2299 -0.4867 -0.2283
10741TIP3    H253715   3.955   0.442  15.384 -0.2803  0.3529 -2.0043
10742TIP3   OH253716   6.229   2.589   2.509  0.4695  0.2814 -0.2954
10742TIP3    H153717   6.264   2.532   2.578 -0.8625 -0.8894 -0.5577
10742TIP3    H253718   6.175   2.653   2.556  0.0582 -0.1390 -0.1871
10743TIP3   OH253719   2.171   0.128  16.593  0.0889 -0.4584 -0.0433
10743TIP3    H153720   2.193   0.205  16.645 -0.9145  0.5222 -1.0219
10743TIP3    H253721   2.161   0.058  16.657 -3.1868  1.1429  1.4339
10744TIP3   OH253722   0.568   1.588  17.283  0.4545  0.1291 -0.2408
10744TIP3    H153723   0.637   1.567  17.345 -1.3443 -0.3105  1.7444
10744TIP3    H253724   0.502   1.519  17.297 -0.8392  1.0970 -1.3164
10745TIP3   OH253725   6.141   1.942  14.512  0.3220 -0.0077  0.5615
10745TIP3    H153726   6.183   1.911  14.431 -3.3369 -1.5480 -0.9599
10745TIP3    H253727   6.147   2.037  14.507 -0.6229  0.0127 -2.1303
10746TIP3   OH253728   1.922   1.444   0.347 -0.5478  0.3984 -0.2396
10746TIP3    H153729   1.963   1.443   0.434  1.0764 -0.5598 -0.9777
10746TIP3    H253730   1.888   1.356   0.336 -1.2392  0.6799 -0.3657
10747TIP3   OH253731   2.284   3.534   6.617 -0.3976 -0.6556  0.5302
10747TIP3    H153732   2.367   3.554   6.575 -0.3110  0.5806  1.2432
10747TIP3    H253733   2.221   3.531   6.545  0.2232 -1.4356  0.0083
10748TIP3   OH253734   3.449   3.383   2.720  0.0447  0.8247 -0.1411
10748TIP3    H153735   3.471   3.438   2.795  0.8998  0.2993  0.0100
10748TIP3    H253736   3.520   3.399   2.658 -0.4275  0.9229 -0.6556
10749TIP3   OH253737   4.566   0.494   0.524 -0.2722 -0.5878 -0.1608
10749TIP3    H153738   4.524   0.484   0.439  2.1817 -0.1913 -1.5008
10749TIP3    H253739   4.495   0.521   0.583 -1.9057 -0.1827 -2.2131
10750TIP3   OH253740   1.818   1.491  11.060  0.0285  0.4557  0.2500
10750TIP3    H153741   1.748   1.440  11.019 -1.3681  0.5466  2.3674
10750TIP3    H253742   1.802   1.581  11.033 -0.9232  0.5266  1.0066
10751TIP3   OH253743   0.515   5.287  16.379  0.0524  0.9769  0.1796
10751TIP3    H153744   0.472   5.268  16.295 -0.4920 -0.9712  0.8608
10751TIP3    H253745   0.608   5.294  16.357 -0.1706  1.3520 -0.7091
10752TIP3   OH253746   5.432   4.418  14.260 -0.2752 -0.5655  0.1219
10752TIP3    H153747   5.371   4.399  14.332 -0.6584  0.0738 -0.0254
10752TIP3    H253748   5.411   4.353  14.193 -0.3063 -0.8008  0.3572
10753TIP3   OH253749   6.452   0.654   1.822  0.4621 -0.6722  0.2311
10753TIP3    H153750   6.423   0.576   1.870 -1.2012  0.3313  0.9334
10753TIP3    H253751   6.371   0.703   1.805  1.4607  0.8411 -0.3303
10754TIP3   OH253752   2.641   2.514  12.909  0.7303 -0.0548  0.1004
10754TIP3    H153753   2.575   2.457  12.869  0.9322 -1.3954  1.5861
10754TIP3    H253754   2.690   2.550  12.835 -0.2333 -0.8058 -0.9238
10755TIP3   OH253755   6.700   2.893  14.065 -0.0660  0.7784  0.7023
10755TIP3    H153756   6.695   2.864  14.156 -2.1174  1.6675  0.9274
10755TIP3    H253757   6.783   2.939  14.059 -0.5030  1.8890  2.5194
10756TIP3   OH253758   5.330   0.748  16.124  0.4179  0.1351 -0.1871
10756TIP3    H153759   5.388   0.815  16.160  1.2821 -0.9775  0.5250
10756TIP3    H253760   5.325   0.770  16.031  1.8208  0.3807 -0.2306
10757TIP3   OH253761   3.202   0.531   1.014  0.3143 -0.5929  0.7107
10757TIP3    H153762   3.270   0.501   1.073  0.1004 -0.5370  0.9872
10757TIP3    H253763   3.211   0.626   1.013  0.8167 -0.6408  0.0466
10758TIP3   OH253764   2.153   3.241   5.449  0.8172 -0.2310  0.3575
10758TIP3    H153765   2.136   3.297   5.373  0.6194 -0.3211  0.3371
10758TIP3    H253766   2.129   3.153   5.420 -1.9026  0.0895  1.3980
10759TIP3   OH253767   6.493   1.089  13.413  0.0621 -0.0657 -0.2235
10759TIP3    H153768   6.441   1.022  13.457  1.7716  0.3771  2.8525
10759TIP3    H253769   6.583   1.056  13.419  0.8130  1.9411  0.3642
10760TIP3   OH253770   5.010   1.352   3.853  0.1427  0.3092  0.6612
10760TIP3    H153771   4.961   1.434   3.847  0.3674  0.3436 -1.3326
10760TIP3    H253772   5.080   1.360   3.787  1.3968 -0.6929  1.8053
10761TIP3   OH253773   6.503   4.710   1.492  0.2402 -0.0511 -0.2678
10761TIP3    H153774   6.481   4.683   1.403  2.3258  0.8837 -1.1270
10761TIP3    H253775   6.582   4.660   1.514  0.4749  0.6534  0.5554
10762TIP3   OH253776   4.290   6.597  16.501 -0.2015 -0.0036  0.0303
10762TIP3    H153777   4.272   6.643  16.583  0.5737 -0.8442  0.6873
10762TIP3    H253778   4.382   6.618  16.481 -0.5896  0.7877 -1.0246
10763TIP3   OH253779   1.058   2.388   5.452 -0.5735  0.2632 -0.1568
10763TIP3    H153780   1.019   2.465   5.493  1.2376  1.4692 -0.5769
10763TIP3    H253781   1.096   2.339   5.525 -0.8443  0.2931  0.0057
10764TIP3   OH253782   6.447   3.668   2.250 -0.0941 -0.1499 -0.5031
10764TIP3    H153783   6.531   3.712   2.255 -0.4285  0.9021 -2.7435
10764TIP3    H253784   6.393   3.713   2.315  0.6463  0.2013 -0.1179
10765TIP3   OH253785   3.581   4.004  11.728 -0.2264 -0.5844  0.0967
10765TIP3    H153786   3.505   3.967  11.684 -2.1590  0.5183  2.3008
10765TIP3    H253787   3.603   4.081  11.675 -2.2581  0.5058  0.7348
10766TIP3   OH253788   3.332   4.942   2.048 -0.1406  0.1270 -0.1360
10766TIP3    H153789   3.269   5.013   2.050 -1.3390 -0.8864  2.3291
10766TIP3    H253790   3.297   4.879   1.986 -0.4725  0.5023 -0.3273
10767TIP3   OH253791   4.114   3.158  13.832 -0.0309  0.8526 -0.1346
10767TIP3    H153792   4.031   3.111  13.818 -0.1416  1.3626 -1.3164
10767TIP3    H253793   4.176   3.113  13.776  0.4290  0.6763  0.5056
10768TIP3   OH253794   1.881   3.708   0.091 -0.0755 -0.0116  0.1592
10768TIP3    H153795   1.932   3.670   0.020 -1.2367 -1.1818 -0.1018
10768TIP3    H253796   1.793   3.719   0.054 -0.8775 -1.2565  1.5552
10769TIP3   OH253797   4.863   6.708   2.481 -0.1498  0.4762  0.1544
10769TIP3    H153798   4.944   6.742   2.441  0.9122  0.4189  2.1116
10769TIP3    H253799   4.884   6.703   2.575 -1.3905 -2.4637  0.3693
10770TIP3   OH253800   5.633   2.309   0.246 -0.4868 -0.4098 -0.1229
10770TIP3    H153801   5.695   2.277   0.181  0.8322  0.9511  0.3911
10770TIP3    H253802   5.678   2.297   0.330 -0.2209  1.9599  0.1475
10771TIP3   OH253803   2.935   3.674  17.004 -0.2717 -0.0026 -0.0647
10771TIP3    H153804   3.001   3.724  16.955  0.8389  0.8086  2.1328
10771TIP3    H253805   2.927   3.592  16.955  2.1647 -0.0099 -0.5973
10772TIP3   OH253806   4.131   0.173   0.224 -0.1056 -0.1589  0.2678
10772TIP3    H153807   4.144   0.209   0.312  1.1555  0.6592 -0.2164
10772TIP3    H253808   4.194   0.101   0.219  1.8788  1.5256 -0.8509
10773TIP3   OH253809   0.030   0.543  16.939 -0.1733  0.4274  0.4427
10773TIP3    H153810  -0.058   0.547  16.901  0.5358  1.1819 -1.2126
10773TIP3    H253811   0.069   0.628  16.919  1.2346 -0.1991  0.4143
10774TIP3   OH253812   6.520   5.196  13.160  0.5092 -0.1375  0.1817
10774TIP3    H153813   6.438   5.173  13.202  0.3020  0.3371  0.0464
10774TIP3    H253814   6.547   5.117  13.113  0.5541 -0.5560  0.8926
10775TIP3   OH253815   5.575   2.475  15.539  0.2417  0.6725 -0.5275
10775TIP3    H153816   5.617   2.513  15.462  0.5295 -0.4693 -0.9534
10775TIP3    H253817   5.640   2.483  15.608 -0.1197  1.9541 -0.3146
10776TIP3   OH253818   3.958   4.505  13.459  0.3642 -0.0354  0.6876
10776TIP3    H153819   3.972   4.587  13.413 -0.4153 -1.1961 -1.7960
10776TIP3    H253820   3.863   4.502  13.472  0.2405 -1.0260 -0.3032
10777TIP3   OH253821   1.352   1.611  12.270  0.3217 -0.1023 -0.2382
10777TIP3    H153822   1.395   1.609  12.356 -0.7046 -2.2017  0.3017
10777TIP3    H253823   1.370   1.524  12.233 -1.0544  0.0081 -1.2175
10778TIP3   OH253824   2.666   5.713   2.996 -0.0459 -0.2634  0.5397
10778TIP3    H153825   2.724   5.642   2.970 -0.9483 -0.9054  0.2341
10778TIP3    H253826   2.703   5.745   3.078  1.2100 -0.0914 -0.0768
10779TIP3   OH253827   1.827   1.506   0.081 -0.3740  0.1889 -0.8640
10779TIP3    H153828   1.742   1.465   0.094 -1.7191  2.9796  0.0995
10779TIP3    H253829   1.875   1.488   0.162 -0.3274 -0.7915 -1.1079
10780TIP3   OH253830   0.298   4.565   0.725  0.6614 -0.1624  0.3553
10780TIP3    H153831   0.255   4.480   0.734 -0.6271  0.4845  0.6229
10780TIP3    H253832   0.305   4.597   0.815  3.5094 -1.0601  0.5368
10781TIP3   OH253833   1.867   6.024   3.066  0.4074  0.7379 -0.5531
10781TIP3    H153834   1.902   6.027   3.155  0.4125 -0.5304 -0.4874
10781TIP3    H253835   1.773   6.011   3.077  0.7767 -3.1356 -0.6216
10782TIP3   OH253836   5.564   1.980   2.718  0.4348  0.0397 -0.2805
10782TIP3    H153837   5.585   1.902   2.769  0.3627  0.3484  0.2232
10782TIP3    H253838   5.647   2.006   2.679  0.4712 -0.2504 -0.4047
10783TIP3   OH253839   2.844   1.643   0.791 -0.0796  0.1036 -0.0893
10783TIP3    H153840   2.782   1.576   0.821  0.3262  0.8072  2.5508
10783TIP3    H253841   2.789   1.717   0.766 -0.4051  0.5229  1.7162
10784TIP3   OH253842   5.790   2.899  15.273  0.0278  0.4307 -0.5258
10784TIP3    H153843   5.707   2.863  15.305  0.4312 -1.3837 -1.4135
10784TIP3    H253844   5.792   2.989  15.307 -1.9120  0.2434  0.1778
10785TIP3   OH253845   2.570   1.582  14.047 -0.0740 -0.0428  0.1560
10785TIP3    H153846   2.664   1.570  14.034 -0.1229  0.9040 -1.3996
10785TIP3    H253847   2.561   1.608  14.138  1.0626 -1.1369  0.6009
10786TIP3   OH253848   2.463   6.142  16.219 -0.4016 -0.3050  0.1394
10786TIP3    H153849   2.385   6.090  16.198 -0.6208 -0.0846  0.3961
10786TIP3    H253850   2.500   6.164  16.134 -0.9588  0.0903 -0.0135
10787TIP3   OH253851   6.398   3.150   4.414  0.3241  0.6071 -0.0305
10787TIP3    H153852   6.376   3.140   4.321  1.7601  0.1486 -0.3418
10787TIP3    H253853   6.451   3.073   4.435  0.9353  1.2532  0.8741
10788TIP3   OH253854   4.439   3.944  17.117  0.6066 -0.3434  0.8340
10788TIP3    H153855   4.407   3.937  17.207 -1.9768 -1.7537 -0.0915
10788TIP3    H253856   4.417   3.860  17.077 -0.5619  1.0654 -1.7668
10789TIP3   OH253857   3.995   4.759   0.878  0.0148 -0.1788 -0.3867
10789TIP3    H153858   3.908   4.780   0.842 -0.5221  0.2787  1.1075
10789TIP3    H253859   4.001   4.813   0.957  2.3074  0.9504 -1.2543
10790TIP3   OH253860   6.264   4.628  12.869  0.1267 -0.4899  0.4483
10790TIP3    H153861   6.228   4.540  12.879 -0.7316 -0.1614  0.2880
10790TIP3    H253862   6.194   4.687  12.899  1.0118  0.1055  1.4255
10791TIP3   OH253863   6.006   1.813   3.749  0.6089  0.2306  0.4641
10791TIP3    H153864   6.019   1.728   3.706 -0.2160  0.4560 -0.2699
10791TIP3    H253865   5.970   1.869   3.680 -1.6105  0.3514  1.6313
10792TIP3   OH253866   5.473   3.488   6.234  0.5124  0.0130 -0.0421
10792TIP3    H153867   5.555   3.514   6.193  0.0286 -0.3623 -1.3082
10792TIP3    H253868   5.429   3.571   6.254  0.9514  0.2093  0.1088
10793TIP3   OH253869   0.877   5.902  13.131 -0.5053  0.4532 -0.0769
10793TIP3    H153870   0.916   5.989  13.140  2.2107 -0.3975 -2.0692
10793TIP3    H253871   0.818   5.910  13.057  0.0707  0.5173 -0.5350
10794TIP3   OH253872   6.477   0.219  17.282 -0.3709 -0.0176  0.3436
10794TIP3    H153873   6.561   0.205  17.239  0.3707 -1.5021  2.1385
10794TIP3    H253874   6.421   0.147  17.251  0.1229 -1.0111  1.6553
10795TIP3   OH253875   5.406   4.278   3.365  0.2927 -0.3343 -0.0700
10795TIP3    H153876   5.480   4.226   3.332  1.6631  1.2057  0.4315
10795TIP3    H253877   5.397   4.350   3.303  2.2952  2.0704  2.2021
10796TIP3   OH253878   4.040   4.386  13.203 -0.3692  0.4571 -0.0939
10796TIP3    H153879   4.029   4.442  13.126 -2.2251  0.5393  0.1815
10796TIP3    H253880   4.058   4.447  13.274 -0.3668  0.5250 -0.1520
10797TIP3   OH253881   2.024   2.943  14.589 -0.6203  0.5267 -0.1428
10797TIP3    H153882   2.023   2.913  14.498  0.8328 -1.2304  0.3657
10797TIP3    H253883   2.116   2.966  14.605 -1.1316  2.2757  0.4657
10798TIP3   OH253884   5.220   2.916  13.923 -0.2962 -0.0541 -0.7997
10798TIP3    H153885   5.141   2.870  13.896 -0.9226  1.2978 -1.3972
10798TIP3    H253886   5.218   2.999  13.875  1.0631  0.3747 -0.2053
10799TIP3   OH253887   0.924   3.785   3.752 -0.1193  0.0427 -0.1433
10799TIP3    H153888   0.975   3.812   3.828 -0.2000 -0.7521  0.2119
10799TIP3    H253889   0.833   3.791   3.781 -0.2150  0.9533 -0.6024
10800TIP3   OH253890   5.409   1.415  10.666 -0.1623 -0.7651  0.2306
10800TIP3    H153891   5.412   1.487  10.603 -0.8214  0.2742  1.3392
10800TIP3    H253892   5.499   1.383  10.671  0.1179 -0.0899 -0.3606
10801TIP3   OH253893   4.440   1.703   4.145 -0.1722  0.0254 -0.0122
10801TIP3    H153894   4.449   1.789   4.187 -0.3529 -0.1303  0.3536
10801TIP3    H253895   4.401   1.648   4.213  0.4833 -0.4974 -0.0485
10802TIP3   OH253896   3.533   0.115  17.120  0.1421  0.5396 -0.0480
10802TIP3    H153897   3.496   0.126  17.032  0.3706 -2.6740 -0.6603
10802TIP3    H253898   3.586   0.036  17.114  1.5284  1.1683  2.5971
10803TIP3   OH253899   1.081   3.592   2.796 -0.0398 -0.2773 -0.1631
10803TIP3    H153900   1.134   3.642   2.859 -1.1260  0.3337  0.3019
10803TIP3    H253901   0.992   3.597   2.831 -0.1923 -2.6727 -0.0203
10804TIP3   OH253902   0.936   0.625   4.732 -0.5055  0.3842  0.2589
10804TIP3    H153903   0.864   0.580   4.687 -0.5966  1.1950 -0.4175
10804TIP3    H253904   0.997   0.648   4.662 -0.8001  1.9415  0.4990
10805TIP3   OH253905   2.785   5.683   4.490 -0.0009 -0.0252 -0.0862
10805TIP3    H153906   2.785   5.623   4.415  1.0122  0.1225 -0.2272
10805TIP3    H253907   2.711   5.741   4.475  0.1845 -0.0003 -0.9681
10806TIP3   OH253908   2.343   2.607   3.524 -0.1216 -0.2389  0.1471
10806TIP3    H153909   2.352   2.560   3.441  2.0076  0.7134 -0.2227
10806TIP3    H253910   2.280   2.677   3.506 -1.3761 -1.3524  0.0112
10807TIP3   OH253911   0.412   5.739  12.306  1.1747  0.1861 -0.4297
10807TIP3    H153912   0.338   5.775  12.354  2.0743  0.3601  0.8894
10807TIP3    H253913   0.382   5.653  12.275  1.2479 -1.0071  2.4742
10808TIP3   OH253914   2.122   6.627  11.772  0.1214 -0.8781 -0.4871
10808TIP3    H153915   2.059   6.560  11.743  0.7194 -1.6466 -0.0672
10808TIP3    H253916   2.204   6.579  11.781  0.4594 -0.1714  0.2846
10809TIP3   OH253917   3.515   3.422   0.585  0.0159 -0.3146  0.6550
10809TIP3    H153918   3.432   3.416   0.537 -0.5997  2.8924  1.0514
10809TIP3    H253919   3.500   3.372   0.665 -0.4254 -2.2402 -0.5758
10810TIP3   OH253920   6.815   0.382  11.740 -0.2122 -0.1768 -0.0067
10810TIP3    H153921   6.877   0.395  11.667 -1.7365 -3.5943 -2.1773
10810TIP3    H253922   6.869   0.347  11.811  0.8620  0.2064 -0.6043
10811TIP3   OH253923   4.964   3.997  16.118 -0.1301  0.0431 -0.2996
10811TIP3    H153924   5.039   3.964  16.069  1.5977  1.4218  1.2444
10811TIP3    H253925   4.965   4.091  16.103 -1.1661  0.1497  0.2344
10812TIP3   OH253926   2.707   0.671   4.883 -0.4361  0.4710 -0.1204
10812TIP3    H153927   2.649   0.612   4.834 -0.1098  1.8643 -2.3258
10812TIP3    H253928   2.795   0.637   4.866 -0.4198 -0.4712  1.6027
10813TIP3   OH253929   0.661   2.103  11.033  0.0972  0.6367  0.4724
10813TIP3    H153930   0.705   2.152  10.963  1.4188  1.0441  1.5299
10813TIP3    H253931   0.699   2.016  11.029  1.0547  0.9895  1.3903
10814TIP3   OH253932   2.352   6.121   1.299 -0.6558 -0.6334 -0.3207
10814TIP3    H153933   2.428   6.111   1.241 -1.3915 -1.7984 -1.1216
10814TIP3    H253934   2.383   6.087   1.383  0.4975  1.3007  0.0887
10815TIP3   OH253935   4.181   1.755  12.264  0.0205  0.0790 -0.1751
10815TIP3    H153936   4.191   1.735  12.357 -1.4143 -0.7216 -0.1611
10815TIP3    H253937   4.231   1.688  12.219  1.1599  0.7767  0.0009
10816TIP3   OH253938   4.696   0.884  13.208  0.3335  0.0653  0.0654
10816TIP3    H153939   4.703   0.871  13.113  0.3793  0.9088 -0.0536
10816TIP3    H253940   4.602   0.890  13.225  0.3330  0.1100  0.0468
10817TIP3   OH253941   3.620   3.868   3.427  0.4647  0.1076 -0.0860
10817TIP3    H153942   3.635   3.962   3.439 -0.8134  0.1934  1.0042
10817TIP3    H253943   3.537   3.851   3.471  1.0620 -1.6838  0.4318
10818TIP3   OH253944   0.450   3.448   0.585 -0.7932 -0.3472  0.7998
10818TIP3    H153945   0.368   3.479   0.547 -0.2807 -1.2831 -1.2127
10818TIP3    H253946   0.513   3.456   0.513  0.9265  0.4947  2.3455
10819TIP3   OH253947   5.750   4.898  15.975 -0.0581 -0.0179  0.2689
10819TIP3    H153948   5.838   4.905  15.939  0.3768 -0.7642  1.1713
10819TIP3    H253949   5.745   4.809  16.010 -2.0852 -0.9675 -2.1282
10820TIP3   OH253950   3.423   2.250  14.444  0.3491 -0.3295  0.1320
10820TIP3    H153951   3.436   2.221  14.354 -0.8740  0.4320 -0.3073
10820TIP3    H253952   3.330   2.233  14.461  0.5337 -0.3307  1.2084
10821TIP3   OH253953   1.439   2.838  10.526  0.3775 -0.3169 -0.2416
10821TIP3    H153954   1.464   2.873  10.441  1.0864 -0.5250 -0.1248
10821TIP3    H253955   1.520   2.838  10.577 -0.2774  1.1156  0.8967
10822TIP3   OH253956   2.120   2.844   2.405 -0.1756 -0.0287 -0.3145
10822TIP3    H153957   2.207   2.827   2.443 -0.0309  2.0567  0.3985
10822TIP3    H253958   2.083   2.913   2.460 -1.8123 -0.0597 -1.3298
10823TIP3   OH253959   3.689   0.960   4.796  0.5739 -0.1811  0.5467
10823TIP3    H153960   3.625   0.950   4.866  0.4490  0.2463  0.4976
10823TIP3    H253961   3.672   1.047   4.760  0.7798 -0.3100  0.1297
10824TIP3   OH253962   0.097   0.800   5.424 -0.2979  0.1413 -0.2289
10824TIP3    H153963   0.048   0.868   5.470 -1.3452 -0.1829 -0.8340
10824TIP3    H253964   0.063   0.718   5.459  1.3027 -0.1197  0.8556
10825TIP3   OH253965   6.373   5.672  12.809  0.7026 -0.7094  0.1323
10825TIP3    H153966   6.286   5.675  12.847 -0.1698 -0.0778 -1.7638
10825TIP3    H253967   6.387   5.760  12.774  0.4557 -1.7355 -2.8878
10826TIP3   OH253968   1.818   6.201  14.073  0.0082 -0.5612 -0.2131
10826TIP3    H153969   1.795   6.291  14.052 -0.0803 -1.0119 -2.2526
10826TIP3    H253970   1.762   6.178  14.147  0.5176  1.2392  0.7765
10827TIP3   OH253971   5.252   2.709   5.584 -0.1199  0.2829  0.4128
10827TIP3    H153972   5.229   2.703   5.492  0.3551  0.5516  0.2746
10827TIP3    H253973   5.243   2.619   5.617 -1.5839  0.4024  0.4319
10828TIP3   OH253974   0.700   6.807  12.533  0.4172  0.2173  0.5907
10828TIP3    H153975   0.781   6.776  12.572  0.4396  0.3081  0.6163
10828TIP3    H253976   0.699   6.768  12.445 -0.1239 -0.8151  1.0432
10829TIP3   OH253977   5.996   3.139   0.422 -0.5029 -0.2813 -0.3207
10829TIP3    H153978   5.920   3.092   0.456  0.1478 -0.7593  0.5057
10829TIP3    H253979   6.020   3.092   0.343  0.2547 -1.4927  0.5957
10830TIP3   OH253980   3.385   0.882  16.653  0.2452 -0.0102 -0.0236
10830TIP3    H153981   3.375   0.931  16.735 -1.4337 -1.2962  0.6182
10830TIP3    H253982   3.363   0.792  16.677 -1.6077 -0.1941 -2.1342
10831TIP3   OH253983   0.912   6.310  11.302  0.7186  0.1713 -0.2861
10831TIP3    H153984   0.910   6.391  11.251 -0.7917  1.8154  2.1989
10831TIP3    H253985   0.821   6.292  11.324  1.2798 -0.3218  1.9390
10832TIP3   OH253986   1.909   5.428   3.041  0.2737  0.0012 -0.2051
10832TIP3    H153987   1.942   5.359   2.983 -0.0239  0.5264 -1.0189
10832TIP3    H253988   1.859   5.381   3.108  2.8150 -0.8521  1.2193
10833TIP3   OH253989   4.042   0.038  16.245  0.1633 -0.2061 -0.0594
10833TIP3    H153990   4.127   0.006  16.214  0.8491 -0.1245  1.5782
10833TIP3    H253991   4.014   0.102  16.180  0.6240 -1.3061 -1.3950
10834TIP3   OH253992   3.891   6.242   1.545 -0.5932 -0.3892 -0.1602
10834TIP3    H153993   3.917   6.309   1.483  0.0378 -0.3721  0.1189
10834TIP3    H253994   3.797   6.229   1.528 -0.4614 -0.2953 -1.0232
10835TIP3   OH253995   3.641   2.274  17.107  0.5248 -0.6766 -0.5410
10835TIP3    H153996   3.580   2.235  17.044  1.1943 -0.9924 -1.0051
10835TIP3    H253997   3.700   2.326  17.053 -0.4508  1.1588  0.0857
10836TIP3   OH253998   0.361   2.700  12.413 -0.2027 -0.2437 -0.2884
10836TIP3    H153999   0.371   2.733  12.502  0.9328  1.0970 -0.8606
10836TIP3    H254000   0.354   2.605  12.422 -3.5008  0.0076  1.4561
10837TIP3   OH254001   4.927   4.175   5.557 -0.1490 -0.3472 -0.0969
10837TIP3    H154002   4.999   4.152   5.615  1.1798 -0.3645 -1.6767
10837TIP3    H254003   4.921   4.271   5.561 -1.1119 -0.4379  1.2217
10838TIP3   OH254004   2.749   4.759   1.972  0.2105 -0.2521  0.1014
10838TIP3    H154005   2.736   4.789   1.882  1.0838 -1.5157 -0.4712
10838TIP3    H254006   2.842   4.739   1.978  0.1716 -0.1436  1.3042
10839TIP3   OH254007   4.416   0.350  10.694  0.1049  0.1884  0.2107
10839TIP3    H154008   4.463   0.404  10.631  0.8342 -0.0430  0.5384
10839TIP3    H254009   4.483   0.290  10.728  0.3506  1.8247  2.9403
10840TIP3   OH254010   6.603   2.606  16.816 -0.4554  0.4446 -0.4208
10840TIP3    H154011   6.661   2.541  16.856 -0.0213 -0.7000 -2.7678
10840TIP3    H254012   6.531   2.555  16.780 -1.3073  1.5374 -0.3176
10841TIP3   OH254013   3.377   4.784  13.513  0.1145 -0.5316  0.2981
10841TIP3    H154014   3.392   4.873  13.543  0.2017 -0.9002  1.3997
10841TIP3    H254015   3.390   4.788  13.419  3.3208 -0.0006  0.6419
10842TIP3   OH254016   1.133   3.699  14.174  0.3129  0.5032  0.2528
10842TIP3    H154017   1.112   3.745  14.255 -0.0285  0.7141  0.0520
10842TIP3    H254018   1.178   3.620  14.201 -3.1822 -1.4542  0.9568
10843TIP3   OH254019   4.151   5.431  11.525 -0.3656 -0.4227 -0.4906
10843TIP3    H154020   4.175   5.520  11.554 -1.2617 -0.6842  1.1934
10843TIP3    H254021   4.099   5.445  11.446 -3.0967  0.8594  1.3680
10844TIP3   OH254022   1.277   1.962   4.392 -0.0584  0.1156  0.6597
10844TIP3    H154023   1.292   1.926   4.479  1.9664 -1.3637 -0.1934
10844TIP3    H254024   1.343   2.031   4.383  0.1199 -0.1093  0.1509
10845TIP3   OH254025   0.734   3.026   5.233  0.6883  0.1773 -0.1805
10845TIP3    H154026   0.695   2.947   5.270  1.3320 -0.1693 -0.2279
10845TIP3    H254027   0.824   3.026   5.265 -0.0753  2.5204  2.3904
10846TIP3   OH254028   2.742   2.445  14.197  0.4392  0.1731  0.1676
10846TIP3    H154029   2.721   2.448  14.104 -0.8352 -2.1830  0.2939
10846TIP3    H254030   2.826   2.400  14.202  0.0279 -0.6197  0.1651
10847TIP3   OH254031   2.933   1.546  16.837  0.2374 -0.8602 -0.1717
10847TIP3    H154032   2.863   1.573  16.778 -1.3738 -3.4380  0.3982
10847TIP3    H254033   3.001   1.511  16.779 -0.0687 -0.7090 -0.6284
10848TIP3   OH254034   0.829   4.309   2.311  0.1020 -0.4368  0.2247
10848TIP3    H154035   0.886   4.271   2.377  0.0739  0.4064  0.7535
10848TIP3    H254036   0.832   4.404   2.328  1.3412 -0.0164 -1.9726
10849TIP3   OH254037   5.328   4.796  12.403 -0.4243 -0.1225  0.1902
10849TIP3    H154038   5.305   4.881  12.365 -2.4393 -1.0930 -0.9008
10849TIP3    H254039   5.363   4.745  12.330  0.8546 -0.2429  0.8537
10850TIP3   OH254040   4.282   2.799  16.527 -0.2353  0.6302  0.0901
10850TIP3    H154041   4.197   2.826  16.494 -1.8218 -2.2208  1.5069
10850TIP3    H254042   4.290   2.842  16.612 -1.3384 -0.7612  0.9447
10851TIP3   OH254043   3.912   0.937  14.376  0.2283  0.4073  0.1601
10851TIP3    H154044   4.004   0.908  14.372  0.3228  0.3875  1.8518
10851TIP3    H254045   3.882   0.933  14.285  1.8853  0.3679 -0.4207
10852TIP3   OH254046   1.451   0.704   3.214 -0.2369 -0.2273 -0.0375
10852TIP3    H154047   1.465   0.771   3.281  0.6991  1.1347 -1.5391
10852TIP3    H254048   1.520   0.639   3.230 -0.0191  0.0839  0.3114
10853TIP3   OH254049   0.886   0.342  16.399 -0.1219 -0.1589  0.0928
10853TIP3    H154050   0.921   0.431  16.404 -0.8787  0.1930 -0.5975
10853TIP3    H254051   0.905   0.304  16.485  1.4479  0.1892 -0.0731
10854TIP3   OH254052   2.028   0.573  11.588  0.6964 -0.0677  0.2193
10854TIP3    H154053   2.063   0.491  11.623 -1.1086 -1.2352 -0.5713
10854TIP3    H254054   2.077   0.588  11.507  1.2241 -0.1968  0.5081
10855TIP3   OH254055   0.353   0.916   5.388 -0.2086  0.6163  0.2638
10855TIP3    H154056   0.263   0.884   5.382  0.3510 -2.1304  3.3209
10855TIP3    H254057   0.363   0.939   5.481  2.5127 -0.2583  0.2600
10856TIP3   OH254058   3.009   0.807  14.897  0.5185  0.0853 -0.2069
10856TIP3    H154059   2.996   0.756  14.977 -0.7752 -0.9228 -1.0242
10856TIP3    H254060   3.028   0.896  14.928  0.8637 -0.4651  1.2207
10857TIP3   OH254061   0.568   4.069   2.119  0.5569 -0.5695 -0.6073
10857TIP3    H154062   0.561   4.143   2.179  0.9196 -1.5409  0.6688
10857TIP3    H254063   0.634   4.096   2.055 -0.1938  0.6776 -0.8945
10858TIP3   OH254064   6.120   6.240  16.742 -0.9120 -0.0676 -0.6271
10858TIP3    H154065   6.114   6.145  16.754 -0.3615  0.0139  0.3905
10858TIP3    H254066   6.142   6.273  16.829  0.7883  0.8262 -1.3604
10859TIP3   OH254067   0.043   5.126   6.176 -0.0536  0.1984 -0.1218
10859TIP3    H154068   0.104   5.199   6.186 -1.5592  1.2563  2.1904
10859TIP3    H254069   0.072   5.063   6.242 -0.1389 -0.2879 -0.5458
10860TIP3   OH254070   4.200   1.712  13.250  0.5802  0.3738 -0.1174
10860TIP3    H154071   4.288   1.700  13.215  0.2026 -0.6561 -0.7662
10860TIP3    H254072   4.200   1.664  13.333  0.3158 -0.5591 -0.6505
10861TIP3   OH254073   2.918   5.285   1.023 -0.0738 -0.0061 -0.3490
10861TIP3    H154074   2.866   5.359   1.052 -0.6105 -0.0400 -1.2070
10861TIP3    H254075   2.890   5.212   1.079  0.1820  0.3383  0.2340
10862TIP3   OH254076   3.635   5.351  10.820 -0.0525  0.0688 -0.8307
10862TIP3    H154077   3.724   5.344  10.853 -0.6872 -0.1250  0.9785
10862TIP3    H254078   3.638   5.421  10.755  1.3679  0.2421 -0.5967
10863TIP3   OH254079   3.771   5.386   4.168  0.3577  0.0447  0.5401
10863TIP3    H154080   3.837   5.335   4.121  0.7361  0.1707  0.9259
10863TIP3    H254081   3.721   5.431   4.099 -1.7456 -2.8598 -0.0027
10864TIP3   OH254082   1.965   4.464  10.546  0.2081  0.8154 -0.2560
10864TIP3    H154083   1.905   4.438  10.477  1.1293  1.4338 -1.3215
10864TIP3    H254084   1.968   4.388  10.605 -0.4464  0.2027 -0.9939
10865TIP3   OH254085   3.386   5.729  12.590 -0.4165 -0.3434  0.0674
10865TIP3    H154086   3.422   5.786  12.522  0.2170 -1.1211 -0.2675
10865TIP3    H254087   3.292   5.730  12.575 -0.2248 -1.3174 -1.5127
10866TIP3   OH254088   2.859   3.068  14.382 -0.5281  0.3795 -0.6369
10866TIP3    H154089   2.769   3.098  14.398 -0.8670 -0.2834 -1.2192
10866TIP3    H254090   2.909   3.100  14.457 -1.0964  1.3965 -0.6703
10867TIP3   OH254091   3.159   5.296  16.241 -0.4262  0.6942 -0.0540
10867TIP3    H154092   3.237   5.276  16.292 -0.0608  0.9425 -0.5046
10867TIP3    H254093   3.192   5.317  16.154 -1.1463 -1.0522 -0.7845
10868TIP3   OH254094   3.713   0.118   3.209 -0.7666 -0.2602  0.2801
10868TIP3    H154095   3.675   0.127   3.297  0.4153 -2.7331  1.1224
10868TIP3    H254096   3.792   0.172   3.212 -0.8293 -0.1832  0.6684
10869TIP3   OH254097   0.027   1.008   5.595  0.1198  0.3565 -0.0443
10869TIP3    H154098   0.085   1.084   5.592  1.6646 -0.8240 -1.7623
10869TIP3    H254099  -0.051   1.040   5.641  1.5893  2.3416  1.2621
10870TIP3   OH254100   5.716   0.724   5.950 -0.1197 -0.6165 -0.0102
10870TIP3    H154101   5.633   0.675   5.952  0.2218 -1.2144 -0.3513
10870TIP3    H254102   5.781   0.663   5.985 -0.3947  1.0326  3.9672
10871TIP3   OH254103   3.634   1.484  12.066  0.8722 -0.4464  0.3903
10871TIP3    H154104   3.615   1.462  12.157 -1.2832 -1.2447 -0.1966
10871TIP3    H254105   3.720   1.445  12.049 -0.3425 -3.7186  1.0204
10872TIP3   OH254106   6.557   2.795   2.101  0.2827 -0.3180  0.2713
10872TIP3    H154107   6.495   2.804   2.173  1.9180  1.3373  1.5930
10872TIP3    H254108   6.541   2.871   2.046  0.5409 -0.3515  0.1487
10873TIP3   OH254109   2.648   2.660   5.284  0.7807 -0.1938  0.2700
10873TIP3    H154110   2.573   2.711   5.314 -0.0010 -0.6993 -0.7489
10873TIP3    H254111   2.693   2.634   5.364 -0.5140 -0.4423  0.9483
10874TIP3   OH254112   1.167   2.678   0.466  0.0085  0.2801 -0.1979
10874TIP3    H154113   1.154   2.584   0.475 -0.7847  0.1813 -1.8976
10874TIP3    H254114   1.079   2.716   0.472  0.3103  0.9169  0.3935
10875TIP3   OH254115   3.288   0.112  14.954  0.1352 -0.3138  0.0505
10875TIP3    H154116   3.273   0.018  14.950  1.8893 -0.6942  1.3922
10875TIP3    H254117   3.328   0.133  14.869  0.6599 -0.9774  0.1248
10876TIP3   OH254118   4.129   3.451   1.742 -0.4734  0.3546  0.2548
10876TIP3    H154119   4.052   3.398   1.725 -0.1267 -0.2772  0.6527
10876TIP3    H254120   4.202   3.402   1.703 -0.3517  1.2597 -0.7053
10877TIP3   OH254121   4.995   0.636   4.971 -0.7066  0.1358 -0.1372
10877TIP3    H154122   5.072   0.592   4.936 -0.7117 -0.2706  0.3476
10877TIP3    H254123   4.922   0.603   4.919 -0.5005  0.8846 -0.9157
10878TIP3   OH254124   0.989   1.090   2.010 -0.4719 -0.3046  0.2114
10878TIP3    H154125   0.972   1.084   1.916  0.7991 -0.5079 -0.0191
10878TIP3    H254126   0.926   1.155   2.041  1.0031  2.0257 -1.3213
10879TIP3   OH254127   3.699   2.667   6.320 -0.1332 -0.7013  0.1335
10879TIP3    H154128   3.772   2.689   6.378  0.3756 -0.1535 -0.6836
10879TIP3    H254129   3.633   2.734   6.338  0.7159  0.5443 -1.1023
10880TIP3   OH254130   3.140   6.442  15.910  0.4398  0.5081  0.1601
10880TIP3    H154131   3.178   6.447  15.822  0.1316  3.1793  0.1174
10880TIP3    H254132   3.070   6.376  15.901  1.5548 -0.5921 -1.0882
10881TIP3   OH254133   6.212   4.182   5.558 -0.2568 -0.0052  0.5739
10881TIP3    H154134   6.163   4.206   5.636 -0.6483  0.8814  0.0770
10881TIP3    H254135   6.153   4.201   5.485  0.3283 -0.2074  0.0341
10882TIP3   OH254136   0.210   4.810   0.706 -0.5146 -0.1049  0.2167
10882TIP3    H154137   0.229   4.718   0.722 -1.3067  0.0701  2.5337
10882TIP3    H254138   0.177   4.813   0.616  0.6467 -1.8669 -0.3254
10883TIP3   OH254139   5.772   2.390  14.421 -0.3529 -0.1823  0.5904
10883TIP3    H154140   5.764   2.342  14.338 -1.0696  0.0607  0.5155
10883TIP3    H254141   5.813   2.328  14.480 -1.5453 -1.0054  0.5795
10884TIP3   OH254142   5.460   6.344   5.964 -0.3419 -1.0764 -0.2859
10884TIP3    H154143   5.422   6.378   6.045  2.7391 -1.2433  1.3706
10884TIP3    H254144   5.436   6.252   5.962 -0.9565 -0.9307  0.0726
10885TIP3   OH254145   0.176   1.905   0.107 -0.5797  0.1145  0.1424
10885TIP3    H154146   0.199   1.934   0.195 -3.8356  0.8921  0.8721
10885TIP3    H254147   0.183   1.809   0.111 -0.8011  0.1316  1.2825
10886TIP3   OH254148   5.555   4.369   6.029  0.2768 -0.3253  0.3010
10886TIP3    H154149   5.635   4.378   6.080  1.5589  0.0951 -1.7053
10886TIP3    H254150   5.525   4.458   6.015 -0.2843 -0.4599  0.6070
10887TIP3   OH254151   5.896   3.545   0.651 -0.1581  0.0627  0.1526
10887TIP3    H154152   5.804   3.523   0.666  0.1163 -1.7598 -0.5717
10887TIP3    H254153   5.924   3.486   0.581  2.0479 -0.6806  1.5486
10888TIP3   OH254154   1.796   3.344   4.524 -0.2901 -0.0118 -0.4281
10888TIP3    H154155   1.848   3.269   4.553  1.0890  0.7905 -0.7333
10888TIP3    H254156   1.833   3.368   4.439 -2.3636 -0.5205 -1.5498
10889TIP3   OH254157   4.828   4.800  14.624 -0.0984 -1.5165 -0.7533
10889TIP3    H154158   4.802   4.891  14.614 -1.7606 -1.9779 -1.0504
10889TIP3    H254159   4.869   4.795  14.710 -1.6392 -0.8233  0.0476
10890TIP3   OH254160   5.429   2.720   1.249  0.4737  0.3431 -0.0811
10890TIP3    H154161   5.377   2.693   1.325  1.3741  1.4713  0.9923
10890TIP3    H254162   5.411   2.813   1.240  1.1470  0.4284 -0.6242
10891TIP3   OH254163   1.014   2.323  11.129  0.0428 -0.1327 -0.5131
10891TIP3    H154164   1.009   2.321  11.225  1.4191 -0.0142 -0.4168
10891TIP3    H254165   0.931   2.284  11.100 -1.2873  1.6394  0.6876
10892TIP3   OH254166   3.063   5.706  14.589 -0.5155  1.1583 -0.1747
10892TIP3    H154167   2.977   5.665  14.588  0.4219 -0.9135  0.3373
10892TIP3    H254168   3.125   5.634  14.597  1.3230  2.5471 -0.9901
10893TIP3   OH254169   2.080   5.339   5.960 -0.4103  0.0714 -0.4784
10893TIP3    H154170   2.151   5.363   6.020  0.8401 -0.3541 -1.7247
10893TIP3    H254171   2.085   5.404   5.890 -1.5847  0.3199 -0.3447
10894TIP3   OH254172   6.776   2.605   2.960 -0.1515  0.0149  0.0116
10894TIP3    H154173   6.715   2.587   3.031 -1.4450 -0.1827 -1.1108
10894TIP3    H254174   6.731   2.668   2.904  0.7748  0.0727 -0.7067
10895TIP3   OH254175   4.344   4.814  14.797 -0.3341  0.3653  0.6585
10895TIP3    H154176   4.340   4.735  14.849 -0.2921  0.9786  1.6188
10895TIP3    H254177   4.375   4.785  14.711 -0.9718 -0.7375  0.7923
10896TIP3   OH254178   4.663   4.911   0.126 -0.6796  0.4605 -0.6040
10896TIP3    H154179   4.582   4.915   0.177  0.1513 -2.0076  1.0997
10896TIP3    H254180   4.700   4.825   0.147  2.0701  1.2401 -1.8359
10897TIP3   OH254181   5.362   0.229   0.167  0.4043  0.3206  0.2825
10897TIP3    H154182   5.296   0.271   0.223  0.4660 -0.2855  0.8246
10897TIP3    H254183   5.364   0.138   0.197 -0.5703 -0.3884 -1.6318
10898TIP3   OH254184   4.969   0.896  17.295  0.2871 -0.0671 -0.7182
10898TIP3    H154185   4.914   0.888  17.216  1.6382 -0.6048 -1.6333
10898TIP3    H254186   4.906   0.898  17.367 -1.0486  1.5279 -1.8470
10899TIP3   OH254187   1.306   6.165  11.112  0.1371  0.7391  0.0018
10899TIP3    H154188   1.256   6.245  11.095 -0.3242  0.3480 -0.5048
10899TIP3    H254189   1.297   6.114  11.031  0.7700  0.3539  0.1700
10900TIP3   OH254190   2.959   4.094   5.015 -0.6544 -0.2021 -0.1096
10900TIP3    H154191   3.037   4.037   5.017  0.9231  1.8278  2.2172
10900TIP3    H254192   2.888   4.036   4.989  1.2331 -2.7141 -0.0497
10901TIP3   OH254193   1.586   3.101  15.368 -0.2120  0.3858  0.3796
10901TIP3    H154194   1.520   3.031  15.366  0.6278 -0.3978 -1.7376
10901TIP3    H254195   1.664   3.062  15.329  1.1119  1.7276  1.5730
10902TIP3   OH254196   1.602   6.108   4.718  0.2742 -0.4592 -0.0595
10902TIP3    H154197   1.642   6.022   4.711 -0.9117 -0.9950 -0.5627
10902TIP3    H254198   1.532   6.097   4.782  1.8595  0.8539  2.0329
10903TIP3   OH254199   4.027   3.368   5.550 -0.7689  0.0813  0.0364
10903TIP3    H154200   4.018   3.292   5.493  1.2418 -0.5372  0.4819
10903TIP3    H254201   3.940   3.378   5.590 -0.6728 -3.2079  1.4280
10904TIP3   OH254202   0.467   0.229  16.879  0.3427 -0.0042  0.2182
10904TIP3    H154203   0.554   0.248  16.913  0.6394 -1.0850  0.1104
10904TIP3    H254204   0.422   0.184  16.951 -0.0260  0.2941  0.1772
10905TIP3   OH254205   6.000   5.865   5.688 -0.5600  0.0417  0.3430
10905TIP3    H154206   6.022   5.849   5.597  0.0041 -0.6876  0.5920
10905TIP3    H254207   5.969   5.955   5.691 -0.9869 -0.0703 -0.6361
10906TIP3   OH254208   4.721   2.773   1.411 -0.1788  0.1359  0.1062
10906TIP3    H154209   4.748   2.853   1.366  0.0566  0.4759  0.8313
10906TIP3    H254210   4.742   2.703   1.350  0.4327  0.5602 -0.1874
10907TIP3   OH254211   5.021   0.525  14.799 -0.0035  0.1287  0.3490
10907TIP3    H154212   4.962   0.598  14.817 -1.6073 -0.8712 -0.5613
10907TIP3    H254213   5.101   0.565  14.766 -0.2125  1.5283  1.4660
10908TIP3   OH254214   4.026   0.919   1.977  0.1218  0.0929 -0.1760
10908TIP3    H154215   3.949   0.956   1.932 -0.1860  1.2762  1.2541
10908TIP3    H254216   3.989   0.866   2.048  0.6187  0.8026  0.6216
10909TIP3   OH254217   0.861   3.236   4.158 -0.8180  0.2590 -0.0847
10909TIP3    H154218   0.806   3.201   4.088  0.6999  0.9154 -1.6615
10909TIP3    H254219   0.918   3.299   4.115 -0.1918  1.0977  1.8584
10910TIP3   OH254220   4.977   5.953   4.148 -0.2409  0.0357 -0.2035
10910TIP3    H154221   4.889   5.962   4.183  0.3343  1.2540  1.0324
10910TIP3    H254222   5.000   6.040   4.117  0.7116 -0.1516 -0.0588
10911TIP3   OH254223   1.593   2.118   5.684  1.0842  0.8080  0.1927
10911TIP3    H154224   1.620   2.047   5.626  0.8017  0.2625  0.7253
10911TIP3    H254225   1.559   2.185   5.624  0.8202  0.2679 -0.2705
10912TIP3   OH254226   5.898   5.055   3.203 -0.1301 -0.7270 -0.0136
10912TIP3    H154227   5.803   5.063   3.212 -0.1743  0.9270 -1.4836
10912TIP3    H254228   5.922   4.984   3.264 -2.0266  0.1543  1.8883
10913TIP3   OH254229   6.122   3.837  13.203  0.3871  0.1773 -0.4432
10913TIP3    H154230   6.117   3.928  13.231  0.8101 -0.1717  0.8727
10913TIP3    H254231   6.216   3.820  13.195  0.3046 -0.0929 -0.8752
10914TIP3   OH254232   1.493   4.586  14.509 -0.0894  0.6067 -0.4419
10914TIP3    H154233   1.400   4.571  14.489  0.3663 -2.6816 -0.7115
10914TIP3    H254234   1.534   4.597  14.423  0.1029 -0.6007 -0.5169
10915TIP3   OH254235   0.227   1.611  16.925 -0.2513  0.4536 -0.4294
10915TIP3    H154236   0.210   1.517  16.923  1.2486  0.1707 -1.8794
10915TIP3    H254237   0.143   1.651  16.902 -0.3982 -0.6468 -1.9846
10916TIP3   OH254238   3.722   3.992  12.321  0.0022  0.5591  0.2774
10916TIP3    H154239   3.662   3.984  12.395 -0.5744 -0.4652 -0.2973
10916TIP3    H254240   3.671   3.969  12.244 -0.3439  4.5476 -0.9568
10917TIP3   OH254241   2.174   3.355   0.446  0.4911  0.2338 -0.1010
10917TIP3    H154242   2.127   3.378   0.526 -1.0064  2.2789 -1.4694
10917TIP3    H254243   2.222   3.434   0.422  1.6750 -0.6423 -0.7374
10918TIP3   OH254244   1.797   4.167   3.293 -0.5699 -0.2007  0.6748
10918TIP3    H154245   1.777   4.074   3.282  1.8206 -0.7689  0.5483
10918TIP3    H254246   1.818   4.176   3.385 -1.9815  0.5142  0.9509
10919TIP3   OH254247   0.896   5.181   1.690 -0.3231 -0.5005  0.5505
10919TIP3    H154248   0.831   5.173   1.760 -0.1769  0.9558  0.8898
10919TIP3    H254249   0.845   5.204   1.613 -0.3905 -1.2291  0.3693
10920TIP3   OH254250   3.185   2.439   5.199  0.6993 -0.1714  0.0809
10920TIP3    H154251   3.200   2.498   5.126 -0.5060  0.7960  0.5865
10920TIP3    H254252   3.235   2.360   5.177  1.4917  0.6325 -1.0939
10921TIP3   OH254253   5.251   0.040  14.029  0.4327 -0.5053 -0.1347
10921TIP3    H154254   5.254   0.135  14.017  0.0556 -0.0453  2.7469
10921TIP3    H254255   5.337   0.018  14.064  0.5536 -1.2599 -0.8941
10922TIP3   OH254256   1.693   2.724   5.361  0.9640  0.4821 -0.5701
10922TIP3    H154257   1.675   2.722   5.455  1.5542  0.4951 -0.4512
10922TIP3    H254258   1.608   2.714   5.320  0.9042 -1.6321 -0.0421
10923TIP3   OH254259   5.437   2.166  15.252  0.5491  0.1817 -0.0235
10923TIP3    H154260   5.342   2.158  15.247  0.5312 -0.2260  0.8059
10923TIP3    H254261   5.458   2.242  15.197 -0.4365  1.3722  1.1774
10924TIP3   OH254262   3.948   4.143  15.607 -0.3464  0.3712 -0.2980
10924TIP3    H154263   3.859   4.112  15.622  0.7134 -1.7577  2.4316
10924TIP3    H254264   3.971   4.112  15.520 -0.8027 -3.2023  0.7090
10925TIP3   OH254265   3.002   2.166   4.783 -0.0887 -0.1162  0.4198
10925TIP3    H154266   2.963   2.195   4.700 -0.7227 -1.9810  0.0215
10925TIP3    H254267   3.087   2.211   4.787  0.1701 -0.3712 -1.4825
10926TIP3   OH254268   5.242   1.692  16.955 -0.1216  0.0462 -0.1031
10926TIP3    H154269   5.243   1.613  16.902 -0.0615  0.2579 -0.4249
10926TIP3    H254270   5.319   1.741  16.926  0.6280 -0.4065  1.0619
10927TIP3   OH254271   4.377   0.315   3.432  0.0401  0.3714 -0.5658
10927TIP3    H154272   4.398   0.224   3.452 -1.0089 -0.1847 -1.8890
10927TIP3    H254273   4.344   0.350   3.515  0.9759 -0.2743  0.0998
10928TIP3   OH254274   0.301   1.693   0.748  0.1785 -0.3224 -0.3385
10928TIP3    H154275   0.226   1.637   0.727 -0.9166  1.0375 -0.2072
10928TIP3    H254276   0.296   1.764   0.683  0.2363  0.7808  0.8239
10929TIP3   OH254277   6.213   5.867  15.076  0.3849  0.2868 -0.1007
10929TIP3    H154278   6.261   5.817  15.142  0.9795 -0.3862 -1.0082
10929TIP3    H254279   6.263   5.948  15.068  0.0158  0.5918  0.6371
10930TIP3   OH254280   3.527   5.594   1.757 -0.4973 -0.0311 -0.2947
10930TIP3    H154281   3.546   5.578   1.665 -0.6277 -0.4535 -0.2535
10930TIP3    H254282   3.590   5.660   1.784 -0.1176 -0.2834 -0.5541
10931TIP3   OH254283   4.256   6.166   0.993  0.0055 -0.4724 -0.0010
10931TIP3    H154284   4.337   6.159   0.942 -1.3872 -1.5014 -2.2351
10931TIP3    H254285   4.213   6.082   0.981 -0.8851 -0.3790  2.1395
10932TIP3   OH254286   2.775   2.355  11.458  0.0349  0.1579 -0.5981
10932TIP3    H154287   2.687   2.328  11.430 -0.0678 -0.3909  0.2146
10932TIP3    H254288   2.773   2.450  11.455 -0.3188  0.1391 -1.3701
10933TIP3   OH254289   1.070   3.106  14.624  0.0251  0.1251 -0.4939
10933TIP3    H154290   1.112   3.027  14.655  0.4342  0.8358  0.8454
10933TIP3    H254291   1.097   3.114  14.533  1.4541 -0.3136 -0.1236
10934TIP3   OH254292   3.662   6.817  15.511  0.2660 -0.3316  0.0058
10934TIP3    H154293   3.583   6.766  15.494  0.4234 -0.3728 -0.6073
10934TIP3    H254294   3.703   6.828  15.425 -0.3222  1.7406 -0.0632
10935TIP3   OH254295   5.368   4.752  15.881 -0.0738  0.1957 -0.3358
10935TIP3    H154296   5.292   4.738  15.937 -0.1055 -1.8347 -0.8281
10935TIP3    H254297   5.442   4.719  15.932 -0.1250 -1.8415 -1.4651
10936TIP3   OH254298   3.157   3.817   3.456  0.5538 -0.0598 -0.1869
10936TIP3    H154299   3.179   3.907   3.432  0.9326  0.5524  2.1760
10936TIP3    H254300   3.075   3.824   3.504 -0.9517 -1.3931 -2.3968
10937TIP3   OH254301   0.132   5.268  16.409  0.3868 -0.0943 -0.2965
10937TIP3    H154302   0.093   5.218  16.338 -0.3347  0.0485 -0.0121
10937TIP3    H254303   0.174   5.343  16.366 -2.6992  1.7292 -0.4152
10938TIP3   OH254304   5.085   2.334   0.758  0.2608  0.0511  0.6089
10938TIP3    H154305   5.052   2.267   0.698  0.3003  0.0452  0.5935
10938TIP3    H254306   5.039   2.414   0.732 -0.4608 -0.1632  1.2227
10939TIP3   OH254307   1.159   2.298   3.811 -0.1753 -0.3116 -0.3364
10939TIP3    H154308   1.215   2.240   3.862  1.9874 -0.5794 -2.8241
10939TIP3    H254309   1.197   2.385   3.824 -0.3581 -0.1985 -0.5454
10940TIP3   OH254310   3.119   4.586  15.622  0.3684  0.2307 -0.1732
10940TIP3    H154311   3.075   4.622  15.699  0.9579  0.0587  0.2524
10940TIP3    H254312   3.154   4.502  15.652 -1.6801 -1.1469 -1.3508
10941TIP3   OH254313   2.940   3.735   5.336 -0.4405  0.5941 -0.4581
10941TIP3    H154314   2.885   3.806   5.304 -0.4051  0.0482 -1.7911
10941TIP3    H254315   2.905   3.714   5.422 -0.9718  1.6648 -0.4072
10942TIP3   OH254316   4.164   4.357  11.655 -0.3467 -0.0518 -0.0222
10942TIP3    H154317   4.197   4.446  11.641  1.8548 -0.8862 -0.6077
10942TIP3    H254318   4.189   4.310  11.575 -0.1213 -1.5348  0.8875
10943TIP3   OH254319   5.378   6.013  11.213 -0.2430 -0.2221 -0.0450
10943TIP3    H154320   5.348   5.977  11.130 -0.8474  0.5766 -0.1809
10943TIP3    H254321   5.298   6.024  11.265 -0.1930  1.6192 -0.2922
10944TIP3   OH254322   4.115   3.782  15.772  0.1325  0.0385  0.1457
10944TIP3    H154323   4.082   3.819  15.854  0.2505  1.8176 -0.5695
10944TIP3    H254324   4.143   3.694  15.796 -0.7040  0.1754  1.8064
10945TIP3   OH254325   5.586   1.997   0.640  0.3463 -0.1933  0.6604
10945TIP3    H154326   5.658   2.032   0.692  0.9866  0.7620 -0.8177
10945TIP3    H254327   5.628   1.939   0.577 -0.2131  0.1097 -0.0006
10946TIP3   OH254328   5.211   3.447   6.340  0.5343 -0.0560 -0.1982
10946TIP3    H154329   5.221   3.535   6.304 -1.8509 -0.0851 -1.0878
10946TIP3    H254330   5.280   3.396   6.298  0.2513  0.8048 -1.7842
10947TIP3   OH254331   2.544   0.001  12.890  0.0512  0.0655 -0.1761
10947TIP3    H154332   2.586  -0.070  12.841 -0.4519 -0.3410 -0.0258
10947TIP3    H254333   2.481  -0.043  12.947 -0.0849  0.6154  0.1101
10948TIP3   OH254334   6.620   6.644  10.468  0.2900 -0.1378  0.2899
10948TIP3    H154335   6.631   6.552  10.446  2.3757 -0.0252  0.6736
10948TIP3    H254336   6.685   6.661  10.536 -0.4599  1.4829  0.6658
10949TIP3   OH254337   3.475   5.993  16.598  0.3280  0.0182  0.8679
10949TIP3    H154338   3.547   6.027  16.545 -0.8292  0.3236 -0.6043
10949TIP3    H254339   3.457   6.063  16.661 -0.7662  1.4260 -0.8892
10950TIP3   OH254340   5.626   5.916   3.190  0.4363  0.9594  0.0578
10950TIP3    H154341   5.572   5.976   3.138 -0.5894  0.1773  0.1704
10950TIP3    H254342   5.564   5.877   3.252  1.0256 -0.3613 -0.1493
10951TIP3   OH254343   3.816   4.773   0.262  0.3155  0.0703  0.2710
10951TIP3    H154344   3.785   4.715   0.192  0.0063  0.1538  0.3376
10951TIP3    H254345   3.789   4.861   0.234 -1.8405 -0.0928  1.5386
10952TIP3   OH254346   1.766   3.547  11.088 -0.0028 -1.2656  0.1462
10952TIP3    H154347   1.701   3.617  11.081  0.2090 -1.1028 -0.2153
10952TIP3    H254348   1.840   3.587  11.133  0.8489 -0.7188 -1.6560
10953TIP3   OH254349   5.561   5.165  13.159 -0.1966  0.1113 -0.6309
10953TIP3    H154350   5.624   5.095  13.144  1.1489  1.1669 -0.0836
10953TIP3    H254351   5.589   5.207  13.241 -2.6585 -0.4926  0.6276
10954TIP3   OH254352   5.960   4.370  15.769  0.3831  0.0026  0.1058
10954TIP3    H154353   5.994   4.389  15.682  0.6069  0.5253  0.3082
10954TIP3    H254354   6.021   4.412  15.829 -0.1234  0.1900  0.4958
10955TIP3   OH254355   4.818   4.368   1.027  0.2035  0.7840 -0.3819
10955TIP3    H154356   4.865   4.441   1.066 -0.2373  0.3254  1.0908
10955TIP3    H254357   4.785   4.402   0.944  0.7161  1.9831 -0.1182
10956TIP3   OH254358   1.494   5.492  14.117  0.5229 -0.0409 -0.3400
10956TIP3    H154359   1.414   5.445  14.094  1.0327 -0.4160 -1.4098
10956TIP3    H254360   1.494   5.569  14.062  0.9484 -0.0949 -0.4247
10957TIP3   OH254361   3.080   4.143  13.295 -0.2337  0.3723 -0.3156
10957TIP3    H154362   3.096   4.051  13.279  3.4470  1.1498 -2.0621
10957TIP3    H254363   3.125   4.162  13.377 -1.2506  0.6140  0.2104
10958TIP3   OH254364   0.484   3.407   5.735  1.1029 -0.1789 -0.1879
10958TIP3    H154365   0.571   3.399   5.774  0.0646  1.6849  2.9380
10958TIP3    H254366   0.431   3.343   5.782  0.1335  1.0032  0.3879
10959TIP3   OH254367   0.557   1.305   2.824  1.0100 -0.4865 -0.8572
10959TIP3    H154368   0.493   1.302   2.753 -0.3242  2.6198  0.0416
10959TIP3    H254369   0.598   1.392   2.817  3.4678 -1.4643  0.0493
10960TIP3   OH254370   6.612   2.544  10.374 -0.5603  0.2430 -0.3029
10960TIP3    H154371   6.586   2.491  10.299 -0.8567 -0.2708  0.1584
10960TIP3    H254372   6.571   2.629  10.358 -0.8520  0.0528 -0.5881
10961TIP3   OH254373   4.047   5.324   1.511  0.2338 -0.5493 -0.2585
10961TIP3    H154374   3.955   5.326   1.483 -0.2666  0.9118  1.3492
10961TIP3    H254375   4.046   5.271   1.591  0.9598 -1.2525 -0.7017
10962TIP3   OH254376   0.844   2.455   5.182  0.3197  0.0133 -0.0641
10962TIP3    H154377   0.867   2.537   5.227 -2.0535  0.4922  0.4420
10962TIP3    H254378   0.853   2.387   5.249  0.0627  0.2199  0.1828
10963TIP3   OH254379   3.801   5.523   0.921 -0.0350  0.3965  0.2675
10963TIP3    H154380   3.759   5.499   1.004 -1.5166 -2.2834 -1.1248
10963TIP3    H254381   3.883   5.474   0.920 -0.2262  0.0771 -0.0150
10964TIP3   OH254382   1.726   0.894  14.898  0.1060  0.4825 -0.3551
10964TIP3    H154383   1.672   0.834  14.847  0.6636  0.0938 -0.4999
10964TIP3    H254384   1.751   0.963  14.836 -0.5377  0.8784 -0.1868
10965TIP3   OH254385   1.793   1.110  14.727  0.4344  0.0217  0.6671
10965TIP3    H154386   1.749   1.187  14.762  1.3257  1.8208 -1.8222
10965TIP3    H254387   1.886   1.135  14.725  0.8563 -1.4739  0.6286
10966TIP3   OH254388   1.263   1.417   2.876  0.1475  0.1227 -0.3840
10966TIP3    H154389   1.232   1.337   2.918 -0.2574 -0.0996 -1.0884
10966TIP3    H254390   1.351   1.396   2.846 -0.5535 -0.6507 -2.0522
10967TIP3   OH254391   5.888   1.281   4.423  0.7811 -0.1294  0.0819
10967TIP3    H154392   5.855   1.302   4.511  0.7160  0.6825 -0.1288
10967TIP3    H254393   5.825   1.321   4.364  0.9910 -0.4164 -0.3392
10968TIP3   OH254394   4.797   2.019   1.657  0.5787 -0.0801  0.0631
10968TIP3    H154395   4.862   1.953   1.634  0.0137 -0.4373 -0.5677
10968TIP3    H254396   4.771   1.998   1.746  0.2012 -0.8973 -0.2295
10969TIP3   OH254397   4.894   2.428   5.579 -0.1303 -0.0260 -0.1324
10969TIP3    H154398   4.892   2.349   5.634 -0.5797  0.8184  1.1294
10969TIP3    H254399   4.801   2.448   5.564 -0.0373  0.6862  0.2157
10970TIP3   OH254400   0.299   2.037  12.169  0.4781  0.9082 -0.4337
10970TIP3    H154401   0.218   1.995  12.198  0.7386  0.4223 -0.3977
10970TIP3    H254402   0.275   2.080  12.087  0.1836  0.7675 -0.4255
10971TIP3   OH254403   0.419   2.799  17.264 -0.8613 -0.2278  0.3162
10971TIP3    H154404   0.353   2.730  17.272 -0.7908 -0.1090  2.5355
10971TIP3    H254405   0.499   2.753  17.239 -1.1764 -0.7362  0.2293
10972TIP3   OH254406   5.101   2.874  16.974  0.4567 -0.0865  0.1415
10972TIP3    H154407   5.099   2.967  16.999  1.9156 -0.4409  1.7730
10972TIP3    H254408   5.188   2.863  16.935  0.0565 -0.6614 -0.6093
10973TIP3   OH254409   2.111   1.934   4.586 -0.0320  0.2325 -0.0628
10973TIP3    H154410   2.168   1.859   4.567 -0.7507 -0.0763 -1.0819
10973TIP3    H254411   2.035   1.897   4.630 -1.0165  0.1267 -1.7550
10974TIP3   OH254412   2.238   2.724   5.673  0.3709 -0.1592 -0.1044
10974TIP3    H154413   2.249   2.675   5.592  0.7928  0.3532 -0.3662
10974TIP3    H254414   2.195   2.663   5.733  0.3145 -0.6331 -0.6206
10975TIP3   OH254415   1.804   0.414  13.507  0.0740  0.9769 -0.2273
10975TIP3    H154416   1.874   0.412  13.441 -0.3795 -0.7314 -0.7098
10975TIP3    H254417   1.834   0.477  13.572  2.1705  0.1653 -0.3357
10976TIP3   OH254418   4.628   0.948   1.111 -0.4116 -0.5021 -0.1507
10976TIP3    H154419   4.564   1.005   1.152 -0.1719  2.4527 -3.3522
10976TIP3    H254420   4.713   0.979   1.143 -0.3822 -0.6821 -0.0555
10977TIP3   OH254421   1.662   3.365   2.908 -0.2719  0.4583  0.3184
10977TIP3    H154422   1.577   3.352   2.952 -0.4940 -1.2079 -0.5041
10977TIP3    H254423   1.660   3.456   2.879 -1.5438  0.6204  0.8075
10978TIP3   OH254424   5.780   2.599  11.523  0.5989  0.3240 -0.2615
10978TIP3    H154425   5.820   2.518  11.556  1.5055  0.9933  0.3386
10978TIP3    H254426   5.709   2.617  11.584  0.6220  0.1695 -0.1873
10979TIP3   OH254427   6.705   0.179   5.008 -0.2907 -0.2065 -0.0692
10979TIP3    H154428   6.709   0.093   5.050  0.5004  1.3239  3.3224
10979TIP3    H254429   6.779   0.179   4.946  1.6831 -0.9402  2.1552
10980TIP3   OH254430   0.218   1.223  16.347 -0.0173  0.3652  0.2576
10980TIP3    H154431   0.153   1.233  16.417 -0.2847  1.6230 -0.1420
10980TIP3    H254432   0.284   1.290  16.366  0.0301  0.5559 -0.5543
10981TIP3   OH254433   2.331   0.461  17.231  0.1229 -0.4063  0.0636
10981TIP3    H154434   2.425   0.475  17.224  0.0382 -0.1309 -0.5496
10981TIP3    H254435   2.305   0.513  17.307 -0.1140  2.5499 -1.9141
10982TIP3   OH254436   5.394   0.708  13.711 -0.0467 -0.3905  0.7848
10982TIP3    H154437   5.411   0.794  13.749 -0.7070  0.9935 -1.7851
10982TIP3    H254438   5.470   0.655  13.736  0.3241  0.8678  2.5260
10983TIP3   OH254439   5.692   1.707  11.257 -0.0814 -0.4144 -0.0483
10983TIP3    H154440   5.780   1.717  11.293 -0.4915  0.8405  0.6946
10983TIP3    H254441   5.705   1.694  11.163  0.8661  3.4247 -0.6184
10984TIP3   OH254442   4.196   4.174   3.897 -0.1912 -0.0623 -0.2379
10984TIP3    H154443   4.128   4.155   3.961  2.5022 -0.2528  2.8334
10984TIP3    H254444   4.229   4.088   3.871 -0.8518  0.0369 -1.4705
10985TIP3   OH254445   1.849   2.368   4.785 -0.0908  0.2796 -0.1353
10985TIP3    H154446   1.915   2.318   4.737  0.9220 -1.1431  2.5024
10985TIP3    H254447   1.857   2.457   4.751  1.8713 -0.2536 -1.2482
10986TIP3   OH254448   3.577   5.584  15.398 -0.0949 -0.2415 -0.3428
10986TIP3    H154449   3.481   5.581  15.398 -0.1071 -0.1580  0.4916
10986TIP3    H254450   3.598   5.675  15.423  0.1753 -0.6996  1.2631
10987TIP3   OH254451   4.633   6.627  14.057 -0.1349 -0.2856  0.1533
10987TIP3    H154452   4.647   6.618  13.963  0.2721  0.3012  0.1581
10987TIP3    H254453   4.542   6.655  14.065  0.1149  0.6188 -0.1156
10988TIP3   OH254454   0.796   3.474  11.046 -0.2728  0.3474 -0.1252
10988TIP3    H154455   0.845   3.466  11.129  1.2186  1.4807 -0.8509
10988TIP3    H254456   0.741   3.551  11.058 -0.0105  0.5479 -0.2136
10989TIP3   OH254457   3.104   1.726   6.660 -0.4063 -0.6257 -0.1099
10989TIP3    H154458   3.026   1.781   6.662  0.9389  1.4327 -1.2251
10989TIP3    H254459   3.070   1.637   6.651 -2.6325  0.0949  0.5194
10990TIP3   OH254460   0.623   3.402   1.225 -0.0806 -0.1660  0.8045
10990TIP3    H154461   0.573   3.479   1.198 -0.4006 -0.7495 -0.3112
10990TIP3    H254462   0.603   3.392   1.318  1.3870  2.1398  1.4283
10991TIP3   OH254463   1.818   0.809  16.113 -0.3573 -0.4376 -0.1545
10991TIP3    H154464   1.828   0.742  16.180  0.3828 -0.1492  0.0333
10991TIP3    H254465   1.906   0.818  16.075 -0.5770  0.0223 -0.5615
10992TIP3   OH254466   2.346   5.616   4.612  0.4215 -0.0425 -0.2824
10992TIP3    H154467   2.356   5.593   4.520  1.1751 -2.9272  0.3924
10992TIP3    H254468   2.252   5.634   4.622  0.6689  2.5906 -1.9712
10993TIP3   OH254469   3.140   4.817   1.244  0.6350 -0.5098 -1.0346
10993TIP3    H154470   3.086   4.817   1.166 -0.8079  0.2367 -0.0863
10993TIP3    H254471   3.126   4.904   1.283 -0.6038 -1.6519  1.2946
10994TIP3   OH254472   4.348   0.749  11.507  0.0122 -0.4430  0.2512
10994TIP3    H154473   4.313   0.837  11.522 -1.5195 -0.7482 -1.2360
10994TIP3    H254474   4.292   0.692  11.559  0.0828 -0.6774  0.0706
10995TIP3   OH254475   3.501   6.372   3.949 -0.1486 -0.0517  0.1442
10995TIP3    H154476   3.407   6.374   3.970  0.0333  0.0698  0.9746
10995TIP3    H254477   3.527   6.464   3.953 -0.2622  0.0643 -1.3769
10996TIP3   OH254478   0.209   5.315   0.833 -0.4024 -0.2470  0.7558
10996TIP3    H154479   0.150   5.381   0.869  0.3360  0.6532  0.3702
10996TIP3    H254480   0.152   5.244   0.804 -1.2193  0.2556  1.1058
10997TIP3   OH254481   5.813   0.189  12.962 -0.0224 -0.2411 -0.1660
10997TIP3    H154482   5.755   0.136  12.907  1.0275 -0.9618 -0.5964
10997TIP3    H254483   5.764   0.270  12.975  0.6305  1.1167 -4.3612
10998TIP3   OH254484   2.287   4.140  13.064  0.0576 -0.0075 -0.6884
10998TIP3    H154485   2.309   4.086  13.140  1.4281  0.9422 -0.3694
10998TIP3    H254486   2.194   4.162  13.076 -0.2141 -1.3056 -0.2295
10999TIP3   OH254487   1.847   3.279   5.518  0.0123  0.1630  0.8073
10999TIP3    H154488   1.816   3.190   5.535 -1.2059  0.2735 -0.5783
10999TIP3    H254489   1.916   3.294   5.582  0.7523 -2.0433  0.6052
11000TIP3   OH254490   1.694   2.340  14.650 -0.2344 -0.3401  0.2615
11000TIP3    H154491   1.639   2.262  14.660  0.7229 -1.2927 -1.4205
11000TIP3    H254492   1.640   2.402  14.601 -0.7973 -0.1367  1.1122
11001TIP3   OH254493   5.336   4.914  12.998  0.6726  0.5019  0.0249
11001TIP3    H154494   5.242   4.923  12.978  0.5685  0.0657  0.3029
11001TIP3    H254495   5.370   5.003  12.994  0.3119  0.6256 -0.4091
11002TIP3   OH254496   2.411   3.716   2.089 -0.1269 -0.0458  0.0772
11002TIP3    H154497   2.439   3.692   2.177 -1.2699 -0.3218  0.3797
11002TIP3    H254498   2.451   3.802   2.074  0.2788 -0.1066  0.7633
11003TIP3   OH254499   5.571   6.389  16.483 -0.1313 -0.1180 -0.1076
11003TIP3    H154500   5.617   6.433  16.555  1.6689 -0.3938 -1.0246
11003TIP3    H254501   5.478   6.399  16.504  0.2778  2.0873  0.8911
11004TIP3   OH254502   4.263   2.198   3.987  0.2389  0.5786 -0.0293
11004TIP3    H154503   4.193   2.250   3.948  0.0454  0.3299 -0.0151
11004TIP3    H254504   4.223   2.156   4.063  0.1218 -0.3418 -0.5766
11005TIP3   OH254505   2.427   4.897   1.979 -0.2793 -0.0358  0.3201
11005TIP3    H154506   2.488   4.833   1.942 -0.7217 -0.5627  0.4814
11005TIP3    H254507   2.342   4.874   1.940 -0.5116  0.2170  0.6707
11006TIP3   OH254508   5.103   6.681   5.747  0.1093 -0.2266 -0.0325
11006TIP3    H154509   5.052   6.642   5.675 -0.9043  0.0203  0.5340
11006TIP3    H254510   5.089   6.775   5.737 -0.9544 -0.2382  1.1282
11007TIP3   OH254511   6.396   4.129   2.567 -0.1316  0.5396  0.2861
11007TIP3    H154512   6.451   4.185   2.621  0.7127 -0.9458  1.0368
11007TIP3    H254513   6.375   4.054   2.623  0.7902 -1.0806 -1.4077
11008TIP3   OH254514   4.404   6.142  13.789  0.0634  0.8021  0.5744
11008TIP3    H154515   4.495   6.146  13.758  0.1841 -0.1854  0.7625
11008TIP3    H254516   4.352   6.173  13.715  0.2234 -2.8406 -1.3023
11009TIP3   OH254517   5.660   0.288   1.447  1.1804 -0.2922  0.2191
11009TIP3    H154518   5.699   0.258   1.365  1.0556 -1.2251  0.4891
11009TIP3    H254519   5.616   0.370   1.424  0.9593 -0.6579 -0.7008
11010TIP3   OH254520   4.462   3.857   2.898 -0.8731 -0.0628  0.2004
11010TIP3    H154521   4.404   3.787   2.869 -0.2743 -0.4169 -0.1659
11010TIP3    H254522   4.483   3.906   2.818 -1.1483  0.4239  0.4266
11011TIP3   OH254523   0.565   0.380  13.781 -0.2545 -0.5439 -0.2083
11011TIP3    H154524   0.583   0.348  13.869  2.0732  1.1719  0.0523
11011TIP3    H254525   0.647   0.366  13.733 -0.5775  0.9217 -1.2871
11012TIP3   OH254526   5.150   6.649  10.575  0.4149 -0.1199 -0.1035
11012TIP3    H154527   5.238   6.611  10.568  0.6972  0.7125 -1.3371
11012TIP3    H254528   5.094   6.586  10.530  0.7384  0.3946 -1.2812
11013TIP3   OH254529   1.037   3.795  17.015 -0.2235 -0.7485 -0.3306
11013TIP3    H154530   1.090   3.796  16.936 -0.1721  0.5633 -0.3159
11013TIP3    H254531   1.064   3.716  17.062  4.5969  1.5905  1.5236
11014TIP3   OH254532   2.756   2.646   4.411  0.7276  0.3581  0.0799
11014TIP3    H154533   2.817   2.669   4.341  0.4426 -0.3326 -0.4169
11014TIP3    H254534   2.809   2.603   4.477  1.1229  1.6559  0.6368
11015TIP3   OH254535   4.255   1.294   1.189  0.3969  0.0403  0.4720
11015TIP3    H154536   4.196   1.337   1.127 -3.3785 -0.8679  3.0250
11015TIP3    H254537   4.263   1.356   1.261  1.4018 -0.4614  0.8162
11016TIP3   OH254538   5.266   3.147   5.728 -0.1103 -0.0218 -0.0116
11016TIP3    H154539   5.221   3.199   5.794 -2.2921  0.2567 -1.6160
11016TIP3    H254540   5.266   3.058   5.764 -0.6139  0.2490  0.6869
11017TIP3   OH254541   0.387   6.095  11.319 -0.3548  0.5744 -0.4384
11017TIP3    H154542   0.414   6.130  11.404  0.0764 -0.8096  0.0206
11017TIP3    H254543   0.424   6.007  11.317 -2.1316 -0.2002 -1.1798
11018TIP3   OH254544   5.891   5.892  11.154  0.2209  0.3865 -0.3598
11018TIP3    H154545   5.813   5.884  11.209 -0.2918  0.5250 -1.0550
11018TIP3    H254546   5.883   5.977  11.111  2.5252  2.0696  2.2040
11019TIP3   OH254547   5.263   1.840  10.930  0.3535  0.0719 -0.0893
11019TIP3    H154548   5.171   1.864  10.944  0.2251 -0.1335 -0.5617
11019TIP3    H254549   5.289   1.797  11.011 -0.6203 -1.8835 -0.7670
11020TIP3   OH254550   4.791   2.814   5.646 -0.5099 -0.1710  0.0825
11020TIP3    H154551   4.725   2.777   5.705  0.1092  1.0997  1.6441
11020TIP3    H254552   4.860   2.846   5.705  1.3472 -1.1008 -1.4560
11021TIP3   OH254553   2.135   3.378   4.544 -0.1639  0.7303  0.5572
11021TIP3    H154554   2.127   3.306   4.606 -0.4053 -0.2988 -0.6172
11021TIP3    H254555   2.229   3.389   4.531 -0.1312  0.0453  0.1290
11022TIP3   OH254556   4.409   4.493  11.855  0.1639  0.2048 -0.3192
11022TIP3    H154557   4.384   4.401  11.853 -0.5195  0.3764 -0.0970
11022TIP3    H254558   4.417   4.514  11.948 -0.5058  0.5725 -0.3338
11023TIP3   OH254559   4.871   1.725  15.389  0.4274  0.3998 -0.0364
11023TIP3    H154560   4.938   1.766  15.336 -1.2402  0.7402 -2.0159
11023TIP3    H254561   4.843   1.793  15.451  0.3972  0.9725 -0.6753
11024TIP3   OH254562   0.340   3.657  14.394 -0.3593  0.1312  0.0881
11024TIP3    H154563   0.346   3.601  14.317  0.6939 -0.2289  0.4173
11024TIP3    H254564   0.357   3.745  14.361  0.2961 -0.0471 -0.0613
11025TIP3   OH254565   5.636   5.534  14.313 -0.3268  0.2363  0.5423
11025TIP3    H154566   5.717   5.557  14.359  1.1095 -2.1693 -0.5721
11025TIP3    H254567   5.576   5.606  14.331  2.1920  2.3254  1.0822
11026TIP3   OH254568   6.188   4.309  13.874  0.0715 -0.2112 -0.0475
11026TIP3    H154569   6.100   4.326  13.840 -0.0172 -0.2128  0.1825
11026TIP3    H254570   6.229   4.395  13.880 -0.0445 -0.1726  0.2009
11027TIP3   OH254571   0.665   5.453  15.061 -0.4520  0.0640 -0.1483
11027TIP3    H154572   0.660   5.442  14.966 -1.4452  0.6781 -0.1899
11027TIP3    H254573   0.756   5.433  15.083 -0.4841 -1.2289 -1.0684
11028TIP3   OH254574   1.291   3.305  10.840 -0.0749 -0.5897 -0.1779
11028TIP3    H154575   1.207   3.274  10.874  0.5950 -2.5214 -0.1669
11028TIP3    H254576   1.330   3.228  10.799  1.9444  0.0986  0.3269
11029TIP3   OH254577   3.749   6.789   4.247 -0.1792 -0.9117  0.2560
11029TIP3    H154578   3.665   6.761   4.285  0.9269 -1.8362  2.2226
11029TIP3    H254579   3.780   6.712   4.200 -0.6431 -0.3895 -0.9527
11030TIP3   OH254580   0.424   5.519  12.126  0.4049  0.0555 -0.1467
11030TIP3    H154581   0.398   5.479  12.044 -1.0055 -0.7987  0.6884
11030TIP3    H254582   0.436   5.445  12.186 -3.2684  0.7624  1.7246
11031TIP3   OH254583   4.778   4.577  17.053 -0.0110 -0.2749 -0.1043
11031TIP3    H154584   4.684   4.598  17.045  0.1380  0.0162 -1.2037
11031TIP3    H254585   4.779   4.490  17.092 -0.7986 -1.0464 -1.7088
11032TIP3   OH254586   2.709   3.528   3.723  0.3026 -0.1933 -0.4319
11032TIP3    H154587   2.647   3.521   3.651 -0.5103 -1.1622  0.3261
11032TIP3    H254588   2.760   3.447   3.720  1.0470  0.2652 -0.5915
11033TIP3   OH254589   3.039   0.771   3.059 -0.1364  0.1076  0.5226
11033TIP3    H154590   3.030   0.696   3.001 -3.2955  0.9098 -0.1821
11033TIP3    H254591   3.092   0.833   3.010 -0.7444 -0.1672 -0.5041
11034TIP3   OH254592   0.810   2.345   4.217  0.6878 -0.0811  0.9711
11034TIP3    H154593   0.875   2.293   4.264  0.8470 -0.6722  0.1185
11034TIP3    H254594   0.807   2.306   4.129  0.5558  1.1328  0.4221
11035TIP3   OH254595   0.369   6.159   4.254 -0.3496  0.0967  0.7230
11035TIP3    H154596   0.419   6.178   4.175  0.5337  0.9177  1.4441
11035TIP3    H254597   0.282   6.133   4.223  0.4688 -1.2416 -0.5701
11036TIP3   OH254598   0.237   0.400   3.419 -0.1119 -0.2895 -0.4350
11036TIP3    H154599   0.142   0.407   3.421 -0.0604  1.3836 -1.4598
11036TIP3    H254600   0.263   0.392   3.511 -1.1631  0.8817 -0.0139
11037TIP3   OH254601   4.910   0.842   3.909 -0.0402  0.1224 -0.3736
11037TIP3    H154602   4.968   0.774   3.873 -0.0166  0.4373 -0.9506
11037TIP3    H254603   4.961   0.882   3.980 -0.3711 -1.0019  0.5215
11038TIP3   OH254604   1.036   2.408  11.923  0.7946 -0.1909  0.1359
11038TIP3    H154605   1.099   2.474  11.896  0.9889  0.2484  1.5887
11038TIP3    H254606   1.063   2.383  12.011 -1.6063  0.7365  1.2304
11039TIP3   OH254607   5.355   0.270  12.553  0.2054  0.3930  0.1500
11039TIP3    H154608   5.300   0.340  12.516  0.0417  0.0801 -0.2055
11039TIP3    H254609   5.432   0.316  12.587 -0.4663  0.8913  1.0549
11040TIP3   OH254610   4.304   4.559  11.551 -0.1108  0.2974  0.2034
11040TIP3    H154611   4.312   4.593  11.462 -1.7662  2.5517  0.8017
11040TIP3    H254612   4.391   4.570  11.589  0.6582 -0.8521 -1.1354
11041TIP3   OH254613   0.299   3.241  11.835 -0.3384 -0.1855 -1.0752
11041TIP3    H154614   0.283   3.323  11.883 -0.4627 -0.8006 -0.0289
11041TIP3    H254615   0.359   3.266  11.765  2.9364  0.1732  1.5788
11042TIP3   OH254616   3.199   4.638  14.227  0.2847  0.4352 -0.3688
11042TIP3    H154617   3.201   4.693  14.149  0.9150  1.7362  0.5166
11042TIP3    H254618   3.110   4.648  14.261 -1.1931 -2.9343 -2.7350
11043TIP3   OH254619   0.085   0.017   1.888 -1.0066 -0.7970 -0.1192
11043TIP3    H154620   0.032   0.090   1.922  1.2688  0.3626  1.2172
11043TIP3    H254621   0.063  -0.057   1.945 -0.0359  0.1167  1.5233
11044TIP3   OH254622   0.409   4.156   6.546 -0.4017  0.1092 -0.3346
11044TIP3    H154623   0.428   4.234   6.599  0.1838 -0.1122 -0.2075
11044TIP3    H254624   0.317   4.164   6.523 -0.4803  0.5702  0.1264
11045TIP3   OH254625   4.132   0.488   1.257  0.6572 -0.5833  0.0840
11045TIP3    H154626   4.044   0.526   1.256  1.0760  0.4187 -1.1007
11045TIP3    H254627   4.158   0.489   1.349 -0.0579  0.3725  0.2875
11046TIP3   OH254628   3.091   0.235   4.939 -0.6861 -0.1574  0.4791
11046TIP3    H154629   3.046   0.151   4.927  1.3531 -1.1399 -0.9012
11046TIP3    H254630   3.177   0.211   4.975 -0.4373  1.4411  1.0159
11047TIP3   OH254631   6.385   5.965   2.826  0.1819 -0.0672 -0.1255
11047TIP3    H154632   6.357   6.038   2.881  0.7984  0.1281 -0.0623
11047TIP3    H254633   6.362   5.887   2.877  0.2439  0.1011  0.1639
11048TIP3   OH254634   1.184   1.404  10.842 -0.5830  0.5796  0.1642
11048TIP3    H154635   1.250   1.456  10.795 -0.2992 -0.0998 -0.2106
11048TIP3    H254636   1.100   1.431  10.805 -0.5750  1.8244  1.0025
11049TIP3   OH254637   3.848   0.038   3.904 -0.5937  0.3156 -0.0850
11049TIP3    H154638   3.767   0.021   3.952 -0.1412 -0.6606  0.3737
11049TIP3    H254639   3.842   0.130   3.878 -1.1741  0.6894  1.2441
11050TIP3   OH254640   5.586   5.367   0.996  0.5382 -0.0661  0.6529
11050TIP3    H154641   5.571   5.376   0.902  0.5659 -0.0574  0.6493
11050TIP3    H254642   5.613   5.276   1.007  1.3927  0.1632  0.5340
11051TIP3   OH254643   4.413   4.094  14.187  0.0111 -0.8733  0.5985
11051TIP3    H154644   4.383   4.030  14.123  0.1060  0.0850 -0.4378
11051TIP3    H254645   4.430   4.174  14.136  0.8713 -0.3180  1.6893
11052TIP3   OH254646   2.664   0.360   5.286 -0.2830  0.2013  0.4362
11052TIP3    H154647   2.701   0.422   5.224 -1.0796 -0.8068 -1.1274
11052TIP3    H254648   2.727   0.288   5.288 -1.4715 -0.9732 -1.3161
11053TIP3   OH254649   5.634   6.636  10.525 -0.1871 -0.4681 -0.3504
11053TIP3    H154650   5.707   6.611  10.469  0.6743 -1.2906  1.0877
11053TIP3    H254651   5.630   6.731  10.518  0.9582 -0.4209 -0.5352
11054TIP3   OH254652   6.821   3.377  14.597 -0.1895  0.0279 -0.4138
11054TIP3    H154653   6.780   3.321  14.663  3.8970 -0.9423  1.6604
11054TIP3    H254654   6.796   3.338  14.513 -1.5423 -1.8170  0.7566
11055TIP3   OH254655   3.423   5.594   3.864 -0.6214 -0.1982 -0.5883
11055TIP3    H154656   3.389   5.661   3.806  1.1143  1.4358  0.1899
11055TIP3    H254657   3.467   5.532   3.806  0.1163  0.8001 -1.1224
11056TIP3   OH254658   2.477   4.808   4.361  0.1913 -0.0527 -0.4611
11056TIP3    H154659   2.501   4.900   4.363  0.2474 -0.0766  0.6913
11056TIP3    H254660   2.388   4.806   4.398 -1.1525 -0.1094 -3.4335
11057TIP3   OH254661   2.215   3.996  16.543  0.8919  0.2424  0.1628
11057TIP3    H154662   2.187   4.087  16.556  0.5907  0.0579  0.8472
11057TIP3    H254663   2.183   3.973  16.456  1.5798  1.0140 -0.3097
11058TIP3   OH254664   1.182   1.461  11.848  0.1160  0.5335  0.2742
11058TIP3    H154665   1.213   1.538  11.801 -2.0439  0.6037 -1.1418
11058TIP3    H254666   1.251   1.395  11.833  0.7452  1.3891 -0.7117
11059TIP3   OH254667   1.564   4.966  14.498 -0.3011  0.0380  0.0247
11059TIP3    H154668   1.484   5.012  14.524  0.4001  0.8384  0.8126
11059TIP3    H254669   1.538   4.916  14.421 -2.0852 -1.2970  1.3885
11060TIP3   OH254670   3.608   2.818   1.194 -0.4144  0.1716 -0.3267
11060TIP3    H154671   3.562   2.737   1.216  0.8639 -0.2004  1.1872
11060TIP3    H254672   3.596   2.828   1.099 -0.4791 -1.8764 -0.5778
11061TIP3   OH254673   5.791   0.813   4.518  0.3027 -0.3783  0.0331
11061TIP3    H154674   5.863   0.866   4.484 -0.3590 -0.0155 -0.8291
11061TIP3    H254675   5.716   0.872   4.519  0.4275 -0.1621  2.8363
11062TIP3   OH254676   1.147   2.497  12.607  0.4622 -0.1097  0.9313
11062TIP3    H154677   1.124   2.515  12.698 -0.6811 -0.1267  0.6660
11062TIP3    H254678   1.095   2.420  12.584 -0.4100  0.7681 -0.1626
11063TIP3   OH254679   4.956   0.781  13.791  0.2693 -0.5581 -0.0584
11063TIP3    H154680   5.041   0.824  13.806  0.0432 -0.1072 -0.0511
11063TIP3    H254681   4.919   0.769  13.878 -0.6412  1.2377 -0.1566
11064TIP3   OH254682   4.558   3.903  15.816 -0.1741  0.0993 -0.1330
11064TIP3    H154683   4.646   3.870  15.836  0.2593  1.4095  0.1917
11064TIP3    H254684   4.503   3.869  15.887 -1.0123 -4.6933 -2.6749
11065TIP3   OH254685   2.934   0.077  17.050  0.0516 -0.4933  0.3883
11065TIP3    H154686   3.005   0.050  16.992 -0.8427  1.7165 -1.9345
11065TIP3    H254687   2.857   0.028  17.020 -0.3850  0.5601 -0.2992
11066TIP3   OH254688   0.742   6.503   2.112 -0.8002  0.4213  0.2138
11066TIP3    H154689   0.767   6.573   2.053  1.0762  1.0286  1.6042
11066TIP3    H254690   0.703   6.547   2.188  0.6144  0.0628  1.2088
11067TIP3   OH254691   0.738   3.610  15.543 -0.6422 -0.0771 -0.0705
11067TIP3    H154692   0.660   3.555  15.538 -0.5462 -0.1737 -0.5587
11067TIP3    H254693   0.798   3.574  15.477 -0.3970  0.3208 -0.0730
11068TIP3   OH254694   3.860   0.706  13.120 -0.4891 -0.0674 -0.4999
11068TIP3    H154695   3.881   0.760  13.043 -0.5605 -0.8102 -1.0579
11068TIP3    H254696   3.799   0.640  13.086 -2.8946  1.3237  0.8175
11069TIP3   OH254697   3.268   5.289   2.518 -0.6241  0.1329 -0.1655
11069TIP3    H154698   3.261   5.382   2.539  0.7378  0.1281  0.3858
11069TIP3    H254699   3.335   5.285   2.450  2.2184 -0.7483  2.4828
11070TIP3   OH254700   5.252   4.327  15.258 -0.3497  0.4507  0.1988
11070TIP3    H154701   5.171   4.372  15.282  0.7604  2.6583  0.0418
11070TIP3    H254702   5.245   4.313  15.163 -0.5537  0.5692  0.1966
11071TIP3   OH254703   4.743   0.637   1.351 -0.7681  0.3073 -0.3506
11071TIP3    H154704   4.675   0.666   1.413 -0.4718 -0.0725  0.1654
11071TIP3    H254705   4.697   0.626   1.268 -1.6377 -1.2547  0.3070
11072TIP3   OH254706   4.621   5.504   5.815  0.1760  0.1551  0.5963
11072TIP3    H154707   4.581   5.562   5.750  1.5666  2.9652  2.0660
11072TIP3    H254708   4.553   5.492   5.882 -0.4391 -0.7703 -0.1634
11073TIP3   OH254709   2.754   5.702  14.916  0.2917 -0.3435  0.1917
11073TIP3    H154710   2.811   5.643  14.966  0.3560 -0.3190  0.1479
11073TIP3    H254711   2.706   5.645  14.857  3.2367 -0.0851 -2.7768
11074TIP3   OH254712   1.026   5.708   6.388  0.2344 -0.2804 -0.6155
11074TIP3    H154713   1.029   5.672   6.299 -1.4839 -0.8903 -0.4580
11074TIP3    H254714   0.992   5.796   6.378  1.2015  0.1035 -0.6577
11075TIP3   OH254715   3.992   5.656   2.302 -0.3478  0.0548  0.2001
11075TIP3    H154716   4.042   5.589   2.255 -0.0639 -0.3177  1.0148
11075TIP3    H254717   4.055   5.727   2.315 -0.0620 -0.3482  1.0848
11076TIP3   OH254718   3.824   4.013   2.570 -0.3118  0.2044  0.5749
11076TIP3    H154719   3.826   3.950   2.642 -1.6749 -0.2470  0.2513
11076TIP3    H254720   3.854   4.095   2.609  2.6629 -0.8296  0.7324
11077TIP3   OH254721   5.818   6.502  16.717  0.6061  0.3807  0.3595
11077TIP3    H154722   5.903   6.520  16.676  1.5178  0.2215  2.0458
11077TIP3    H254723   5.773   6.586  16.717  1.4467  0.8509  0.8512
11078TIP3   OH254724   4.246   4.454   1.636 -0.3625 -0.1725  0.2557
11078TIP3    H154725   4.206   4.484   1.717 -1.2687  1.7434 -0.8374
11078TIP3    H254726   4.174   4.411   1.589  0.0937 -1.0448  0.3380
11079TIP3   OH254727   0.223   4.930  11.826 -0.3720 -0.3829  0.1308
11079TIP3    H154728   0.206   4.938  11.732  0.9597  1.6274 -0.0027
11079TIP3    H254729   0.142   4.958  11.868 -0.5930 -0.1747 -0.4317
11080TIP3   OH254730   2.497   3.838   5.740 -0.2923  0.1430 -0.9046
11080TIP3    H154731   2.505   3.766   5.803  2.1748  1.4105  0.4200
11080TIP3    H254732   2.415   3.882   5.763 -1.1732 -1.4585 -0.8935
11081TIP3   OH254733   3.726   3.386   4.864 -0.1054 -0.2227  0.0600
11081TIP3    H154734   3.814   3.423   4.861 -0.4405  0.5692 -0.2900
11081TIP3    H254735   3.672   3.455   4.903 -1.0274  0.2677 -1.9505
11082TIP3   OH254736   0.421   3.954   1.914  0.4876 -0.2748 -0.4015
11082TIP3    H154737   0.477   4.003   1.854  0.1920 -0.4192 -0.7916
11082TIP3    H254738   0.450   3.983   2.001  0.8121  0.0439 -0.6102
11083TIP3   OH254739   4.741   1.786  14.423  0.1317 -0.7476 -0.1626
11083TIP3    H154740   4.797   1.804  14.499  1.7394 -1.5268 -1.0926
11083TIP3    H254741   4.707   1.871  14.397  2.2700  0.0457 -0.5522
11084TIP3   OH254742   1.454   6.000   6.551  0.3502  0.2164  0.0790
11084TIP3    H154743   1.431   5.930   6.612  1.1157 -0.0207  0.1051
11084TIP3    H254744   1.370   6.031   6.517  0.0041 -0.7607  0.0184
11085TIP3   OH254745   3.251   5.364  11.949 -0.4195 -0.1769 -0.5945
11085TIP3    H154746   3.187   5.300  11.978  0.1565 -0.7645 -0.5883
11085TIP3    H254747   3.284   5.404  12.029  1.2777 -1.9008 -0.3614
11086TIP3   OH254748   2.323   5.913  14.993  0.3814 -0.6623 -0.1620
11086TIP3    H154749   2.329   5.985  14.931 -1.0403 -1.1555 -0.9233
11086TIP3    H254750   2.355   5.836  14.945  0.0732 -0.8930 -0.0066
11087TIP3   OH254751   3.065   6.571   1.199  0.6695 -0.1595  0.0173
11087TIP3    H154752   3.033   6.633   1.265 -2.1910  0.0355 -1.4007
11087TIP3    H254753   3.041   6.485   1.233  0.0491 -0.1131 -0.2698
11088TIP3   OH254754   5.705   4.138   0.661 -0.5203  0.1994  0.4135
11088TIP3    H154755   5.670   4.188   0.588 -2.1146 -2.1932 -0.5860
11088TIP3    H254756   5.680   4.047   0.643  1.1865 -0.8474  2.6956
11089TIP3   OH254757   3.258   4.339   3.104  0.0338 -0.2099 -0.0072
11089TIP3    H154758   3.247   4.364   3.196  1.0105  0.7233 -0.1184
11089TIP3    H254759   3.266   4.243   3.106 -2.0315 -0.4096  0.6308
11090TIP3   OH254760   4.751   6.660  12.153 -0.2293  0.4812  1.0017
11090TIP3    H154761   4.715   6.636  12.068  0.8453  0.4727  0.5310
11090TIP3    H254762   4.713   6.598  12.214 -1.4063  0.8083  0.6157
11091TIP3   OH254763   2.112   3.350  16.579  0.4125  0.0184 -0.3192
11091TIP3    H154764   2.080   3.269  16.539 -0.4685  0.5335 -0.6821
11091TIP3    H254765   2.205   3.351  16.558  0.3523 -0.7026 -0.6625
11092TIP3   OH254766   6.106   2.267   1.785  0.0070 -0.2455  0.2571
11092TIP3    H154767   6.130   2.356   1.758  0.8711 -0.7747 -0.7445
11092TIP3    H254768   6.016   2.277   1.818  0.8452  1.4103  2.3384
11093TIP3   OH254769   6.154   6.155  14.914  0.3209 -0.3521  0.7146
11093TIP3    H154770   6.152   6.212  14.837  1.3835 -0.3911  0.6406
11093TIP3    H254771   6.246   6.157  14.943  1.0031 -3.9027 -0.7186
11094TIP3   OH254772   2.729   6.680  14.541  0.1922 -0.0524 -0.1837
11094TIP3    H154773   2.637   6.701  14.524  0.2547  0.7207  0.3719
11094TIP3    H254774   2.737   6.587  14.520 -1.2221 -0.6601  1.7785
11095TIP3   OH254775   5.500   3.622  17.095  0.2771 -0.0964 -0.3592
11095TIP3    H154776   5.559   3.651  17.164  0.1416 -1.1653  0.2247
11095TIP3    H254777   5.557   3.601  17.021  0.3157  2.5994 -1.2128
11096TIP3   OH254778   3.287   6.787  17.203 -0.3337  0.5227 -0.1600
11096TIP3    H154779   3.232   6.799  17.281 -0.1687 -0.4188  0.1161
11096TIP3    H254780   3.365   6.840  17.220  0.0840 -0.3280  0.7202
11097TIP3   OH254781   6.417   3.058   5.167  0.2166 -0.2674 -0.2963
11097TIP3    H154782   6.393   2.974   5.128 -0.4399 -0.4200  0.4186
11097TIP3    H254783   6.441   3.037   5.257 -0.1932  0.3343 -0.0359
11098TIP3   OH254784   6.636   4.727  15.301  1.0515 -0.2253  0.1537
11098TIP3    H154785   6.574   4.695  15.367 -1.3238 -1.1923 -2.3160
11098TIP3    H254786   6.722   4.718  15.342 -0.3290  0.4169  3.5054
11099TIP3   OH254787   2.349   5.767   5.485  0.4473 -0.5612 -0.4703
11099TIP3    H154788   2.260   5.752   5.454  0.4361  0.3530 -0.9040
11099TIP3    H254789   2.341   5.834   5.552  0.9845  0.8952 -1.7993
11100TIP3   OH254790   4.949   3.732   1.237  0.3326  0.1139  0.5608
11100TIP3    H154791   4.902   3.653   1.265  0.0962  0.3392  0.8055
11100TIP3    H254792   5.031   3.699   1.200  0.6643 -0.1968  1.5403
11101TIP3   OH254793   3.670   6.415  10.645 -0.9592  0.2300 -0.4561
11101TIP3    H154794   3.762   6.441  10.651 -1.0461  0.8702 -1.5656
11101TIP3    H254795   3.653   6.367  10.726  0.5114 -0.4183 -0.4976
11102TIP3   OH254796   4.697   5.099  11.744  0.3048 -0.0763  0.2218
11102TIP3    H154797   4.681   5.075  11.652  0.1049  1.0309 -0.0486
11102TIP3    H254798   4.612   5.130  11.775  0.3062 -0.7085  0.8812
11103TIP3   OH254799   1.200   2.292  13.383 -0.2794 -0.4583 -0.1947
11103TIP3    H154800   1.247   2.255  13.308 -1.2196 -0.8668 -0.5956
11103TIP3    H254801   1.119   2.326  13.346 -0.6609 -0.4743  0.6100
11104TIP3   OH254802   2.002   6.105   2.561 -0.2602  0.0923 -0.1730
11104TIP3    H154803   2.046   6.078   2.480 -0.3086 -1.0376  0.1632
11104TIP3    H254804   1.939   6.035   2.579 -0.8137  0.7271  0.4153
11105TIP3   OH254805   6.200   1.336  15.271  0.2586 -0.4769  0.5003
11105TIP3    H154806   6.275   1.289  15.308 -0.0581 -1.4077 -0.0071
11105TIP3    H254807   6.236   1.419  15.240  1.5226 -1.7256 -1.5929
11106TIP3   OH254808   1.899   0.324   0.145 -0.2707 -0.0754  0.3256
11106TIP3    H154809   1.922   0.412   0.174  0.3955 -0.2320  0.2779
11106TIP3    H254810   1.845   0.338   0.067  1.0803  0.2798 -0.5864
11107TIP3   OH254811   3.116   5.755   5.867 -0.6264  0.2608  0.3881
11107TIP3    H154812   3.198   5.790   5.831  0.1289  2.0338  3.4690
11107TIP3    H254813   3.047   5.798   5.815  0.3724  0.8716 -0.4680
11108TIP3   OH254814   0.270   5.125  12.590 -0.1473 -0.2413  0.3256
11108TIP3    H154815   0.308   5.053  12.539 -0.5662  0.0832 -0.4504
11108TIP3    H254816   0.192   5.150  12.542  0.9046  1.9026 -0.3895
11109TIP3   OH254817   4.772   2.308   0.679  0.6452  0.6126  0.0713
11109TIP3    H154818   4.830   2.246   0.634  0.6630  0.0063  0.8991
11109TIP3    H254819   4.725   2.254   0.743 -2.5767  0.6027 -2.0913
11110TIP3   OH254820   3.879   1.488  12.528 -0.3941 -0.2372  0.0427
11110TIP3    H154821   3.854   1.409  12.577 -4.1377  1.3661  1.0569
11110TIP3    H254822   3.954   1.523  12.577 -0.0048 -2.0057  0.8074
11111TIP3   OH254823   0.901   3.525  16.563  0.0154  0.0629 -0.0683
11111TIP3    H154824   0.863   3.458  16.620  0.3203 -0.6434 -0.6793
11111TIP3    H254825   0.968   3.568  16.616  1.6574 -1.8890 -0.4712
11112TIP3   OH254826   1.922   5.386   0.959 -0.8222  0.2173  0.7844
11112TIP3    H154827   1.935   5.475   0.925 -2.5198  0.9173  1.8455
11112TIP3    H254828   1.831   5.365   0.939 -1.2175 -0.2367  2.7795
11113TIP3   OH254829   6.378   2.271   1.104 -0.1620 -0.0024 -0.4036
11113TIP3    H154830   6.470   2.246   1.106  0.4924  1.3914 -4.2183
11113TIP3    H254831   6.379   2.366   1.118 -0.6677  0.3822 -2.5545
11114TIP3   OH254832   5.538   5.320  11.116 -1.0294 -0.3284  0.1453
11114TIP3    H154833   5.557   5.284  11.203 -0.3039 -2.1032 -0.6957
11114TIP3    H254834   5.623   5.339  11.078 -0.9618 -3.7602 -1.8023
11115TIP3   OH254835   5.997   2.173   3.816 -0.9041  0.4315  0.4771
11115TIP3    H154836   5.968   2.145   3.729 -2.1105  0.9474  0.6906
11115TIP3    H254837   5.941   2.125   3.877  0.7491 -0.8592  1.0392
11116TIP3   OH254838   4.586   5.204   0.334  0.0105 -0.6165 -0.1749
11116TIP3    H154839   4.649   5.236   0.269 -1.2374  2.5231 -0.0254
11116TIP3    H254840   4.633   5.213   0.417 -0.2353  0.7369 -0.1606
11117TIP3   OH254841   1.583   0.239   6.364 -0.0867 -0.6294 -0.3347
11117TIP3    H154842   1.614   0.168   6.420 -1.5119 -1.1145 -0.1194
11117TIP3    H254843   1.489   0.224   6.355 -0.4653  1.3414 -0.1409
11118TIP3   OH254844   4.170   0.985  15.429  0.1641  0.1662 -0.3014
11118TIP3    H154845   4.104   0.980  15.361 -1.2166 -0.7260  1.0450
11118TIP3    H254846   4.200   1.076  15.427  1.0100 -0.0834 -2.8144
11119TIP3   OH254847   1.007   6.334  17.031  0.3466 -0.2778 -0.5121
11119TIP3    H154848   1.026   6.241  17.016  0.6926 -0.0853 -1.3255
11119TIP3    H254849   0.966   6.363  16.950  1.3573  0.5694 -0.7480
11120TIP3   OH254850   4.061   0.436   4.025 -0.4837  0.1934 -0.4478
11120TIP3    H154851   4.086   0.359   3.974 -2.0334 -0.1478 -0.7384
11120TIP3    H254852   4.078   0.413   4.116 -0.2855 -0.2355 -0.5947
11121TIP3   OH254853   4.108   2.647   1.264  0.0062  0.5867  0.2269
11121TIP3    H154854   4.056   2.690   1.196  2.1534  0.0020 -1.9330
11121TIP3    H254855   4.060   2.567   1.285 -0.4661  0.5573 -0.9346
11122TIP3   OH254856   6.588   6.521   4.037 -0.3052  0.0088  0.0005
11122TIP3    H154857   6.500   6.546   4.008 -0.8144 -0.0434  1.4273
11122TIP3    H254858   6.647   6.565   3.976 -1.3182 -0.2253 -1.1831
11123TIP3   OH254859   6.391   2.836   1.580 -0.3987  0.5172  0.1657
11123TIP3    H154860   6.442   2.755   1.572 -0.7393  0.1605  1.3912
11123TIP3    H254861   6.454   2.906   1.560 -0.0821 -0.0265 -0.8069
11124TIP3   OH254862   5.500   3.826   1.750 -0.1430 -0.0255  0.4273
11124TIP3    H154863   5.524   3.787   1.665 -1.1068 -0.2482  0.2417
11124TIP3    H254864   5.420   3.780   1.775 -0.3257  0.6295  1.0620
11125TIP3   OH254865   0.729   2.738   4.463  0.0510  0.5287 -0.5675
11125TIP3    H154866   0.722   2.828   4.434  0.9306  0.5902 -0.6109
11125TIP3    H254867   0.698   2.686   4.389  3.2727  0.6285 -2.1496
11126TIP3   OH254868   6.487   1.970   3.243 -0.0844  0.2750  0.2959
11126TIP3    H154869   6.417   1.904   3.243  0.2726 -0.1111  0.5380
11126TIP3    H254870   6.567   1.918   3.239  0.1782  0.7252 -0.3955
11127TIP3   OH254871   1.331   6.590   4.488 -0.2066 -0.1071 -0.4425
11127TIP3    H154872   1.355   6.665   4.434 -0.9927  0.0778 -0.5453
11127TIP3    H254873   1.266   6.543   4.435 -0.6039 -0.2028  0.1307
11128TIP3   OH254874   2.543   4.045  12.972 -0.4903 -0.0711  0.2313
11128TIP3    H154875   2.564   4.019  13.062 -1.2266 -0.5346  0.2704
11128TIP3    H254876   2.453   4.075  12.976  0.1750  2.1361  0.1005
11129TIP3   OH254877   5.632   0.270   0.646  0.2198  0.7318  0.6335
11129TIP3    H154878   5.538   0.274   0.628  0.2384 -1.6696 -0.3720
11129TIP3    H254879   5.660   0.186   0.610  3.0975  2.0953 -0.6527
11130TIP3   OH254880   3.694   2.135  12.802 -0.2888 -0.3053 -0.6601
11130TIP3    H154881   3.660   2.224  12.810 -0.2040  0.0587 -3.3574
11130TIP3    H254882   3.783   2.140  12.837 -0.4536  0.5378 -0.3374
11131TIP3   OH254883   2.724   3.349   3.966  0.2162  0.0034  0.1819
11131TIP3    H154884   2.737   3.318   3.876 -3.0006  0.8417 -0.7219
11131TIP3    H254885   2.703   3.442   3.957 -2.4019 -0.3546  1.4294
11132TIP3   OH254886   4.628   0.448  13.141  0.3450  0.2123 -0.4792
11132TIP3    H154887   4.668   0.383  13.083  0.7185  0.0109  0.0007
11132TIP3    H254888   4.589   0.512  13.081  2.4667  1.1037 -0.9986
11133TIP3   OH254889   6.248   5.721  13.220  0.4350  0.0749 -0.1515
11133TIP3    H154890   6.325   5.665  13.212  0.6929  0.4120 -0.0613
11133TIP3    H254891   6.274   5.803  13.178  1.5070  1.5636  3.0857
11134TIP3   OH254892   2.807   3.878   2.444 -0.1807  0.4455  0.2227
11134TIP3    H154893   2.788   3.909   2.356  0.2710  2.5066  0.8122
11134TIP3    H254894   2.896   3.909   2.462  0.6137 -1.8683  0.6081
11135TIP3   OH254895   2.761   6.214  17.046  0.5607 -0.7476  0.3628
11135TIP3    H154896   2.715   6.135  17.075 -1.3569  0.2919  0.3461
11135TIP3    H254897   2.700   6.257  16.986  1.4651  0.8438  0.5135
11136TIP3   OH254898   6.523   1.754  12.861 -0.1839  0.5031 -0.0177
11136TIP3    H154899   6.538   1.662  12.882  0.4307  0.8987  1.3927
11136TIP3    H254900   6.604   1.783  12.819  0.1154  0.7191  0.7022
11137TIP3   OH254901   5.013   4.694  17.201 -0.0638 -0.3730 -0.2588
11137TIP3    H154902   5.056   4.630  17.259 -0.4496 -0.3491  0.0589
11137TIP3    H254903   4.930   4.653  17.178 -0.1724 -0.1229 -0.3105
11138TIP3   OH254904   1.739   1.167  13.336 -0.3985 -0.6306 -0.6234
11138TIP3    H154905   1.723   1.075  13.314 -0.4385 -0.8905  0.4293
11138TIP3    H254906   1.767   1.165  13.427  1.5227  0.2359 -1.1574
11139TIP3   OH254907   2.517   3.400   2.584  0.4929 -0.5994  0.0072
11139TIP3    H154908   2.430   3.402   2.623 -0.1816  4.4419 -0.9871
11139TIP3    H254909   2.503   3.370   2.494 -0.7843  2.1937 -0.8273
11140TIP3   OH254910   6.643   0.854  16.930  0.0288 -0.1132  0.3432
11140TIP3    H154911   6.644   0.890  17.018 -1.1825  0.9277 -0.0408
11140TIP3    H254912   6.735   0.835  16.911  0.5262  1.3252  1.1646
11141TIP3   OH254913   3.081   5.190   6.095 -0.2592  0.5833 -0.3113
11141TIP3    H154914   3.167   5.148   6.096 -0.4675  0.1532 -0.5023
11141TIP3    H254915   3.027   5.134   6.040 -1.4112 -0.6487  1.8962
11142TIP3   OH254916   5.007   2.246   2.476  0.6199  0.6072  0.2287
11142TIP3    H154917   5.049   2.191   2.410 -1.9557 -0.8964 -0.3365
11142TIP3    H254918   4.985   2.186   2.547 -1.0019  1.1517  0.2330
11143TIP3   OH254919   6.599   3.519   2.851  0.3606  0.0568  0.1860
11143TIP3    H154920   6.528   3.541   2.911  0.1091 -1.6284  0.5601
11143TIP3    H254921   6.558   3.521   2.764  0.5298  1.6793  0.1106
11144TIP3   OH254922   2.006   4.815  11.405  0.6409  0.4604  0.1474
11144TIP3    H154923   2.076   4.752  11.391  0.6665 -0.1143  2.4847
11144TIP3    H254924   1.927   4.762  11.418  0.4321  0.9243  0.8781
11145TIP3   OH254925   2.575   5.695   1.246  0.5229 -0.4587  0.1047
11145TIP3    H154926   2.495   5.743   1.227  1.4483  1.2404  0.3364
11145TIP3    H254927   2.635   5.761   1.281  2.4552 -1.4132 -1.2474
11146TIP3   OH254928   5.010   2.927  15.505 -0.0999 -0.5521 -0.2976
11146TIP3    H154929   4.936   2.957  15.557 -1.1613 -0.9811 -1.4891
11146TIP3    H254930   5.075   2.899  15.569 -2.3235 -3.5092  0.9192
11147TIP3   OH254931   3.302   1.062   2.683 -0.1023  0.2189 -0.3701
11147TIP3    H154932   3.331   1.137   2.631 -1.2214  1.2684  0.4585
11147TIP3    H254933   3.226   1.028   2.635 -1.3280  1.3787  0.6797
11148TIP3   OH254934   5.718   5.477  13.574  0.4044 -0.1615  0.0822
11148TIP3    H154935   5.682   5.476  13.485  3.1414  1.6266 -1.1878
11148TIP3    H254936   5.809   5.450  13.563  0.2974 -1.9532  2.7179
11149TIP3   OH254937   3.323   6.013   1.208  0.0538 -0.3972 -0.1749
11149TIP3    H154938   3.260   6.057   1.265  0.0275  2.2645 -2.1179
11149TIP3    H254939   3.387   5.975   1.269 -1.4174 -0.0343  1.7012
11150TIP3   OH254940   3.716   1.713   3.907  0.3018  0.0968  0.4965
11150TIP3    H154941   3.684   1.770   3.977 -0.6047 -0.5813  0.6628
11150TIP3    H254942   3.778   1.654   3.950 -1.8303 -1.7500  1.2875
11151TIP3   OH254943   5.138   6.203   1.780 -0.5806 -0.8204  0.0077
11151TIP3    H154944   5.099   6.221   1.695  0.5068  2.6399  0.0783
11151TIP3    H254945   5.088   6.257   1.841  0.3541 -1.1414  1.0919
11152TIP3   OH254946   6.390   5.720   2.245 -0.0190 -0.4329  0.3344
11152TIP3    H154947   6.405   5.814   2.251  0.9230 -0.5213 -0.3461
11152TIP3    H254948   6.437   5.693   2.165 -0.9910 -1.3377  0.0484
11153TIP3   OH254949   4.377   5.956   1.906  0.0024 -0.3132  0.1485
11153TIP3    H154950   4.287   5.980   1.884  0.4900  1.2857 -0.2741
11153TIP3    H254951   4.418   5.935   1.822  0.4634  0.6799  0.1015
11154TIP3   OH254952   4.012   3.392   1.060  0.0873 -0.8773  1.1952
11154TIP3    H154953   4.068   3.354   1.127  1.2639  0.0372  0.7890
11154TIP3    H254954   4.011   3.486   1.080  0.8136 -0.5227 -0.2795
11155TIP3   OH254955   3.961   5.271   0.975 -0.6615  0.0906 -0.4269
11155TIP3    H154956   3.997   5.203   1.032  1.2910  1.7872  0.5096
11155TIP3    H254957   4.002   5.253   0.890 -1.9478 -1.2054 -0.8102
11156TIP3   OH254958   6.501   4.663  10.855 -0.1747  0.4777  0.2100
11156TIP3    H154959   6.431   4.639  10.795  0.5062  0.4492 -0.6011
11156TIP3    H254960   6.545   4.737  10.813  0.4466  0.3233  0.5643
11157TIP3   OH254961   5.797   5.382   3.075  0.3442 -0.0465 -0.0169
11157TIP3    H154962   5.772   5.306   3.022  0.6520  0.6349 -1.1768
11157TIP3    H254963   5.881   5.358   3.114 -0.6646 -1.2130  1.5715
11158TIP3   OH254964   0.042   5.093  13.400  0.6475 -0.2873 -0.5216
11158TIP3    H154965   0.051   5.122  13.309  1.2265 -1.2881 -0.7961
11158TIP3    H254966  -0.009   5.012  13.394  0.9065 -0.4943  0.0154
11159TIP3   OH254967   4.225   0.848   3.588 -0.2748 -0.1395 -0.1889
11159TIP3    H154968   4.195   0.887   3.505 -0.8022 -0.6637 -0.2499
11159TIP3    H254969   4.241   0.756   3.567  1.5361  0.1410 -0.1914
11160TIP3   OH254970   1.091   1.632  13.587 -0.3546  0.1516 -0.1584
11160TIP3    H154971   1.012   1.652  13.536 -0.4626 -0.8152 -0.4035
11160TIP3    H254972   1.163   1.658  13.530 -0.4879  0.1060 -0.3489
11161TIP3   OH254973   3.393   5.560  13.825 -0.6791  0.1307  0.8070
11161TIP3    H154974   3.365   5.561  13.734  1.4737  3.2464 -0.0168
11161TIP3    H254975   3.325   5.610  13.871 -0.7502  0.3491  0.4732
11162TIP3   OH254976   2.765   3.165  15.871 -0.2222 -0.5162  0.0235
11162TIP3    H154977   2.790   3.256  15.856 -0.8527 -0.6039 -1.8485
11162TIP3    H254978   2.671   3.163  15.853 -0.6497 -1.1601  2.0851
11163TIP3   OH254979   1.829   1.021   1.393  0.1696  0.4159 -0.1506
11163TIP3    H154980   1.919   0.990   1.381 -0.0651 -0.1031 -0.6429
11163TIP3    H254981   1.801   0.980   1.475  0.5610  1.0168  0.2867
11164TIP3   OH254982   4.997   4.181   5.264  0.5387  0.2526  0.0583
11164TIP3    H154983   5.002   4.155   5.356 -1.2028  1.2806  0.4916
11164TIP3    H254984   4.903   4.180   5.243  0.8979 -0.0026 -1.7286
11165TIP3   OH254985   4.184   4.713  13.593 -0.3588  0.3789  0.5183
11165TIP3    H154986   4.161   4.676  13.508 -0.8125 -1.1145  1.2518
11165TIP3    H254987   4.100   4.728  13.636 -0.1250  0.7408  0.8582
11166TIP3   OH254988   3.981   4.717   5.975 -0.1226  0.3186  0.2678
11166TIP3    H154989   3.896   4.674   5.977 -0.2718  0.6369  1.4522
11166TIP3    H254990   4.040   4.656   6.019  0.4074 -0.1392 -1.0079
11167TIP3   OH254991   6.747   3.145   1.352 -0.6821 -0.3811 -0.1731
11167TIP3    H154992   6.757   3.229   1.398  2.3488 -0.4866 -0.4267
11167TIP3    H254993   6.776   3.163   1.262 -1.6000 -1.3438 -0.6876
11168TIP3   OH254994   3.057   0.404  13.952 -0.7000  0.2968 -0.5888
11168TIP3    H154995   3.112   0.357  14.015  2.4906  2.3859 -1.5427
11168TIP3    H254996   2.978   0.425  14.000  0.4508 -0.5433  1.8427
11169TIP3   OH254997   6.229   3.338  16.716  0.1788  0.1214 -0.0380
11169TIP3    H154998   6.305   3.300  16.672  0.0918 -0.7121  0.5166
11169TIP3    H254999   6.204   3.273  16.781 -0.3834  0.8469  0.4807
11170TIP3   OH255000   1.325   6.170   5.307 -0.4728 -0.3814  0.0823
11170TIP3    H155001   1.327   6.079   5.338  0.1010  0.2069  1.9273
11170TIP3    H255002   1.397   6.213   5.354 -0.1137  0.8190 -1.4839
11171TIP3   OH255003   3.843   4.984   4.847  0.4755  0.2082  0.6114
11171TIP3    H155004   3.820   4.901   4.889  1.7525 -0.2660  0.4211
11171TIP3    H255005   3.916   5.019   4.898  0.2429  0.9925  0.4233
11172TIP3   OH255006   6.498   6.029   0.071 -0.5445 -0.1129  0.6155
11172TIP3    H155007   6.532   6.026  -0.019  2.5196 -1.8019  1.6617
11172TIP3    H255008   6.503   6.122   0.095 -1.1472  0.3261 -0.8304
11173TIP3   OH255009   5.135   1.391   4.109  0.3795 -0.1787 -0.5844
11173TIP3    H155010   5.094   1.475   4.128  1.2303  0.5369 -1.7808
11173TIP3    H255011   5.110   1.371   4.019  0.6550 -0.9205 -0.5059
11174TIP3   OH255012   3.612   4.327  16.608  0.1957  0.0651 -0.3893
11174TIP3    H155013   3.584   4.371  16.528  0.2604  1.7274  0.4681
11174TIP3    H255014   3.703   4.355  16.621  0.4516 -0.8331 -0.1525
11175TIP3   OH255015   4.208   0.605   3.377  0.3575 -0.2466 -0.3571
11175TIP3    H155016   4.251   0.562   3.452  0.6192 -2.0594 -1.4872
11175TIP3    H255017   4.116   0.608   3.401  0.6057  0.4362  0.5909
11176TIP3   OH255018   6.053   0.660  12.273 -0.8839 -0.3545  0.3042
11176TIP3    H155019   6.140   0.685  12.244 -0.6709 -1.6315 -0.2093
11176TIP3    H255020   6.065   0.631  12.364 -0.9965  0.5536  0.6273
11177TIP3   OH255021   6.248   3.496  16.514  0.0225 -0.4147 -0.1744
11177TIP3    H155022   6.227   3.457  16.598  0.3709  0.8580  0.5344
11177TIP3    H255023   6.180   3.464  16.455 -0.4551 -1.0108  0.6757
11178TIP3   OH255024   1.846   4.836  12.536  0.3053  0.8170  0.0587
11178TIP3    H155025   1.802   4.890  12.471  1.4264  3.6674  1.5033
11178TIP3    H255026   1.901   4.777  12.485  0.8427  2.6751 -1.6349
11179TIP3   OH255027   6.269   1.061   6.115  0.3832 -0.1296 -0.6377
11179TIP3    H155028   6.266   1.074   6.021 -0.8622  1.4024 -0.4171
11179TIP3    H255029   6.195   1.111   6.149  0.6830 -0.8134  1.1433
11180TIP3   OH255030   2.194   2.222  11.427  0.0741  0.1640 -0.0042
11180TIP3    H155031   2.203   2.131  11.454  0.0419  0.0616 -0.3314
11180TIP3    H255032   2.146   2.218  11.345  0.9008  0.4021 -0.5156
11181TIP3   OH255033   2.391   5.211  14.318 -0.6959 -0.3110  0.3985
11181TIP3    H155034   2.449   5.251  14.254 -0.6186 -1.3382 -0.1833
11181TIP3    H255035   2.441   5.138  14.354 -0.7296  0.2589  1.6580
11182TIP3   OH255036   2.015   4.935  13.013 -0.2533 -0.2234 -0.2480
11182TIP3    H155037   2.030   5.030  13.018  0.0656 -0.3530  2.4288
11182TIP3    H255038   1.967   4.923  12.931  1.9401  1.8997 -2.0025
11183TIP3   OH255039   3.637   5.805   1.936  0.0735 -0.2345 -0.0135
11183TIP3    H155040   3.643   5.732   1.998 -0.6629 -0.1274  0.2026
11183TIP3    H255041   3.605   5.878   1.989  0.1561  0.0591 -0.3657
11184TIP3   OH255042   2.452   5.886   5.965  0.0309 -0.0553  0.1791
11184TIP3    H155043   2.467   5.792   5.954  0.1397  0.0756 -1.0294
11184TIP3    H255044   2.378   5.893   6.025  1.0834 -0.8654  1.5932
11185TIP3   OH255045   3.348   3.091   1.404 -0.2370  0.3926  0.2501
11185TIP3    H155046   3.322   3.069   1.314 -0.6620 -1.1321  0.7161
11185TIP3    H255047   3.439   3.065   1.409 -0.3412  0.0563  0.3927
11186TIP3   OH255048   2.393   0.794  11.726 -0.3343  0.3083 -0.2786
11186TIP3    H155049   2.443   0.831  11.799  1.3874  0.1207 -1.2967
11186TIP3    H255050   2.358   0.871  11.681 -1.0261  0.4441  0.4708
11187TIP3   OH255051   4.803   1.971   1.923 -0.1041  0.1136  0.1643
11187TIP3    H155052   4.831   1.880   1.931 -0.2604 -0.1802 -2.1543
11187TIP3    H255053   4.872   2.022   1.966  1.4022 -0.9363 -0.9463
11188TIP3   OH255054   5.688   0.198   1.948  0.4703 -0.6291  0.1767
11188TIP3    H155055   5.658   0.237   1.866 -0.6498  0.1562  0.9155
11188TIP3    H255056   5.720   0.111   1.924  0.1240 -0.4271 -1.0725
11189TIP3   OH255057   6.042   0.933   4.089  0.2508 -0.2495 -0.0998
11189TIP3    H155058   6.026   1.026   4.109  2.3921 -0.1234  1.3724
11189TIP3    H255059   6.073   0.933   3.999 -0.8614  0.3039 -0.5059
11190TIP3   OH255060   1.797   3.376  15.260 -0.2257 -0.5992 -0.2766
11190TIP3    H155061   1.848   3.398  15.338 -1.2337  0.7763  0.0319
11190TIP3    H255062   1.862   3.359  15.192  0.6558  0.8681  0.1738
11191TIP3   OH255063   3.969   2.704  11.268  0.2671 -0.4246 -0.6728
11191TIP3    H155064   3.877   2.728  11.252  0.2027  0.5248  0.8711
11191TIP3    H255065   4.018   2.782  11.241  0.7266 -1.2481 -2.3090
11192TIP3   OH255066   1.921   0.392   3.318 -0.3683  0.1362  0.1404
11192TIP3    H155067   1.996   0.447   3.295 -1.5898  1.1146 -1.7200
11192TIP3    H255068   1.950   0.303   3.297  0.2262  0.5175 -0.7467
11193TIP3   OH255069   3.805   2.714  13.819  0.0845 -0.4571  0.1186
11193TIP3    H155070   3.788   2.622  13.836  0.0065 -0.1508  1.8969
11193TIP3    H255071   3.836   2.717  13.729 -3.1106 -1.8152 -1.1553
11194TIP3   OH255072   2.418   3.752  11.027 -0.2890 -0.4510  0.9315
11194TIP3    H155073   2.428   3.686  10.958 -2.1728 -1.0226  1.1363
11194TIP3    H255074   2.421   3.835  10.981 -0.2834 -0.7743  0.3341
11195TIP3   OH255075   4.297   3.786   2.662 -0.0217  0.8063  0.4432
11195TIP3    H155076   4.334   3.836   2.590  0.5180 -1.5375 -0.9958
11195TIP3    H255077   4.219   3.745   2.625  0.0209 -0.0835  1.3029
11196TIP3   OH255078   2.686   2.279   4.421  0.2349 -0.1848 -0.5197
11196TIP3    H155079   2.628   2.258   4.494  2.1238 -0.9530  0.8296
11196TIP3    H255080   2.680   2.203   4.363  0.6317 -0.7187  0.1235
11197TIP3   OH255081   3.791   0.397  12.797 -0.6181 -0.0016  0.2403
11197TIP3    H155082   3.758   0.409  12.887  0.5983 -3.4392  1.3039
11197TIP3    H255083   3.712   0.380  12.746 -1.1792  0.0390  1.0581
11198TIP3   OH255084   1.158   2.854  10.560 -0.3505  0.5515 -0.4072
11198TIP3    H155085   1.251   2.877  10.558  0.5109 -2.1860  1.7407
11198TIP3    H255086   1.139   2.821  10.472  0.8199  0.7307 -0.7486
11199TIP3   OH255087   6.291   2.645  16.851  0.1886 -0.6595  0.6089
11199TIP3    H155088   6.326   2.557  16.840  1.0312 -0.2826  0.1882
11199TIP3    H255089   6.238   2.660  16.773 -0.3039 -0.9404  0.8813
11200TIP3   OH255090   4.667   5.737  11.516 -0.2465 -0.1890  0.1235
11200TIP3    H155091   4.712   5.816  11.486 -0.5959 -0.0867 -0.1375
11200TIP3    H255092   4.728   5.666  11.496  0.5596  0.1147  1.3871
11201TIP3   OH255093   6.550   2.417  12.556  0.2470  0.2456  0.1596
11201TIP3    H155094   6.568   2.376  12.640  0.1198  1.6652  0.9170
11201TIP3    H255095   6.454   2.416  12.549  0.2787 -0.3682 -0.2379
11202TIP3   OH255096   6.760   4.720  15.632 -0.6798  0.4531 -0.4252
11202TIP3    H155097   6.795   4.692  15.717 -2.8408 -0.1031  0.3596
11202TIP3    H255098   6.800   4.805  15.617 -0.6515  0.8282  1.4595
11203TIP3   OH255099   0.063   5.063   2.602  0.1542  0.5159 -0.1401
11203TIP3    H155100   0.043   4.969   2.600 -3.7150  1.2000 -0.2296
11203TIP3    H255101   0.148   5.069   2.557  0.2007 -2.8399 -0.8132
11204TIP3   OH255102   3.074   0.456   0.759 -0.4283  0.2214  0.4651
11204TIP3    H155103   3.123   0.466   0.841  0.1377 -1.7113  0.4201
11204TIP3    H255104   3.141   0.445   0.692 -0.8953  1.6617 -0.2786
11205TIP3   OH255105   2.780   3.537   0.343  0.8867 -0.1353  0.4138
11205TIP3    H155106   2.841   3.510   0.275 -0.3705 -0.0360 -0.8105
11205TIP3    H255107   2.738   3.456   0.371 -1.1101  0.1417 -1.4969
11206TIP3   OH255108   3.662   6.408   3.045  0.1370 -0.2029  0.0961
11206TIP3    H155109   3.756   6.405   3.028  0.2619 -0.5356  0.8106
11206TIP3    H255110   3.624   6.349   2.980  0.2014  1.4415 -1.5202
11207TIP3   OH255111   6.507   5.385   0.533 -0.1434  0.0468  0.2918
11207TIP3    H155112   6.602   5.376   0.526 -0.1387 -0.9896  1.3606
11207TIP3    H255113   6.473   5.304   0.497 -0.6703  0.6712 -0.6554
11208TIP3   OH255114   2.287   2.227  13.042  0.2306 -0.2222  0.2132
11208TIP3    H155115   2.371   2.195  13.008 -0.0241 -2.4113  1.4367
11208TIP3    H255116   2.312   2.284  13.116  0.6498  0.1765 -0.2268
11209TIP3   OH255117   6.019   0.242  16.304  0.2978 -0.6388  0.3346
11209TIP3    H155118   6.074   0.284  16.370  1.1178 -1.5299  0.2312
11209TIP3    H255119   6.011   0.151  16.333 -1.2717 -0.4986  0.4334
11210TIP3   OH255120   1.613   4.791  11.876  0.0527  0.1824 -0.1461
11210TIP3    H155121   1.672   4.717  11.863  1.2938  0.5579  2.6707
11210TIP3    H255122   1.527   4.751  11.889  0.2011 -0.5574 -1.2801
11211TIP3   OH255123   1.519   0.027  14.960 -0.0077  0.1173 -0.5893
11211TIP3    H155124   1.549   0.111  14.994  2.5927 -0.8644 -0.2572
11211TIP3    H255125   1.531   0.034  14.865 -0.6655  0.4347 -0.6510
11212TIP3   OH255126   5.124   1.225   4.803 -0.2545  0.2407 -0.4920
11212TIP3    H155127   5.049   1.198   4.749 -0.6154  1.8209 -0.8444
11212TIP3    H255128   5.089   1.230   4.892 -0.2046 -0.3395 -0.4362
11213TIP3   OH255129   0.297   4.689  16.479 -0.1454  0.0499  0.2285
11213TIP3    H155130   0.383   4.711  16.515 -0.4812 -0.4618  1.3647
11213TIP3    H255131   0.268   4.770  16.435  0.4703  0.5458  0.7153
11214TIP3   OH255132   0.262   2.306  14.946 -0.3348  0.0480 -0.7114
11214TIP3    H155133   0.244   2.391  14.907 -0.0025 -0.0558 -1.0940
11214TIP3    H255134   0.347   2.280  14.911  1.1054  0.9620  1.8306
11215TIP3   OH255135   6.321   1.129   4.335  0.3326  0.1952 -0.2891
11215TIP3    H155136   6.297   1.103   4.246  0.8933  1.8564 -0.9613
11215TIP3    H255137   6.379   1.204   4.324 -0.6210  1.2819  1.5003
11216TIP3   OH255138   5.741   6.735  14.563  0.0501  0.7558  0.2206
11216TIP3    H155139   5.804   6.789  14.515  0.1442  0.6092  0.1764
11216TIP3    H255140   5.728   6.781  14.646  1.7968 -0.2430  1.1028
11217TIP3   OH255141   2.738   5.617  15.952  0.1050  0.0491 -0.1535
11217TIP3    H155142   2.736   5.571  16.036 -3.0322  1.1719  0.4909
11217TIP3    H255143   2.713   5.550  15.888  0.4144 -0.2904  0.0743
11218TIP3   OH255144   3.945   3.420   4.349  0.3664  0.4869 -0.4647
11218TIP3    H155145   3.852   3.403   4.335  0.3699  0.7073 -0.7691
11218TIP3    H255146   3.982   3.334   4.371  0.7635 -0.3919 -4.0018
11219TIP3   OH255147   1.383   5.715  13.568  0.2438  0.3577  0.5533
11219TIP3    H155148   1.447   5.677  13.507 -1.3436 -0.3202 -0.7986
11219TIP3    H255149   1.365   5.644  13.630 -0.0565  0.1298  0.2126
11220TIP3   OH255150   6.558   5.068   5.406 -0.1075  0.4587  0.0363
11220TIP3    H155151   6.550   4.975   5.428 -1.3073  0.6913  0.6501
11220TIP3    H255152   6.511   5.113   5.476 -0.2059  1.4958 -0.6793
11221TIP3   OH255153   5.091   1.754   4.573  0.2169 -0.2527 -0.4008
11221TIP3    H155154   5.082   1.736   4.666 -0.4037 -1.0883 -0.6122
11221TIP3    H255155   5.001   1.752   4.539  0.4036  0.3687 -0.9636
11222TIP3   OH255156   2.482   2.592  14.975 -0.6514 -0.7120 -0.1461
11222TIP3    H155157   2.403   2.604  15.028 -0.0206 -0.2405  0.7022
11222TIP3    H255158   2.468   2.646  14.897 -0.1954  1.2388  1.0688
11223TIP3   OH255159   2.837   3.952   2.182  0.9234 -0.3580 -0.1807
11223TIP3    H155160   2.760   3.937   2.127  1.3252  1.7427 -1.4025
11223TIP3    H255161   2.908   3.907   2.137  0.7634 -0.8631  0.0559
11224TIP3   OH255162   6.708   6.190   2.178  0.0354 -0.1941 -0.2809
11224TIP3    H155163   6.802   6.175   2.189  0.0404 -1.8903 -2.0392
11224TIP3    H255164   6.703   6.275   2.133  0.8365 -0.5889 -1.1778
11225TIP3   OH255165   0.272   2.703  11.655  0.0642 -0.2384  0.1898
11225TIP3    H155166   0.216   2.639  11.612 -0.3195  0.5559 -0.5367
11225TIP3    H255167   0.360   2.666  11.650  0.0219 -0.1969 -1.2708
11226TIP3   OH255168   0.558   2.758  16.190 -0.4494 -0.7172  0.2680
11226TIP3    H155169   0.505   2.756  16.110 -1.1139  0.1423  0.6726
11226TIP3    H255170   0.600   2.844  16.190 -0.3538 -0.7596  0.7729
11227TIP3   OH255171   5.862   4.027   5.717  0.1989 -0.5714 -0.9212
11227TIP3    H155172   5.935   4.084   5.740 -0.4120 -1.1134  3.1103
11227TIP3    H255173   5.813   4.075   5.650  1.9450  1.7225 -0.6542
11228TIP3   OH255174   6.466   3.537  13.415 -0.0387  0.0119 -0.3368
11228TIP3    H155175   6.446   3.576  13.330  0.2106  1.8878  0.4140
11228TIP3    H255176   6.531   3.469  13.396  2.3640  2.4366 -1.3545
11229TIP3   OH255177   0.938   3.851  11.798 -0.3107 -0.4262 -0.2179
11229TIP3    H155178   0.958   3.770  11.846 -2.0644 -1.0470 -0.4519
11229TIP3    H255179   1.012   3.908  11.816 -0.5428 -0.8777  2.6886
11230TIP3   OH255180   0.579   0.756  14.658  0.1475  0.4639 -1.0671
11230TIP3    H155181   0.493   0.798  14.666  0.6607  1.5151 -0.8871
11230TIP3    H255182   0.604   0.737  14.749  0.1778  0.2900 -1.1105
11231TIP3   OH255183   3.661   5.709   4.232  0.3458 -0.7654  0.3664
11231TIP3    H155184   3.711   5.673   4.159 -0.9629  0.6655 -1.3173
11231TIP3    H255185   3.677   5.803   4.228 -1.9666 -0.3115  0.0995
11232TIP3   OH255186   1.398   0.059   5.071  0.7637 -0.0803  0.3936
11232TIP3    H155187   1.416   0.072   5.164 -1.1288  0.5477  0.7272
11232TIP3    H255188   1.431   0.138   5.029 -0.2542  0.6193  0.8504
11233TIP3   OH255189   4.433   2.025   5.803  0.0876 -0.0991 -0.1173
11233TIP3    H155190   4.445   1.948   5.859  0.2448 -0.4764 -0.6672
11233TIP3    H255191   4.481   2.095   5.848  0.8017 -0.5730 -0.1309
11234TIP3   OH255192   5.519   2.044   3.947  1.0625 -0.3234 -0.3361
11234TIP3    H155193   5.608   2.078   3.955  1.7818 -2.3142  0.6576
11234TIP3    H255194   5.494   2.020   4.036 -0.3191 -0.2105 -0.6658
11235TIP3   OH255195   4.241   3.390   0.097 -0.0219 -0.2529  0.1259
11235TIP3    H155196   4.205   3.425   0.179 -0.3420 -2.3725  0.9410
11235TIP3    H255197   4.164   3.358   0.050  0.3843 -1.1097  0.0324
11236TIP3   OH255198   2.803   5.122   2.569  0.3962  0.4026  0.7478
11236TIP3    H155199   2.896   5.098   2.564 -0.4546 -3.2852 -1.1593
11236TIP3    H255200   2.790   5.185   2.498  0.8051 -2.3376 -1.9809
11237TIP3   OH255201   4.602   0.882   2.227 -1.2939  0.0966  0.0870
11237TIP3    H155202   4.628   0.846   2.142 -0.4408  2.0164 -0.5225
11237TIP3    H255203   4.557   0.964   2.207 -0.2475  1.0838  1.4696
11238TIP3   OH255204   4.919   2.334   4.510  0.2444 -0.8532  0.5824
11238TIP3    H155205   4.984   2.325   4.441  1.1381 -1.0101  1.4250
11238TIP3    H255206   4.863   2.407   4.481  1.4121 -0.0383  0.3113
11239TIP3   OH255207   6.105   4.933  14.743  0.2536  0.1622 -0.1279
11239TIP3    H155208   6.087   4.924  14.649  1.0146 -0.1687 -0.2532
11239TIP3    H255209   6.042   4.875  14.785 -0.6263  0.9144 -0.3725
11240TIP3   OH255210   2.954   5.395   1.659  0.2328 -0.3806  0.2428
11240TIP3    H155211   3.009   5.430   1.729 -0.9233  0.2908  0.8585
11240TIP3    H255212   2.976   5.302   1.655 -0.9773 -0.8907  2.8494
11241TIP3   OH255213   6.331   1.419  11.727 -0.0486 -0.3555 -0.5655
11241TIP3    H155214   6.395   1.459  11.668  1.0020 -0.2163  0.6249
11241TIP3    H255215   6.293   1.493  11.774  0.9921 -0.6075  0.7452
11242TIP3   OH255216   6.569   5.529  13.787 -0.0188 -0.2362 -0.0140
11242TIP3    H155217   6.573   5.435  13.807 -0.6087 -0.2279  0.1528
11242TIP3    H255218   6.635   5.541  13.718  0.1130 -0.7571  0.0127
11243TIP3   OH255219   3.860   4.580   3.311  0.4166 -0.2160  0.3185
11243TIP3    H155220   3.874   4.640   3.384  0.1572  0.4335 -0.1548
11243TIP3    H255221   3.856   4.636   3.234  0.0193 -0.8248 -0.1185
11244TIP3   OH255222   2.520   6.135  15.729  0.6053 -0.3660  0.6684
11244TIP3    H155223   2.437   6.162  15.769  0.4123 -1.7201  1.2145
11244TIP3    H255224   2.495   6.106  15.641  0.9320  1.9201 -0.2611
11245TIP3   OH255225   4.982   0.681  16.042 -0.0851  0.1113  0.0939
11245TIP3    H155226   5.030   0.659  15.962  1.2678  1.3197  0.5198
11245TIP3    H255227   4.949   0.769  16.027 -2.1752 -0.6542 -0.1449
11246TIP3   OH255228   2.067   2.307   0.160  0.1664 -0.7937 -0.4616
11246TIP3    H155229   1.997   2.348   0.108 -0.9632  0.4961  1.8765
11246TIP3    H255230   2.021   2.246   0.218  1.0652 -0.5110  0.5837
11247TIP3   OH255231   5.182   3.604   1.144 -0.2996  0.0367 -0.0152
11247TIP3    H155232   5.172   3.561   1.059 -1.2184  0.7204 -0.2591
11247TIP3    H255233   5.225   3.538   1.199 -0.4960 -0.7197 -0.7514
11248TIP3   OH255234   5.153   3.097  16.452 -0.3631 -0.0338 -0.6734
11248TIP3    H155235   5.068   3.093  16.495 -0.5462  0.5918 -0.9675
11248TIP3    H255236   5.187   3.184  16.473 -0.1469  0.0181 -1.2158
11249TIP3   OH255237   2.788   2.396   4.170 -0.5831  0.4551 -0.4137
11249TIP3    H155238   2.863   2.338   4.161  0.0713  1.5475 -3.1822
11249TIP3    H255239   2.775   2.405   4.264  1.7045 -1.0781  0.1269
11250TIP3   OH255240   0.929   2.584  12.203  0.3647 -0.0833 -0.3503
11250TIP3    H155241   0.882   2.596  12.285  0.4326 -0.7143 -0.2147
11250TIP3    H255242   1.009   2.537  12.227 -0.4690 -1.9263 -0.9967
11251TIP3   OH255243   0.047   5.040   2.873 -0.6309 -0.1572  0.1798
11251TIP3    H155244   0.061   5.133   2.893 -1.8956  0.1834 -0.4073
11251TIP3    H255245   0.017   5.039   2.782 -1.2525 -1.0763  0.3770
11252TIP3   OH255246   4.594   1.280  14.478 -0.0359 -0.5135  0.2218
11252TIP3    H155247   4.562   1.263  14.390  0.7921  0.0932 -0.2173
11252TIP3    H255248   4.618   1.373  14.477 -0.7533 -0.2912  1.3321
11253TIP3   OH255249   0.409   1.810   6.010 -0.2092 -0.0152 -0.2888
11253TIP3    H155250   0.500   1.835   6.025  0.0046 -1.5180  1.2611
11253TIP3    H255251   0.358   1.886   6.037  0.5169 -0.0683  1.3439
11254TIP3   OH255252   0.399   2.174  12.645 -0.4064 -0.3335 -0.4193
11254TIP3    H155253   0.392   2.157  12.739 -0.6069 -1.4625 -0.6215
11254TIP3    H255254   0.310   2.165  12.612 -0.2134 -0.7444 -0.8369
11255TIP3   OH255255   6.719   6.033   4.510 -0.4918 -0.3274 -0.4877
11255TIP3    H155256   6.645   6.051   4.452 -1.4270  0.7251  0.9601
11255TIP3    H255257   6.679   5.994   4.588  0.2766  1.5065  0.8732
11256TIP3   OH255258   3.095   0.657   4.604 -0.3575  0.8658  0.1294
11256TIP3    H155259   3.044   0.585   4.644  0.5809 -0.0382 -0.2564
11256TIP3    H255260   3.031   0.727   4.591 -0.9333  0.7932  2.2021
11257TIP3   OH255261   1.109   6.509   4.324 -0.0743  0.0184 -0.5987
11257TIP3    H155262   1.077   6.456   4.396 -0.1077  0.4347 -0.3028
11257TIP3    H255263   1.056   6.482   4.249  0.6752 -1.1631 -0.7187
11258TIP3   OH255264   5.780   3.108  11.375  0.3169 -0.0030  0.1034
11258TIP3    H155265   5.800   3.020  11.406 -1.3419 -1.2558 -2.0535
11258TIP3    H255266   5.698   3.098  11.326  1.3293  2.2296 -2.3068
11259TIP3   OH255267   5.201   6.247  13.622 -0.0178  0.0564 -0.8113
11259TIP3    H155268   5.296   6.250  13.624  0.0770 -1.7776 -1.6271
11259TIP3    H255269   5.174   6.303  13.696  1.6585  0.7291 -0.6756
11260TIP3   OH255270   3.590   3.673   5.685 -0.3984 -0.1383 -0.4745
11260TIP3    H155271   3.542   3.721   5.618 -1.0914 -2.1308 -1.4816
11260TIP3    H255272   3.535   3.596   5.703 -0.3279  0.3876  2.5159
11261TIP3   OH255273   4.577   2.295  17.083 -0.3585  0.0264 -0.0361
11261TIP3    H155274   4.618   2.381  17.070  0.4163 -0.4848 -1.2437
11261TIP3    H255275   4.618   2.239  17.016 -2.2074 -0.8192 -0.5257
11262TIP3   OH255276   0.954   2.637  16.928 -0.0861 -0.1408 -0.0731
11262TIP3    H155277   0.950   2.653  16.834 -1.9011  1.0698  0.1408
11262TIP3    H255278   0.884   2.692  16.964  0.5186 -0.6280  1.9772
11263TIP3   OH255279   4.459   6.234   6.212  0.8973 -0.0757  0.3973
11263TIP3    H155280   4.517   6.157   6.219  0.4661 -0.4852 -0.4759
11263TIP3    H255281   4.494   6.295   6.277  1.3308 -0.9541  1.0150
11264TIP3   OH255282   2.146   2.931  10.674 -0.1969  0.0298  0.3019
11264TIP3    H155283   2.055   2.905  10.686  0.1541 -1.1828  0.3913
11264TIP3    H255284   2.145   3.026  10.686 -1.6561  0.2219 -0.9992
11265TIP3   OH255285   6.611   4.255  15.127  0.1058 -0.5780 -0.3688
11265TIP3    H155286   6.540   4.302  15.083  0.5690 -0.5702 -1.1259
11265TIP3    H255287   6.612   4.291  15.216 -1.3471 -1.1395 -0.0966
11266TIP3   OH255288   0.127   2.336   0.169 -0.0715 -0.4772  0.5776
11266TIP3    H155289   0.205   2.337   0.114 -0.2437  2.4196  0.2364
11266TIP3    H255290   0.147   2.396   0.241 -0.9756 -1.8601  2.0370
11267TIP3   OH255291   2.213   6.266   1.783  0.3228 -0.6149 -0.4815
11267TIP3    H155292   2.179   6.223   1.862  1.0960 -1.0118 -0.3523
11267TIP3    H255293   2.298   6.224   1.768 -0.4104 -1.5068 -2.3201
11268TIP3   OH255294   2.857   5.522  13.303  0.1876 -0.1894 -0.0190
11268TIP3    H155295   2.805   5.461  13.354 -1.6030  3.2437  2.7196
11268TIP3    H255296   2.907   5.571  13.368  2.7856  0.2915 -2.1812
11269TIP3   OH255297   2.617   0.880  11.411 -0.7462 -0.1568 -0.0733
11269TIP3    H155298   2.555   0.938  11.456  0.0423  0.0300  0.8053
11269TIP3    H255299   2.634   0.809  11.473 -1.0910 -0.9193 -0.8314
11270TIP3   OH255300   0.026   1.024  12.598  0.6736  0.1321 -0.1918
11270TIP3    H155301   0.092   0.956  12.604 -0.0398 -0.4776  1.5557
11270TIP3    H255302  -0.056   0.980  12.621  0.2555  1.6011  1.3822
11271TIP3   OH255303   5.563   0.377  16.590 -0.5633  0.1678 -0.3528
11271TIP3    H155304   5.598   0.344  16.673 -1.1697 -0.0950 -0.1985
11271TIP3    H255305   5.622   0.449  16.567 -0.1210 -0.0500  0.0748
11272TIP3   OH255306   5.085   4.734   2.558 -0.1029 -0.0332  0.0922
11272TIP3    H155307   5.001   4.695   2.584 -0.4587  0.1984 -0.6957
11272TIP3    H255308   5.095   4.810   2.617 -1.2091  0.8575 -0.8270
11273TIP3   OH255309   5.032   5.965   0.094  0.1540 -0.2610  0.6678
11273TIP3    H155310   5.050   5.878   0.132  0.7409 -0.6455 -0.4536
11273TIP3    H255311   5.069   6.026   0.157  1.3956 -0.9007  0.5883
11274TIP3   OH255312   0.664   1.761  11.661 -0.9057  0.6758  0.2598
11274TIP3    H155313   0.624   1.693  11.715 -0.3548  0.5329  0.4947
11274TIP3    H255314   0.694   1.827  11.723  0.6553  0.0320  0.2461
11275TIP3   OH255315   0.448   3.917  15.512 -0.7123  0.5241 -0.4047
11275TIP3    H155316   0.462   3.838  15.461 -0.0018  1.8297 -2.3679
11275TIP3    H255317   0.530   3.966  15.503 -1.1150  1.4709  0.7818
11276TIP3   OH255318   3.684   5.216   3.301  0.0283 -0.3850  0.2923
11276TIP3    H155319   3.728   5.287   3.348 -1.6996 -0.5428  2.2909
11276TIP3    H255320   3.690   5.141   3.360  1.6168 -1.9260 -1.6728
11277TIP3   OH255321   1.841   4.425   1.082  0.0314  0.4908 -0.2810
11277TIP3    H155322   1.825   4.508   1.038 -0.0940  0.4620 -0.2913
11277TIP3    H255323   1.931   4.403   1.060  0.2547  0.9115  0.1961
11278TIP3   OH255324   0.417   4.766  16.835  0.3684 -0.1152  0.4702
11278TIP3    H155325   0.439   4.691  16.890  1.4334 -1.2164 -1.3644
11278TIP3    H255326   0.497   4.785  16.786 -0.9265 -0.1842 -1.8268
11279TIP3   OH255327   2.242   3.572  15.578 -0.3821  0.0051  0.5189
11279TIP3    H155328   2.166   3.558  15.522  1.0154 -1.6029 -1.0794
11279TIP3    H255329   2.290   3.644  15.537  0.6234 -1.1496 -0.4001
11280TIP3   OH255330   3.519   3.843   4.421 -0.2458 -0.2898  0.2393
11280TIP3    H155331   3.538   3.783   4.493 -2.0428 -0.7623  0.3480
11280TIP3    H255332   3.541   3.930   4.455  2.3194 -0.8132  0.1011
11281TIP3   OH255333   5.687   6.392   2.360 -0.4293 -0.0823  0.3111
11281TIP3    H155334   5.614   6.376   2.299  0.3407  1.4461 -1.0863
11281TIP3    H255335   5.645   6.425   2.439 -1.3800 -1.0778  0.2559
11282TIP3   OH255336   1.784   3.544   1.159  0.0892 -0.2566  0.1571
11282TIP3    H155337   1.732   3.470   1.189  1.7293 -0.5341  2.5782
11282TIP3    H255338   1.854   3.505   1.107  0.6152 -0.3578  0.9367
11283TIP3   OH255339   2.107   1.458   0.544 -0.1073 -0.2980  0.3934
11283TIP3    H155340   2.125   1.552   0.549 -0.1585 -0.3274  1.1680
11283TIP3    H255341   2.159   1.420   0.615  0.3658 -0.9287 -0.2691
11284TIP3   OH255342   1.517   0.808   1.842  0.7239  0.4549  0.3287
11284TIP3    H155343   1.503   0.812   1.937  0.9916  1.1126  0.3483
11284TIP3    H255344   1.487   0.721   1.817  2.4411 -0.4807  1.3237
11285TIP3   OH255345   0.468   4.592  15.391  0.1356 -0.0837 -0.2966
11285TIP3    H155346   0.545   4.632  15.432 -0.6445 -0.1636  1.3438
11285TIP3    H255347   0.455   4.642  15.311  1.3402  0.5490 -0.1257
11286TIP3   OH255348   3.197   4.103   4.683  0.3501 -0.1428 -0.0160
11286TIP3    H155349   3.149   4.144   4.611  1.1926  1.9127  0.5133
11286TIP3    H255350   3.137   4.106   4.757  0.1208 -0.6274 -0.1788
11287TIP3   OH255351   4.368   6.816  13.224 -1.0890  0.7346  0.2712
11287TIP3    H155352   4.397   6.904  13.200  0.5549 -0.1829 -1.3496
11287TIP3    H255353   4.448   6.771  13.252 -1.5429 -0.7706 -0.7179
11288TIP3   OH255354   6.107   3.835   4.067 -0.0199  0.2175  0.1386
11288TIP3    H155355   6.201   3.849   4.074  0.0910 -0.6096  0.4315
11288TIP3    H255356   6.098   3.752   4.021 -0.6648  1.7249 -2.6994
11289TIP3   OH255357   5.991   4.182   3.787  0.0425  0.6556 -0.2620
11289TIP3    H155358   5.966   4.092   3.763  1.3352 -0.6893  2.9079
11289TIP3    H255359   6.084   4.187   3.764  0.8712 -0.1048  2.5259
11290TIP3   OH255360   5.613   6.082   4.687 -0.1082  0.9340  1.3618
11290TIP3    H155361   5.587   6.004   4.736 -0.4204  0.4479  0.4441
11290TIP3    H255362   5.697   6.108   4.726  1.2586 -1.2877  0.1507
11291TIP3   OH255363   6.035   5.528  17.025  0.4449 -0.0518 -0.0330
11291TIP3    H155364   6.044   5.622  17.012 -0.2164  0.2302  1.3589
11291TIP3    H255365   5.960   5.518  17.083 -0.5377 -1.5550 -1.4585
11292TIP3   OH255366   5.931   1.198   3.173 -0.6623 -0.2829  0.3598
11292TIP3    H155367   5.977   1.155   3.246 -0.7636  1.0870  1.2634
11292TIP3    H255368   5.864   1.135   3.147  1.6455 -2.3450 -0.9901
11293TIP3   OH255369   1.088   1.647   0.621  0.5859 -0.0088 -0.1779
11293TIP3    H155370   1.078   1.668   0.528 -0.8926  2.2869  0.4242
11293TIP3    H255371   1.157   1.706   0.651  0.7058 -0.3873  0.3030
11294TIP3   OH255372   2.265   0.041  14.812  0.4312 -0.0898  0.8703
11294TIP3    H155373   2.228   0.104  14.874  2.8005  1.7564  0.5388
11294TIP3    H255374   2.330  -0.008  14.864 -0.4343 -1.3699  0.7883
11295TIP3   OH255375   3.155   5.199  13.003  0.3670 -0.0390 -0.2936
11295TIP3    H155376   3.153   5.257  13.079  0.5000 -0.7306  0.2433
11295TIP3    H255377   3.139   5.257  12.928  0.5788  0.7011  0.2264
11296TIP3   OH255378   2.022   4.882   0.916 -0.5678 -0.1549 -0.4332
11296TIP3    H155379   1.977   4.839   0.989  0.9367 -0.6970  0.2135
11296TIP3    H255380   1.991   4.972   0.918 -0.4864 -0.1381  0.9394
11297TIP3   OH255381   0.489   5.096  13.260  0.1314  0.1450  0.3366
11297TIP3    H155382   0.442   5.117  13.341 -1.8776 -0.2370 -0.6873
11297TIP3    H255383   0.579   5.125  13.277 -0.0570 -0.5613  2.9536
11298TIP3   OH255384   6.645   3.609   0.767 -0.4704 -0.3689 -0.2096
11298TIP3    H155385   6.723   3.553   0.766  0.4300  0.7668  1.7714
11298TIP3    H255386   6.587   3.569   0.831 -0.7250 -0.1656 -0.3092
11299TIP3   OH255387   3.378   2.324   1.402  0.2551  0.7101  0.4277
11299TIP3    H155388   3.353   2.235   1.377  0.0891 -0.3262  3.6979
11299TIP3    H255389   3.297   2.365   1.431  0.5261  1.5327  0.0664
11300TIP3   OH255390   5.550   0.371  11.054  0.7493 -0.2664  0.1598
11300TIP3    H155391   5.536   0.277  11.044 -2.2735 -0.4819  4.1911
11300TIP3    H255392   5.503   0.410  10.981 -0.7235 -1.8433  0.2230
11301TIP3   OH255393   3.312   6.186   2.775 -0.6779  0.3762 -0.1550
11301TIP3    H155394   3.248   6.236   2.826  1.6974  1.8254  1.7121
11301TIP3    H255395   3.323   6.105   2.824 -0.5806  0.4534 -0.0467
11302TIP3   OH255396   6.478   3.429   5.203 -0.0225  0.3458  0.4204
11302TIP3    H155397   6.496   3.433   5.297  1.5425  1.7534  0.1295
11302TIP3    H255398   6.407   3.492   5.189 -1.7742 -1.4393  0.8975
11303TIP3   OH255399   6.561   0.942  10.713  0.2782 -0.7966 -0.1148
11303TIP3    H155400   6.632   1.005  10.698 -0.4048 -0.0202 -0.1702
11303TIP3    H255401   6.605   0.862  10.743  1.0797  0.1272  1.2783
11304TIP3   OH255402   1.376   3.459   0.666 -0.1894 -0.2896  0.0946
11304TIP3    H155403   1.362   3.385   0.607  0.8705 -0.7447  0.4017
11304TIP3    H255404   1.346   3.427   0.752 -3.7844  1.0616 -0.4742
11305TIP3   OH255405   1.560   1.746  16.278  0.2313 -0.1274  1.1536
11305TIP3    H155406   1.651   1.734  16.305  1.1305  3.5900  0.3412
11305TIP3    H255407   1.519   1.794  16.350  0.0096  1.4020  0.0784
11306TIP3   OH255408   1.149   2.492   4.840  0.8147  0.1892  0.4614
11306TIP3    H155409   1.230   2.488   4.892  0.8899 -0.0122  0.3320
11306TIP3    H255410   1.161   2.425   4.772  0.9150  0.7543 -0.0963
11307TIP3   OH255411   2.696   3.804  17.075  0.4370 -0.2967  0.4601
11307TIP3    H155412   2.785   3.770  17.081  0.3264 -0.6581  0.0361
11307TIP3    H255413   2.664   3.775  16.990  0.4974  1.2297 -0.1118
11308TIP3   OH255414   0.967   6.605  10.665  0.0913 -0.1048  0.2013
11308TIP3    H155415   1.024   6.554  10.722 -0.6565  0.7208  1.7377
11308TIP3    H255416   0.918   6.540  10.615  2.1394 -0.8354 -0.9899
11309TIP3   OH255417   3.278   2.639  15.280 -0.1474  0.1143 -0.4154
11309TIP3    H155418   3.368   2.618  15.253 -0.2083 -0.0358 -0.5033
11309TIP3    H255419   3.277   2.734  15.286 -0.2877  0.1939 -1.4885
11310TIP3   OH255420   1.454   6.335   0.482 -0.3782  0.4206 -0.0187
11310TIP3    H155421   1.361   6.320   0.461 -0.4918  1.8831 -0.6597
11310TIP3    H255422   1.457   6.335   0.577 -1.0585  0.4407  0.0083
11311TIP3   OH255423   3.283   2.906   5.066  0.1467 -0.2052 -0.1609
11311TIP3    H155424   3.309   2.888   4.975  0.7324 -0.2780  0.0196
11311TIP3    H255425   3.187   2.911   5.062  0.1597 -0.2893 -0.7688
11312TIP3   OH255426   0.406   4.517  11.404 -0.4660 -0.1914  0.7182
11312TIP3    H155427   0.409   4.532  11.310  0.6770 -0.2201  0.7358
11312TIP3    H255428   0.340   4.579  11.436 -0.0421  0.6335  0.0383
11313TIP3   OH255429   1.579   0.582   1.366 -0.8222  0.0102  0.5617
11313TIP3    H155430   1.637   0.657   1.353 -1.8308  0.7022 -0.1033
11313TIP3    H255431   1.509   0.594   1.301 -1.6111 -0.9048  1.2089
11314TIP3   OH255432   6.349   2.111  13.875 -0.3548  0.3152 -0.5325
11314TIP3    H155433   6.301   2.187  13.842 -1.3173 -0.5181 -1.1653
11314TIP3    H255434   6.280   2.047  13.896  0.3488  0.1153  1.3417
11315TIP3   OH255435   4.022   3.481   4.640 -0.0026 -0.4930 -0.0898
11315TIP3    H155436   4.109   3.518   4.623 -0.4362 -0.0322 -1.4901
11315TIP3    H255437   3.988   3.459   4.553 -1.5055 -0.1357  0.3771
11316TIP3   OH255438   6.691   5.842   1.839  0.4370  0.5809 -0.0805
11316TIP3    H155439   6.648   5.914   1.884  1.3644  0.7160  0.5988
11316TIP3    H255440   6.769   5.880   1.800 -0.1521  0.3903 -1.5397
11317TIP3   OH255441   0.982   3.251   6.004 -0.2501  0.6341 -1.2407
11317TIP3    H155442   0.977   3.179   6.066 -0.1603 -0.3638 -2.3506
11317TIP3    H255443   0.973   3.330   6.057 -0.2750 -0.1894  0.0078
11318TIP3   OH255444   3.571   3.405  13.086  0.1345 -0.0677 -0.0270
11318TIP3    H155445   3.656   3.408  13.042 -0.7097  0.3964 -1.7286
11318TIP3    H255446   3.544   3.496  13.093 -1.1075 -0.2962 -1.3934
11319TIP3   OH255447   5.781   3.401  13.564  0.0887 -0.1665  0.1778
11319TIP3    H155448   5.736   3.392  13.648  0.9579 -0.0982  0.6602
11319TIP3    H255449   5.794   3.495  13.553 -0.5673 -0.1259 -0.3390
11320TIP3   OH255450   5.122   4.919  15.900  0.6304 -0.2649  0.2672
11320TIP3    H155451   5.081   4.833  15.910  1.8371 -0.8625  0.3312
11320TIP3    H255452   5.170   4.932  15.982  1.3161 -0.0200 -0.1579
11321TIP3   OH255453   4.046   6.076   0.384  0.1124  0.1390 -0.0358
11321TIP3    H155454   3.952   6.060   0.395  0.1224 -0.7801 -1.0512
11321TIP3    H255455   4.074   6.115   0.467 -0.7715 -1.4371  1.0547
11322TIP3   OH255456   5.148   5.460   4.648 -0.2055  0.1660 -0.2153
11322TIP3    H155457   5.241   5.449   4.664 -0.5615  0.9280  3.1468
11322TIP3    H255458   5.124   5.386   4.592  1.9828 -1.4624  0.8400
11323TIP3   OH255459   2.851   5.094   1.237  0.2376 -0.0277  0.5751
11323TIP3    H155460   2.946   5.101   1.249  0.3785  0.7422 -0.7060
11323TIP3    H255461   2.841   5.039   1.159 -0.2586  1.3599 -0.4074
11324TIP3   OH255462   6.200   3.232   5.089  0.2786  0.3123  0.0247
11324TIP3    H155463   6.240   3.146   5.094 -0.2949 -0.0479 -1.2161
11324TIP3    H255464   6.208   3.268   5.177  0.6566 -0.9462  0.5179
11325TIP3   OH255465   4.586   0.488  13.404  0.1305 -0.3876  0.4997
11325TIP3    H155466   4.645   0.430  13.452 -0.2051 -0.7261  0.4998
11325TIP3    H255467   4.608   0.474  13.312 -0.4516 -1.0585  0.4592
11326TIP3   OH255468   5.490   1.736  12.559  0.1692  0.7332 -0.5633
11326TIP3    H155469   5.463   1.800  12.626  1.0526 -0.9243  1.4687
11326TIP3    H255470   5.586   1.741  12.558  0.2198 -0.1330 -0.8221
11327TIP3   OH255471   2.159   2.487  13.426  0.1622 -0.5380  0.1524
11327TIP3    H155472   2.086   2.432  13.396  0.6392 -2.2042  1.8635
11327TIP3    H255473   2.226   2.476  13.358 -0.9192  0.5756 -1.1540
11328TIP3   OH255474   4.407   4.288   2.878 -0.0196 -0.4009 -0.8144
11328TIP3    H155475   4.378   4.197   2.873 -1.1627 -0.0943 -0.1783
11328TIP3    H255476   4.375   4.319   2.963  2.2523 -0.0243 -0.0060
11329TIP3   OH255477   5.903   5.576   2.209 -0.6916  0.6106  0.2971
11329TIP3    H155478   5.841   5.640   2.243  1.3266  2.8911  0.0181
11329TIP3    H255479   5.927   5.523   2.285 -1.2705  1.2072  0.9086
11330TIP3   OH255480   6.409   1.104   2.108  0.7222 -0.0668  0.1764
11330TIP3    H155481   6.410   1.036   2.175 -1.2368  0.0915  0.4004
11330TIP3    H255482   6.416   1.056   2.025 -1.2417 -0.6233  0.3015
11331TIP3   OH255483   1.341   4.709   0.140 -0.0009 -0.6228  0.1245
11331TIP3    H155484   1.349   4.739   0.231 -1.7295  2.5921 -0.6352
11331TIP3    H255485   1.248   4.716   0.121  0.1688 -2.3615 -1.5846
11332TIP3   OH255486   4.888   3.729  15.275  0.5212 -0.2631  0.1915
11332TIP3    H155487   4.911   3.637  15.263  2.2802 -0.0170  1.2820
11332TIP3    H255488   4.888   3.766  15.187  0.0364 -1.2474 -0.2291
11333TIP3   OH255489   2.313   3.816  17.256 -0.0268 -0.1326 -0.2968
11333TIP3    H155490   2.406   3.818  17.233 -0.1319 -1.7734 -1.0768
11333TIP3    H255491   2.267   3.812  17.172 -0.7616 -0.1791  0.0911
11334TIP3   OH255492   4.803   0.612   2.937 -0.4561 -0.2257  0.0634
11334TIP3    H155493   4.831   0.559   2.862 -0.7869  0.5264 -0.6037
11334TIP3    H255494   4.759   0.550   2.995 -0.7745 -0.7023 -0.6722
11335TIP3   OH255495   3.564   4.226  14.978 -0.0702  0.3150  0.2092
11335TIP3    H155496   3.628   4.155  14.973  0.3592  0.7776 -1.2751
11335TIP3    H255497   3.618   4.305  14.983 -0.5289  0.6364  0.0656
11336TIP3   OH255498   0.797   5.256   0.688 -0.2016 -0.3104  0.3052
11336TIP3    H155499   0.814   5.343   0.652 -1.0617 -0.2572  0.0111
11336TIP3    H255500   0.720   5.267   0.744 -1.7839 -1.3167 -1.5589
11337TIP3   OH255501   3.172   0.618  14.753  0.3422 -0.6474 -0.5518
11337TIP3    H155502   3.162   0.680  14.825 -1.4474 -2.5496  0.9742
11337TIP3    H255503   3.083   0.606  14.719  0.6168 -2.3967 -0.7577
11338TIP3   OH255504   5.471   4.409  10.781 -0.2544  0.2757 -0.5820
11338TIP3    H155505   5.382   4.408  10.815  0.2826  0.7019  0.9322
11338TIP3    H255506   5.497   4.317  10.778 -1.5289 -0.0846 -3.3597
11339TIP3   OH255507   6.167   3.796   4.959 -0.6637  0.3331 -0.2204
11339TIP3    H155508   6.238   3.732   4.964 -1.3836 -0.5194 -0.7981
11339TIP3    H255509   6.113   3.767   4.886 -1.7122  0.8853  0.3205
11340TIP3   OH255510   5.995   6.723  16.906 -0.3032 -1.0804  0.9280
11340TIP3    H155511   6.087   6.748  16.899 -1.0619  1.7752  0.1557
11340TIP3    H255512   5.969   6.701  16.817 -0.7905 -0.2079  0.8507
11341TIP3   OH255513   1.467   2.583   0.589  0.1561  0.1829  0.0212
11341TIP3    H155514   1.441   2.571   0.680  0.6493 -1.7331 -0.0351
11341TIP3    H255515   1.385   2.603   0.543 -0.5029 -1.2024  0.5415
11342TIP3   OH255516   6.092   4.630   0.399  0.0874 -0.0190  0.2694
11342TIP3    H155517   6.011   4.580   0.410  0.1978  0.1266  1.8993
11342TIP3    H255518   6.063   4.720   0.386 -0.0216 -0.1120 -0.1868
11343TIP3   OH255519   0.801   1.318   0.486 -0.4524 -0.3965 -0.6921
11343TIP3    H155520   0.727   1.263   0.511 -0.1425 -1.0041 -1.0827
11343TIP3    H255521   0.785   1.402   0.530 -1.3653 -0.5210 -0.7697
11344TIP3   OH255522   2.519   6.044   1.094  0.5520 -0.1697  0.0789
11344TIP3    H155523   2.544   6.019   1.005 -1.6676  0.2308 -0.7217
11344TIP3    H255524   2.483   5.963   1.132 -2.7971  0.6051 -1.0864
11345TIP3   OH255525   6.035   6.785   4.542  0.3156  0.0486  0.5423
11345TIP3    H155526   6.064   6.709   4.593 -0.5192 -0.0964  0.8202
11345TIP3    H255527   6.116   6.833   4.522  0.7984 -0.6381  0.8022
11346TIP3   OH255528   6.537   3.379   1.299 -0.1849 -0.0612  0.4562
11346TIP3    H155529   6.488   3.461   1.305 -0.0155 -0.0337  1.6711
11346TIP3    H255530   6.580   3.383   1.214 -0.6588  0.8307  0.2418
11347TIP3   OH255531   3.131   3.866  11.841 -0.0035  0.7082  0.8388
11347TIP3    H155532   3.115   3.884  11.748 -0.2912  1.6131  1.0502
11347TIP3    H255533   3.061   3.913  11.886  0.3835  0.6193  1.5358
11348TIP3   OH255534   3.148   6.107  12.230 -0.1292  0.0669 -0.7008
11348TIP3    H155535   3.096   6.102  12.310 -0.0163  0.5018 -0.5976
11348TIP3    H255536   3.148   6.201  12.207  1.5643  0.2426 -0.0774
11349TIP3   OH255537   4.753   5.187   4.589 -0.5227 -0.1772 -0.2470
11349TIP3    H155538   4.662   5.165   4.607 -0.6387  0.1251 -0.4429
11349TIP3    H255539   4.751   5.228   4.502  0.0878 -2.1314 -1.2353
11350TIP3   OH255540   5.811   1.395  16.396  0.2174 -0.0408 -0.2062
11350TIP3    H155541   5.744   1.427  16.335  1.1581  1.6797 -0.4104
11350TIP3    H255542   5.809   1.300  16.385 -0.7133  0.1107 -1.7772
11351TIP3   OH255543   0.519   3.253   0.931  0.5778  0.3958  0.4747
11351TIP3    H155544   0.511   3.339   0.890 -2.7455 -0.2197 -0.3995
11351TIP3    H255545   0.610   3.250   0.962  1.0840  3.7966 -0.3061
11352TIP3   OH255546   1.619   1.630   2.248  0.5865  0.5933 -0.3870
11352TIP3    H155547   1.537   1.668   2.278 -0.2266 -0.9779 -0.5178
11352TIP3    H255548   1.656   1.695   2.189 -0.4582  1.3985 -0.1770
11353TIP3   OH255549   4.497   2.685  15.940  0.4368 -0.1855 -0.1896
11353TIP3    H155550   4.458   2.772  15.938  0.3370 -0.1851  1.0570
11353TIP3    H255551   4.552   2.682  15.862  1.3572  1.4321  0.3420
11354TIP3   OH255552   4.924   4.941  11.762 -0.0994 -0.5644 -0.0052
11354TIP3    H155553   4.867   5.018  11.763  1.2792  0.4950  1.1953
11354TIP3    H255554   4.865   4.868  11.779 -1.1802  0.4424  0.7834
11355TIP3   OH255555   2.008   0.580  15.617 -0.1709 -0.0866  0.8493
11355TIP3    H155556   2.036   0.494  15.650 -0.5340 -0.3845  0.4061
11355TIP3    H255557   2.089   0.621  15.586 -0.3444 -1.6959 -2.1626
11356TIP3   OH255558   0.163   3.836   5.952  0.2914  0.5475 -0.9651
11356TIP3    H155559   0.247   3.812   5.914  0.6217  0.0515  0.0278
11356TIP3    H255560   0.184   3.866   6.041 -0.6783 -0.8287 -0.2187
11357TIP3   OH255561   4.356   5.043   5.412 -0.5936 -0.0257  0.5951
11357TIP3    H155562   4.448   5.058   5.388 -0.9041  1.2955  0.1451
11357TIP3    H255563   4.316   5.010   5.332 -0.6251 -0.0958  0.6400
11358TIP3   OH255564   1.369   4.413   5.696  0.1057  0.1739  0.3465
11358TIP3    H155565   1.410   4.337   5.655 -0.1149 -0.4531  1.2651
11358TIP3    H255566   1.292   4.377   5.741  0.0638  0.9266  0.8896
11359TIP3   OH255567   0.408   0.867  11.167 -1.5957 -0.1752 -0.4481
11359TIP3    H155568   0.466   0.925  11.117 -0.1932 -1.0021  0.1609
11359TIP3    H255569   0.402   0.788  11.114 -0.4349 -0.8988  0.4622
11360TIP3   OH255570   2.535   2.470  12.375 -0.5607  0.1250  0.4914
11360TIP3    H155571   2.599   2.527  12.334 -0.7915  0.2397  0.2891
11360TIP3    H255572   2.540   2.388  12.325  0.7316 -0.5284  1.6162
11361TIP3   OH255573   1.391   0.914  13.309  0.6620 -0.1668  0.3021
11361TIP3    H155574   1.359   0.998  13.277 -1.2717 -0.1339  2.1450
11361TIP3    H255575   1.483   0.912  13.283  0.9581  2.8288  0.8172
11362TIP3   OH255576   3.732   5.389   5.953  0.4707 -0.4041  0.6202
11362TIP3    H155577   3.655   5.433   5.916  0.1112 -0.3878  1.3815
11362TIP3    H255578   3.806   5.444   5.927  0.4544 -1.3254 -1.6265
11363TIP3   OH255579   0.191   5.904  12.860 -0.0731 -0.2346 -0.0029
11363TIP3    H155580   0.194   5.814  12.892 -0.0340 -0.5475 -0.8542
11363TIP3    H255581   0.281   5.935  12.869 -0.4010  0.2904  1.8180
11364TIP3   OH255582   5.061   0.207  11.223 -0.0430  0.0527  0.3924
11364TIP3    H155583   4.999   0.138  11.201 -0.9337  1.0022 -0.2111
11364TIP3    H255584   5.108   0.224  11.141  0.1380  0.1998  0.5237
11365TIP3   OH255585   2.807   0.375  12.588  0.0896 -0.0908 -0.0212
11365TIP3    H155586   2.775   0.372  12.498 -1.7270  0.4403  0.5560
11365TIP3    H255587   2.832   0.467  12.601 -1.1705  0.2024  0.4725
11366TIP3   OH255588   4.254   4.986  16.071  0.2113  0.4892  0.2119
11366TIP3    H155589   4.210   5.045  16.010  3.2280  2.1500 -0.5823
11366TIP3    H255590   4.296   4.921  16.014 -1.2062 -1.1480  0.9498
11367TIP3   OH255591   4.904   6.529  15.956  0.5458 -0.1790 -0.0178
11367TIP3    H155592   4.956   6.459  15.916  1.6738  1.5271 -1.7110
11367TIP3    H255593   4.901   6.597  15.889 -1.8146  0.7963  0.9954
11368TIP3   OH255594   0.793   2.745  13.490  0.0695  0.4823  0.1311
11368TIP3    H155595   0.773   2.703  13.406  0.3628  0.1453  0.2293
11368TIP3    H255596   0.828   2.674  13.545  2.3048  1.1927 -0.2793
11369TIP3   OH255597   4.075   3.461  15.252  0.3050 -0.1927  0.4201
11369TIP3    H155598   4.032   3.398  15.193  0.3158  0.1626  0.0276
11369TIP3    H255599   4.147   3.497  15.200  1.2929 -1.0175  1.1856
11370TIP3   OH255600   1.439   4.772  16.273 -0.4057  0.3676  0.1729
11370TIP3    H155601   1.466   4.861  16.251 -0.1566  0.3520  0.4171
11370TIP3    H255602   1.404   4.737  16.191  1.8173 -0.1862 -0.5932
11371TIP3   OH255603   5.862   5.726   0.445  0.0626 -1.0012 -0.5001
11371TIP3    H155604   5.799   5.790   0.479 -2.1962 -2.0926 -2.3213
11371TIP3    H255605   5.884   5.672   0.521 -0.1171  0.2695  0.4850
11372TIP3   OH255606   5.790   6.121   6.327 -0.3970 -0.4004 -0.8261
11372TIP3    H155607   5.882   6.094   6.316 -0.1104  0.9423 -2.0476
11372TIP3    H255608   5.791   6.178   6.403 -0.0455  0.2760 -1.3263
11373TIP3   OH255609   5.236   2.778   6.546  0.0445  0.2991 -0.0539
11373TIP3    H155610   5.226   2.753   6.454 -0.3188 -0.2604  0.1349
11373TIP3    H255611   5.330   2.783   6.559  0.1158 -0.3368 -0.2718
11374TIP3   OH255612   0.302   2.686   0.437 -0.0826 -0.0331 -0.2976
11374TIP3    H155613   0.234   2.663   0.374 -1.7650 -0.3255  1.5154
11374TIP3    H255614   0.347   2.603   0.454  1.3499  0.3120 -2.1110
11375TIP3   OH255615   2.439   4.206  16.320  0.1495  0.0436 -0.4731
11375TIP3    H155616   2.518   4.153  16.309  1.2624  1.5921 -0.2077
11375TIP3    H255617   2.439   4.230  16.413  0.0109  1.0159 -0.7164
11376TIP3   OH255618   0.743   1.010   2.319  0.3706 -0.2879 -0.0288
11376TIP3    H155619   0.661   0.980   2.280  0.8534  0.3982 -1.6327
11376TIP3    H255620   0.729   0.999   2.413 -0.2301 -3.5695 -0.3622
11377TIP3   OH255621   0.634   0.050   0.663 -0.0037 -0.3633  0.0022
11377TIP3    H155622   0.584   0.080   0.587 -0.8097  0.3290  0.7738
11377TIP3    H255623   0.696  -0.013   0.628 -1.2476 -1.0565 -1.0343
11378TIP3   OH255624   6.820   3.466   4.541  0.1299  0.3312  0.7526
11378TIP3    H155625   6.899   3.508   4.507  0.2934 -0.9765 -0.5631
11378TIP3    H255626   6.794   3.521   4.615  2.3936  0.6591  1.3875
11379TIP3   OH255627   6.128   1.768  12.316  0.6869 -0.1672  0.1257
11379TIP3    H155628   6.116   1.789  12.223  2.0407 -1.5001 -0.4068
11379TIP3    H255629   6.044   1.790  12.357 -0.2609 -0.3821 -1.5890
11380TIP3   OH255630   5.856   1.901  14.468 -0.6590 -0.5434 -0.3563
11380TIP3    H155631   5.811   1.978  14.502  1.7684  1.5852 -1.5918
11380TIP3    H255632   5.948   1.924  14.471  0.2995 -3.9507  0.3321
11381TIP3   OH255633   5.347   6.338   2.801 -0.1337 -0.3028  0.2065
11381TIP3    H155634   5.359   6.383   2.885 -0.3126 -1.1748  0.7040
11381TIP3    H255635   5.261   6.366   2.771  0.1760  0.4823  0.0073
11382TIP3   OH255636   6.288   1.458  14.751 -0.0550  0.2576  0.2744
11382TIP3    H155637   6.247   1.394  14.808 -0.2422 -0.1108 -0.2615
11382TIP3    H255638   6.346   1.508  14.808 -0.3710  0.0155  0.8151
11383TIP3   OH255639   5.880   1.978  17.037 -0.7323 -0.1043  0.2312
11383TIP3    H155640   5.965   2.021  17.047 -1.4107  1.1581  0.8221
11383TIP3    H255641   5.889   1.923  16.959 -0.2888  2.2780 -1.4938
11384TIP3   OH255642   0.529   2.331   2.731 -0.3572 -0.5972  0.5264
11384TIP3    H155643   0.594   2.367   2.792 -1.1334  0.8112  0.5615
11384TIP3    H255644   0.580   2.302   2.655  0.3621  0.0706  0.7446
11385TIP3   OH255645   2.461   2.531  15.613 -0.0895 -0.1520  0.1318
11385TIP3    H155646   2.417   2.601  15.564  0.4201  0.7523  0.9506
11385TIP3    H255647   2.499   2.574  15.689  1.4271 -1.0777 -0.0633
11386TIP3   OH255648   0.577   0.670   0.261 -0.0146 -0.2188 -0.5252
11386TIP3    H155649   0.534   0.728   0.324 -0.5980  0.6223 -1.6440
11386TIP3    H255650   0.523   0.591   0.259 -0.5716  0.1610 -0.6967
11387TIP3   OH255651   2.783   3.495   4.616 -0.2119  0.0304 -0.4184
11387TIP3    H155652   2.782   3.541   4.532  0.6683 -0.9966 -1.0213
11387TIP3    H255653   2.817   3.408   4.595  1.3771  0.1858  1.2066
11388TIP3   OH255654   6.452   6.066  16.471 -0.3046  0.1455 -0.2395
11388TIP3    H155655   6.512   6.100  16.405 -0.2856 -0.2156 -0.4142
11388TIP3    H255656   6.384   6.021  16.421 -0.4510  0.1264 -0.0235
11389TIP3   OH255657   5.304   1.127  12.308  0.0279  0.0575 -0.8635
11389TIP3    H155658   5.242   1.107  12.237  1.1084  1.0661 -2.1440
11389TIP3    H255659   5.389   1.103  12.273  0.5871  0.5270  0.1310
11390TIP3   OH255660   2.330   0.261  13.644 -0.0509 -0.4493 -0.0288
11390TIP3    H155661   2.357   0.216  13.724 -0.5531  0.1000  0.4635
11390TIP3    H255662   2.364   0.350  13.654  0.1417 -0.4589 -0.5689
11391TIP3   OH255663   2.770   2.954  14.716  0.1873 -0.3113 -0.2568
11391TIP3    H155664   2.692   2.969  14.662  0.5336 -1.2436 -1.0657
11391TIP3    H255665   2.800   3.041  14.740 -0.4609  0.1029 -0.8894
11392TIP3   OH255666   3.888   3.360   1.730  0.3138  0.2728  0.0794
11392TIP3    H155667   3.830   3.387   1.659 -0.6813  0.8470  1.0695
11392TIP3    H255668   3.858   3.272   1.754 -0.7707  0.8953  1.1546
11393TIP3   OH255669   3.581   5.788  13.421  0.2674 -0.0470  0.2174
11393TIP3    H155670   3.663   5.812  13.464 -0.2650  1.5196  0.4010
11393TIP3    H255671   3.519   5.857  13.445 -0.5658 -0.1186 -1.5218
11394TIP3   OH255672   0.208   1.789  14.493  0.3518 -0.4714  0.0086
11394TIP3    H155673   0.284   1.833  14.455 -0.0333  2.1183  1.9763
11394TIP3    H255674   0.245   1.733  14.562  0.5197  1.7520  1.8398
11395TIP3   OH255675   3.729   1.773   1.488 -0.3622  0.4308  0.0357
11395TIP3    H155676   3.743   1.827   1.565 -0.3979  0.6512 -0.1098
11395TIP3    H255677   3.817   1.748   1.460 -0.1941  2.0323 -1.0312
11396TIP3   OH255678   1.427   6.525   1.448  0.6621 -0.1762 -0.5605
11396TIP3    H155679   1.437   6.442   1.494  0.5616  0.9933  1.7596
11396TIP3    H255680   1.388   6.503   1.364  0.5634 -2.4464  0.0365
11397TIP3   OH255681   1.913   3.236  12.909  0.5484  0.7063 -0.1722
11397TIP3    H155682   1.823   3.235  12.940  0.5821 -0.2427 -0.0992
11397TIP3    H255683   1.906   3.213  12.816  0.6593  1.3512 -0.3497
11398TIP3   OH255684   0.401   2.102  14.211  0.1653  0.1131 -0.0376
11398TIP3    H155685   0.339   2.162  14.251  0.5279 -0.8912  2.1749
11398TIP3    H255686   0.429   2.146  14.131 -0.1052  2.5514  1.1268
11399TIP3   OH255687   5.581   0.879  14.187  0.6151 -0.1885 -0.3696
11399TIP3    H155688   5.560   0.949  14.126 -0.0142 -0.9850 -1.0852
11399TIP3    H255689   5.651   0.829  14.144  1.6699  0.4651  0.5107
11400TIP3   OH255690   2.109   5.040  13.300 -0.2964 -0.2887  0.3095
11400TIP3    H155691   2.167   5.059  13.226 -2.2906  0.6583 -1.1065
11400TIP3    H255692   2.167   5.014  13.371  1.8800  1.2795 -0.8166
11401TIP3   OH255693   1.441   1.819  12.733 -0.1459 -0.3105 -0.7828
11401TIP3    H155694   1.481   1.777  12.809  1.9163  0.3973 -1.4253
11401TIP3    H255695   1.347   1.818  12.752  0.0115 -3.0960  0.2385
11402TIP3   OH255696   2.406   5.207  13.021  0.0953  0.1293  0.0007
11402TIP3    H155697   2.410   5.112  13.017  0.7501  0.1780 -0.6768
11402TIP3    H255698   2.475   5.237  12.962 -0.1275  1.0246  0.1738
11403TIP3   OH255699   6.545   3.592  14.481  0.1394 -0.0032  0.3038
11403TIP3    H155700   6.554   3.639  14.397 -3.0550  1.5130  0.6778
11403TIP3    H255701   6.504   3.509  14.458  0.3817 -0.1095  0.2512
11404TIP3   OH255702   1.521   1.120   1.571  0.2885  0.3879  0.1653
11404TIP3    H155703   1.503   1.161   1.486  2.1253  0.9201 -0.0125
11404TIP3    H255704   1.439   1.127   1.619  0.0138  2.6450 -0.5399
11405TIP3   OH255705   6.752   0.172   3.350 -0.3492  0.3788  0.0784
11405TIP3    H155706   6.786   0.240   3.407 -0.8934  2.3613 -1.8187
11405TIP3    H255707   6.813   0.168   3.277 -1.0381 -0.2465 -0.4889
11406TIP3   OH255708   4.233   1.042   0.660  0.2842 -0.5293 -0.3615
11406TIP3    H155709   4.144   1.078   0.657 -0.5504 -2.4095  0.2746
11406TIP3    H255710   4.262   1.042   0.569  0.1899  1.3181 -0.4408
11407TIP3   OH255711   1.446   1.899  11.764  0.4125 -0.5535  0.2819
11407TIP3    H155712   1.531   1.896  11.808 -0.2226 -1.0456  1.5423
11407TIP3    H255713   1.398   1.969  11.809  1.3819  2.4774 -2.9122
11408TIP3   OH255714   1.459   2.014  14.354 -0.2373 -0.2162  0.0993
11408TIP3    H155715   1.549   2.024  14.386 -0.2255 -0.0661  0.0230
11408TIP3    H255716   1.445   1.920  14.350 -0.6342 -0.2462  1.6471
11409TIP3   OH255717   1.152   2.123   1.295 -0.1190 -0.1431  0.4479
11409TIP3    H155718   1.061   2.102   1.313 -0.1827  0.5205  0.9328
11409TIP3    H255719   1.173   2.195   1.355  0.4193  0.4081 -0.3698
11410TIP3   OH255720   6.061   0.562  11.129 -0.1158 -0.0695  0.3630
11410TIP3    H155721   5.981   0.529  11.088 -0.9982  0.9300  1.1922
11410TIP3    H255722   6.099   0.621  11.065  0.6003 -1.4193 -0.4881
11411TIP3   OH255723   6.357   4.743  15.077 -0.3027 -0.1522 -0.1735
11411TIP3    H155724   6.365   4.653  15.109 -0.7443 -0.4400 -0.8676
11411TIP3    H255725   6.288   4.781  15.130 -3.1179 -1.4958 -2.6004
11412TIP3   OH255726   3.144   3.401   5.826 -0.1563  0.3947 -0.1136
11412TIP3    H155727   3.114   3.490   5.807  0.2777  0.8826  1.2924
11412TIP3    H255728   3.076   3.364   5.882  0.5763  0.5627  0.9129
11413TIP3   OH255729   3.832   3.500   3.298 -0.1951  0.9276  0.3543
11413TIP3    H155730   3.878   3.460   3.372  1.0877  1.4743 -0.1133
11413TIP3    H255731   3.844   3.439   3.226 -0.0322  1.1567  0.1838
11414TIP3   OH255732   3.441   3.286  12.594 -0.2615 -0.1949 -0.0091
11414TIP3    H155733   3.434   3.241  12.679  0.5879  1.2785  0.8971
11414TIP3    H255734   3.351   3.295  12.564 -0.5942 -0.5927  0.8366
11415TIP3   OH255735   3.628   0.059   0.905 -0.0740 -0.6671 -0.2991
11415TIP3    H155736   3.718   0.037   0.929 -0.4448 -0.5045  1.3365
11415TIP3    H255737   3.630   0.153   0.890 -0.0422 -0.5979  0.1235
11416TIP3   OH255738   1.545   3.076   0.920  0.1530  0.1212 -0.0200
11416TIP3    H155739   1.603   3.142   0.957 -0.5053  0.1419  1.0119
11416TIP3    H255740   1.583   2.993   0.948 -1.0623  0.1547  1.9081
11417TIP3   OH255741   4.071   5.891   4.747 -0.5605  0.2027 -0.3658
11417TIP3    H155742   4.094   5.808   4.706  0.1732  0.4791 -0.5259
11417TIP3    H255743   4.151   5.942   4.744 -1.2353  1.2676 -1.1058
11418TIP3   OH255744   1.913   2.126   0.775  0.5228 -0.1718 -0.1555
11418TIP3    H155745   1.954   2.207   0.806 -0.2472 -0.2849  1.2258
11418TIP3    H255746   1.855   2.153   0.704  1.4678  0.2492 -0.7897
11419TIP3   OH255747   3.365   2.193  16.545 -0.5102  0.0541 -0.1290
11419TIP3    H155748   3.377   2.278  16.502 -0.3416 -0.0433 -0.2748
11419TIP3    H255749   3.407   2.204  16.630 -1.1832  0.3701  0.1694
11420TIP3   OH255750   2.060   6.469  13.611  0.3288 -0.7719 -0.2025
11420TIP3    H155751   2.072   6.555  13.651 -0.6282 -1.6920  2.2792
11420TIP3    H255752   2.005   6.485  13.535  1.4516  0.9816 -0.6971
11421TIP3   OH255753   5.850   3.283  16.387  0.8108  0.1341 -0.0155
11421TIP3    H155754   5.844   3.291  16.292 -0.3664 -0.3616 -0.0033
11421TIP3    H255755   5.800   3.357  16.421  0.6871 -0.0481  0.2094
11422TIP3   OH255756   4.926   5.912   1.297 -0.4076  0.2419 -0.0320
11422TIP3    H155757   4.836   5.935   1.274 -0.0163 -0.3410 -2.4110
11422TIP3    H255758   4.919   5.825   1.337 -0.9484  0.4616  0.3671
11423TIP3   OH255759   1.467   4.038  11.273 -0.2658 -0.5500  0.8009
11423TIP3    H155760   1.463   4.067  11.181  1.6413 -0.4979  0.7034
11423TIP3    H255761   1.376   4.046  11.304 -0.8853 -0.2098 -0.9616
11424TIP3   OH255762   3.890   6.221   2.325  0.4389  0.2658 -0.4183
11424TIP3    H155763   3.889   6.238   2.419  2.8595 -1.0617 -0.0599
11424TIP3    H255764   3.798   6.225   2.299 -0.2332  1.3721  1.8407
11425TIP3   OH255765   1.191   4.559   5.162  0.1167 -0.4335  0.2331
11425TIP3    H155766   1.269   4.556   5.217 -0.1178 -0.7584  0.5535
11425TIP3    H255767   1.215   4.512   5.083  0.2611 -0.4938  0.3136
11426TIP3   OH255768   3.999   6.177   3.506 -0.2708 -0.0674  0.4563
11426TIP3    H155769   4.023   6.126   3.429 -1.1749  0.6330 -0.3178
11426TIP3    H255770   3.918   6.137   3.538  1.1583 -1.6548  2.3242
11427TIP3   OH255771   2.896   1.085  11.705  0.8167 -0.1193  0.9942
11427TIP3    H155772   2.811   1.127  11.715  0.6081 -0.1565 -0.4943
11427TIP3    H255773   2.959   1.156  11.718  0.4726  0.6344 -1.1406
11428TIP3   OH255774   3.692   1.906  17.114  0.4848  0.4217  0.1411
11428TIP3    H155775   3.604   1.906  17.150  0.3011  1.5282 -0.2511
11428TIP3    H255776   3.748   1.879  17.186 -0.1424  0.0293  0.4899
11429TIP3   OH255777   4.536   1.754  12.209  0.5246  0.1131 -0.1882
11429TIP3    H155778   4.597   1.715  12.147  2.1320 -0.1452  1.4684
11429TIP3    H255779   4.495   1.825  12.160  0.7975 -0.8595 -1.9088
11430TIP3   OH255780   1.968   3.392   0.984 -0.2408  0.1703 -0.0959
11430TIP3    H155781   2.059   3.395   1.015  0.3047  0.6365 -1.6333
11430TIP3    H255782   1.971   3.336   0.907 -1.1635  0.5744 -0.4411
11431TIP3   OH255783   5.918   1.841   1.988  0.2660  0.3471  0.0148
11431TIP3    H155784   5.832   1.881   2.005  0.5807  1.1723 -0.2984
11431TIP3    H255785   5.910   1.752   2.025 -0.3179  0.8177  1.0830
11432TIP3   OH255786   5.193   1.303   2.448  0.0524 -0.1553  0.4714
11432TIP3    H155787   5.272   1.348   2.420  0.1836 -0.7894 -0.2228
11432TIP3    H255788   5.122   1.348   2.402  0.4099 -2.2900 -2.4461
11433TIP3   OH255789   5.093   4.075  11.009  0.2052  0.0273 -0.2576
11433TIP3    H155790   5.158   4.038  10.950 -0.7868  0.3326 -1.5853
11433TIP3    H255791   5.056   4.150  10.962  0.7743  1.5478  1.5637
11434TIP3   OH255792   1.463   1.735   5.271 -0.1188 -0.2687 -0.3682
11434TIP3    H155793   1.520   1.803   5.234 -0.7951  0.1167 -0.7138
11434TIP3    H255794   1.377   1.752   5.232 -1.0201  0.5147  1.8143
11435TIP3   OH255795   4.752   2.533  11.622 -0.2836 -0.4361 -0.3006
11435TIP3    H155796   4.842   2.529  11.656  0.6661 -3.5475 -2.6937
11435TIP3    H255797   4.759   2.497  11.533 -3.9989 -1.2691 -0.3998
11436TIP3   OH255798   1.995   5.276  14.573  0.1207  0.4390  0.8254
11436TIP3    H155799   1.911   5.239  14.545  0.3774  0.0955  0.4927
11436TIP3    H255800   2.036   5.307  14.492  0.1473  0.9582  1.0349
11437TIP3   OH255801   4.025   4.066   2.870  0.2333 -0.3991  0.2437
11437TIP3    H155802   3.997   4.003   2.937 -0.6158  0.2986  0.5615
11437TIP3    H255803   3.947   4.080   2.817  0.6796 -0.3180 -0.3926
11438TIP3   OH255804   1.484   3.882   2.146 -0.2954 -0.3544  0.0100
11438TIP3    H155805   1.437   3.912   2.224 -2.6359 -2.8688 -0.2759
11438TIP3    H255806   1.416   3.863   2.082  1.1669 -2.7624 -0.9948
11439TIP3   OH255807   2.657   5.948  17.117 -0.2824  0.1338 -0.3204
11439TIP3    H155808   2.750   5.932  17.102 -0.2750  0.0527 -0.1917
11439TIP3    H255809   2.646   5.936  17.211 -0.4954 -0.2506 -0.3905
11440TIP3   OH255810   2.698   1.231   4.047  0.4476  0.1583  0.3382
11440TIP3    H155811   2.757   1.236   3.971 -0.8628  0.3675 -0.7052
11440TIP3    H255812   2.729   1.300   4.105  0.5559  1.0121 -0.6948
11441TIP3   OH255813   0.012   3.136   1.762 -0.3312  0.4375  0.6841
11441TIP3    H155814   0.017   3.041   1.748 -0.1169  0.4866  0.4187
11441TIP3    H255815  -0.011   3.146   1.854  1.6950  0.1578  1.2654
11442TIP3   OH255816   4.478   2.880   1.641  0.1231 -0.2609  0.8985
11442TIP3    H155817   4.432   2.854   1.561  0.2927 -2.5711  1.4665
11442TIP3    H255818   4.416   2.864   1.711  0.6367 -0.1500  1.3865
11443TIP3   OH255819   1.566   2.595   5.130 -0.5864 -0.8603 -0.2191
11443TIP3    H155820   1.645   2.546   5.155  0.1536  0.4616  0.1471
11443TIP3    H255821   1.496   2.557   5.183 -0.4200 -2.6759 -1.2106
11444TIP3   OH255822   1.718   4.732   4.137  0.2495 -0.1592 -0.1040
11444TIP3    H155823   1.707   4.771   4.223 -0.3853 -0.3033 -0.1133
11444TIP3    H255824   1.638   4.756   4.089  0.6970  0.1150 -0.7287
11445TIP3   OH255825   0.292   0.998  16.995  0.0832  0.3209 -0.1104
11445TIP3    H155826   0.278   1.014  16.902 -0.6157 -1.7934 -0.4338
11445TIP3    H255827   0.381   0.963  17.000 -0.0473 -0.0051 -0.0516
11446TIP3   OH255828   6.582   0.949  12.676  0.0756  0.0888  0.8108
11446TIP3    H155829   6.508   1.008  12.662  0.5769  0.7007  0.7370
11446TIP3    H255830   6.541   0.869  12.711 -0.4953  0.8972  2.0877
11447TIP3   OH255831   5.949   2.869  16.940  0.3165  0.2528  0.2995
11447TIP3    H155832   5.901   2.892  17.020 -0.0113  0.0620  0.1625
11447TIP3    H255833   6.019   2.934  16.935 -0.9176  1.5960 -0.3689
11448TIP3   OH255834   1.822   0.102   3.664 -0.4107  0.5640 -0.0926
11448TIP3    H155835   1.835   0.093   3.569 -0.7640 -3.2195  0.0567
11448TIP3    H255836   1.735   0.065   3.680 -0.6402  1.7460  1.6662
11449TIP3   OH255837   4.035   2.851  13.886  0.2965 -0.6829 -0.0558
11449TIP3    H155838   3.947   2.816  13.877  0.1491 -1.2427  2.5307
11449TIP3    H255839   4.073   2.801  13.959  3.0401 -0.9923 -1.5605
11450TIP3   OH255840   1.828   0.346  12.131 -0.2661 -0.2009  0.3764
11450TIP3    H155841   1.870   0.272  12.174 -0.8827 -0.3547  0.7371
11450TIP3    H255842   1.861   0.344  12.041  0.6468 -0.1819  0.7012
11451TIP3   OH255843   0.308   1.249  13.875 -0.5658 -0.5760  1.1692
11451TIP3    H155844   0.336   1.186  13.941  0.4634 -1.3753  0.0154
11451TIP3    H255845   0.387   1.298  13.853 -0.6709 -0.9213 -0.0854
11452TIP3   OH255846   0.989   4.803   2.486 -0.2702 -0.8487 -0.1316
11452TIP3    H155847   1.059   4.858   2.451 -0.4279 -0.3498  0.3240
11452TIP3    H255848   0.985   4.826   2.578 -0.8424 -1.0921 -0.0954
11453TIP3   OH255849   2.008   5.669   0.846 -0.3575 -0.2454  0.0197
11453TIP3    H155850   1.934   5.679   0.906  0.2701  0.4007  0.7186
11453TIP3    H255851   1.969   5.667   0.759 -1.2104 -0.2049  0.3908
11454TIP3   OH255852   0.615   0.314  11.383 -0.3445  0.3439 -0.5281
11454TIP3    H155853   0.665   0.335  11.462 -0.0205  2.2155 -1.1839
11454TIP3    H255854   0.581   0.398  11.353  0.8643 -0.0473 -3.2787
11455TIP3   OH255855   6.455   3.294  13.090  0.1036 -0.3373 -0.0348
11455TIP3    H155856   6.551   3.291  13.091  0.2084  0.5660 -2.3863
11455TIP3    H255857   6.430   3.221  13.033 -0.2621  2.3658 -3.6762
11456TIP3   OH255858   6.804   4.305  16.753  0.3377 -0.2558  0.1849
11456TIP3    H155859   6.799   4.356  16.672 -1.3279 -0.2215  0.2778
11456TIP3    H255860   6.729   4.334  16.805  0.1718 -1.7572  0.8531
11457TIP3   OH255861   2.363   0.412   2.237 -0.0390  0.2228  0.0038
11457TIP3    H155862   2.336   0.467   2.163 -0.7016  0.4501  0.4052
11457TIP3    H255863   2.308   0.334   2.230 -0.0964  0.2406  0.2516
11458TIP3   OH255864   2.218   2.220   1.983  0.3000 -0.3635 -0.0253
11458TIP3    H155865   2.285   2.160   2.017  1.3148 -0.7295 -2.4745
11458TIP3    H255866   2.161   2.165   1.929  0.2285  0.5648 -0.9314
11459TIP3   OH255867   3.453   6.323   1.807  0.0026 -0.0524  0.0785
11459TIP3    H155868   3.456   6.279   1.893 -0.3821 -0.0697  0.0841
11459TIP3    H255869   3.408   6.261   1.750  1.9474 -0.8902 -0.6420
11460TIP3   OH255870   5.842   4.956   1.367 -0.8157  0.2534 -0.4500
11460TIP3    H155871   5.821   4.881   1.312 -0.3793 -1.5748  1.7211
11460TIP3    H255872   5.935   4.945   1.388 -0.9817  0.8628  0.6690
11461TIP3   OH255873   3.551   0.328  12.119 -0.6755 -0.6114  0.2182
11461TIP3    H155874   3.592   0.414  12.113  3.9714 -2.5962 -0.5509
11461TIP3    H255875   3.553   0.307  12.213 -0.9849 -0.2552  0.3067
11462TIP3   OH255876   0.846   4.869   5.192 -0.0403  0.1642  0.8607
11462TIP3    H155877   0.872   4.777   5.200  0.9828  0.1586 -1.4540
11462TIP3    H255878   0.763   4.866   5.144  0.7021  0.4344 -0.4988
11463TIP3   OH255879   1.212   6.395   3.684  0.1845  0.2650  0.3553
11463TIP3    H155880   1.141   6.330   3.689  0.1873  0.2936  0.8812
11463TIP3    H255881   1.282   6.358   3.738  1.1208 -0.4161 -1.2655
11464TIP3   OH255882   1.372   1.742  14.390  0.1525  0.2045  0.8326
11464TIP3    H155883   1.375   1.648  14.410  1.3866  0.0093 -0.1722
11464TIP3    H255884   1.290   1.754  14.342  1.5279 -1.0342 -2.0423
11465TIP3   OH255885   2.867   3.960  17.297 -0.3210 -0.3524 -0.9545
11465TIP3    H155886   2.819   4.038  17.271 -1.2043  0.6110  2.8425
11465TIP3    H255887   2.931   3.991  17.361 -0.4839 -2.6131  0.4469
11466TIP3   OH255888   1.307   5.744  15.090 -0.2425  0.3686 -0.2524
11466TIP3    H155889   1.238   5.746  15.156  0.2108 -1.6661  0.3388
11466TIP3    H255890   1.366   5.816  15.115  1.3929 -1.9125  3.3309
11467TIP3   OH255891   0.918   4.047  11.322 -0.1901 -0.3428  0.1370
11467TIP3    H155892   0.863   4.120  11.296  1.2912  1.3546  1.5511
11467TIP3    H255893   0.889   3.974  11.267 -4.4497  0.1342  1.3946
11468TIP3   OH255894   0.829   0.597  14.334 -0.6733 -0.5127 -0.0921
11468TIP3    H155895   0.758   0.564  14.278  0.0288  1.5176 -2.3777
11468TIP3    H255896   0.790   0.669  14.382 -0.8738 -1.2841  0.9379
11469TIP3   OH255897   2.319   1.989  15.875  0.2900 -0.2221 -0.4642
11469TIP3    H155898   2.357   1.990  15.962  2.2324 -0.4311 -1.2579
11469TIP3    H255899   2.225   1.992  15.890  0.5847  0.1902  1.6111
11470TIP3   OH255900   3.464   4.898  15.389  0.6805 -0.4002 -0.0770
11470TIP3    H155901   3.388   4.942  15.351  1.9964  2.3660  0.2270
11470TIP3    H255902   3.444   4.888  15.481  0.5858  0.1089 -0.0418
11471TIP3   OH255903   2.530   0.642   3.312  0.7631  0.2529  0.3131
11471TIP3    H155904   2.492   0.729   3.328  0.9788  0.7115 -1.5195
11471TIP3    H255905   2.521   0.629   3.218  0.1459 -2.0099  0.6314
11472TIP3   OH255906   6.241   1.148   3.662 -0.1768 -0.9128 -0.5112
11472TIP3    H155907   6.270   1.166   3.573 -0.9494 -1.4253 -0.8672
11472TIP3    H255908   6.322   1.152   3.714  0.2443 -0.3865 -1.1873
11473TIP3   OH255909   0.781   1.747   3.303  0.4747 -0.3825  0.1130
11473TIP3    H155910   0.763   1.654   3.319 -0.5073 -0.4732 -1.3715
11473TIP3    H255911   0.716   1.773   3.238  0.6620  1.3886  0.5933
11474TIP3   OH255912   1.379   6.816  15.866 -0.2357 -0.5114 -0.8203
11474TIP3    H155913   1.409   6.802  15.955  0.1850  1.5218 -0.6104
11474TIP3    H255914   1.365   6.727  15.831  1.0622 -1.3719  0.7382
11475TIP3   OH255915   4.697   2.569   1.731  0.0586  0.1221  0.0155
11475TIP3    H155916   4.728   2.659   1.745  1.9490 -0.7359  1.8333
11475TIP3    H255917   4.667   2.569   1.640  2.7888  1.8857 -1.0386
11476TIP3   OH255918   1.697   4.749   3.288 -0.0161  0.3044  0.1461
11476TIP3    H155919   1.753   4.826   3.297  0.1959  0.2303 -0.5225
11476TIP3    H255920   1.681   4.721   3.379  0.4337  0.7528  0.3702
11477TIP3   OH255921   0.621   0.585   0.816  0.6981  0.1149  0.8298
11477TIP3    H155922   0.573   0.631   0.748  1.0466 -0.3736  0.2365
11477TIP3    H255923   0.590   0.495   0.810  0.6429  0.0966  1.4004
11478TIP3   OH255924   0.585   3.869   1.143  0.2731  0.7695  0.0288
11478TIP3    H155925   0.537   3.850   1.225 -0.3912  0.5118 -0.4070
11478TIP3    H255926   0.563   3.960   1.124 -1.2713  0.2417 -0.9384
11479TIP3   OH255927   5.926   5.119  16.853 -0.4403 -0.1368 -0.5407
11479TIP3    H155928   5.904   5.089  16.765 -0.2899 -0.3629 -0.5019
11479TIP3    H255929   5.879   5.059  16.911 -0.1298 -0.3109 -0.4627
11480TIP3   OH255930   5.994   3.524   1.506 -0.1073 -0.5742  0.9322
11480TIP3    H155931   6.018   3.580   1.580 -1.8536  0.4967  0.7539
11480TIP3    H255932   6.064   3.459   1.502  2.0228  1.5560  1.1558
11481TIP3   OH255933   5.588   0.686   1.773  0.5583  0.5700  0.1994
11481TIP3    H155934   5.681   0.675   1.754  0.5574  0.7497  0.0871
11481TIP3    H255935   5.549   0.712   1.689  0.3650  0.2436  0.1852
11482TIP3   OH255936   6.131   5.113   2.696 -0.7825 -0.5009 -0.1216
11482TIP3    H155937   6.200   5.179   2.685 -0.5523 -0.8082 -0.5950
11482TIP3    H255938   6.159   5.063   2.773 -1.8836  1.0459  1.3405
11483TIP3   OH255939   4.587   6.648  15.951 -0.3503 -0.4610  0.2763
11483TIP3    H155940   4.506   6.671  15.905 -0.0239 -1.4868 -0.8771
11483TIP3    H255941   4.601   6.556  15.929  1.7244 -0.0248 -0.5026
11484TIP3   OH255942   2.708   0.081   4.418 -0.3060 -0.2488 -0.0668
11484TIP3    H155943   2.667   0.159   4.457 -1.0098  0.9768 -2.9503
11484TIP3    H255944   2.662   0.007   4.458 -2.0484  0.9552  0.2826
11485TIP3   OH255945   2.815   5.257  11.754 -0.2836 -0.1670  0.2878
11485TIP3    H155946   2.882   5.305  11.705  0.0810 -0.3059  0.6455
11485TIP3    H255947   2.857   5.174  11.776  0.3747  0.7339  2.7500
11486TIP3   OH255948   2.564   6.525   1.069 -0.1436  0.2998  0.4362
11486TIP3    H155949   2.506   6.449   1.060  0.0099  0.0131  1.6887
11486TIP3    H255950   2.650   6.494   1.041 -0.3275  0.3712 -0.2261
11487TIP3   OH255951   0.923   3.104  10.353  0.4057 -0.0562 -0.0087
11487TIP3    H155952   0.997   3.130  10.407  0.0019 -0.4387  0.7487
11487TIP3    H255953   0.879   3.186  10.331 -0.1131  0.0268  1.2603
11488TIP3   OH255954   2.564   4.358   0.702  0.1904 -0.5179 -0.1763
11488TIP3    H155955   2.551   4.448   0.732 -0.5057 -0.6724  0.0057
11488TIP3    H255956   2.659   4.344   0.711  0.4382  0.4642 -1.0014
11489TIP3   OH255957   4.099   2.516  15.958  0.3616 -0.0081  0.4592
11489TIP3    H155958   4.021   2.461  15.951  0.7940 -0.6884  0.8636
11489TIP3    H255959   4.096   2.572  15.881 -0.4917 -0.0692  0.4362
11490TIP3   OH255960   5.803   2.230  14.947  0.2553 -0.2778  0.5169
11490TIP3    H155961   5.742   2.171  14.991 -0.5972 -0.3306 -0.6898
11490TIP3    H255962   5.890   2.200  14.975 -0.1949 -1.5864  0.5720
11491TIP3   OH255963   3.029   3.549   2.842 -0.2766 -0.0855  0.1274
11491TIP3    H155964   3.058   3.633   2.807 -2.7521 -0.5998 -3.8385
11491TIP3    H255965   3.088   3.485   2.803 -0.1783 -0.4060  0.7902
11492TIP3   OH255966   5.841   5.423  16.584  0.0862  0.0372 -0.1018
11492TIP3    H155967   5.923   5.389  16.621 -0.6542 -2.9669 -0.9106
11492TIP3    H255968   5.780   5.424  16.659  1.0540  3.5485  0.8117
11493TIP3   OH255969   1.848   0.217  15.079 -0.0073  0.1157 -0.0435
11493TIP3    H155970   1.763   0.188  15.114 -0.1531 -0.0820 -0.5461
11493TIP3    H255971   1.897   0.246  15.156 -0.3989 -0.1050  0.2966
11494TIP3   OH255972   0.700   2.374  13.521  0.2102 -0.0514  0.7105
11494TIP3    H155973   0.772   2.437  13.527  0.7239 -0.6830  1.3580
11494TIP3    H255974   0.736   2.301  13.471 -0.6454  0.4945 -0.7725
11495TIP3   OH255975   5.737   0.666  14.825 -0.4976 -0.8836 -0.1349
11495TIP3    H155976   5.723   0.601  14.893  0.9036  0.7447  1.8250
11495TIP3    H255977   5.815   0.635  14.778 -0.9278 -1.5481 -0.4206
11496TIP3   OH255978   1.587   2.142   2.681  0.4303 -0.4959  0.7261
11496TIP3    H155979   1.497   2.112   2.670  0.7476 -0.8651 -1.0938
11496TIP3    H255980   1.633   2.067   2.718  0.1603 -0.5551  0.9504
11497TIP3   OH255981   1.506   3.175  14.286 -0.1097 -0.7571 -0.8348
11497TIP3    H155982   1.461   3.107  14.335 -1.1478  0.7053  0.3248
11497TIP3    H255983   1.503   3.252  14.342 -0.1614  0.6277 -2.6443
11498TIP3   OH255984   1.210   4.365  10.766 -0.1842 -0.1377 -0.4831
11498TIP3    H155985   1.273   4.303  10.729  0.4634  1.2772 -1.8426
11498TIP3    H255986   1.260   4.414  10.831 -0.6562 -0.8655  0.4713
11499TIP3   OH255987   1.750   5.126   1.377 -0.0697  0.2152 -0.1141
11499TIP3    H155988   1.803   5.165   1.308 -0.3385 -0.2525 -0.5982
11499TIP3    H255989   1.662   5.162   1.363 -0.4121 -0.8437 -0.8179
11500TIP3   OH255990   2.928   2.489  17.284  0.0717  0.1687 -0.0337
11500TIP3    H155991   2.932   2.532  17.198  1.9028 -1.4675 -0.8380
11500TIP3    H255992   2.894   2.402  17.266 -2.6683  0.8167  1.4440
11501TIP3   OH255993   5.898   6.234   1.182 -0.5132 -0.2031 -0.0782
11501TIP3    H155994   5.870   6.288   1.256 -0.3094  0.6561 -0.6156
11501TIP3    H255995   5.931   6.296   1.118  1.5187 -1.0875  0.0305
11502TIP3   OH255996   0.865   2.981   2.488 -0.1272 -0.7558 -0.3208
11502TIP3    H155997   0.956   2.954   2.499 -0.0862 -1.8029 -2.5464
11502TIP3    H255998   0.863   3.019   2.400 -1.4032  1.3882  0.5691
11503TIP3   OH255999   2.301   2.680  14.252 -0.7690 -0.2874  0.2703
11503TIP3    H156000   2.218   2.687  14.205 -1.5347 -0.7895  1.5153
11503TIP3    H256001   2.325   2.770  14.273 -1.0475 -0.1484 -0.0009
11504TIP3   OH256002   3.568   6.545   5.321  0.1967 -0.0607  0.0384
11504TIP3    H156003   3.524   6.500   5.392  1.7949 -1.2181  0.3594
11504TIP3    H256004   3.661   6.539   5.343  0.6287  0.8693 -1.3983
11505TIP3   OH256005   4.083   5.484   0.004  0.0239 -0.6056 -0.4817
11505TIP3    H156006   4.070   5.449   0.092 -1.5352 -0.8909 -0.8096
11505TIP3    H256007   3.996   5.505  -0.028  0.7209  1.4950 -1.1807
11506TIP3   OH256008   1.237   0.658  15.617 -0.0488 -0.3858  0.1567
11506TIP3    H156009   1.315   0.689  15.664  1.6410 -2.1656 -1.2983
11506TIP3    H256010   1.188   0.610  15.683  0.5453 -0.0006  0.9030
11507TIP3   OH256011   1.649   3.162  10.880 -0.1260  0.1215 -0.3987
11507TIP3    H156012   1.593   3.198  10.949 -0.9259 -0.9927 -0.4290
11507TIP3    H256013   1.587   3.123  10.817  0.6222  0.4739 -1.3735
11508TIP3   OH256014   2.024   6.383  14.389  0.2600  0.0944 -0.1214
11508TIP3    H156015   2.078   6.418  14.460 -0.5682 -0.1469  0.6367
11508TIP3    H256016   1.937   6.420  14.403 -0.2849 -1.1205 -0.1415
11509TIP3   OH256017   1.271   4.065   4.863 -0.4202 -0.2529  0.3253
11509TIP3    H156018   1.241   4.094   4.950 -1.0845 -1.6189  0.5809
11509TIP3    H256019   1.359   4.030   4.879 -1.0074 -1.6296  0.7177
11510TIP3   OH256020   3.347   3.815   0.983  0.1987  0.0398  0.5541
11510TIP3    H156021   3.355   3.835   1.076  0.5135 -0.8693  0.7349
11510TIP3    H256022   3.278   3.874   0.952 -0.9079 -0.6031  1.6660
11511TIP3   OH256023   1.855   2.132  12.233 -0.3863 -0.0459 -0.1232
11511TIP3    H156024   1.918   2.203  12.227  1.1581 -1.4110 -0.7889
11511TIP3    H256025   1.853   2.108  12.325  1.4654 -1.1287 -0.3110
11512TIP3   OH256026   5.189   0.916   3.684 -0.2009  0.0979 -0.2763
11512TIP3    H156027   5.240   0.924   3.604 -1.2436 -0.4924 -1.0302
11512TIP3    H256028   5.110   0.967   3.667  0.1122  1.0157  0.8724
11513TIP3   OH256029   3.906   3.852   3.032 -0.0443 -0.2701 -0.2259
11513TIP3    H156030   3.932   3.760   3.027  0.7247 -0.0294 -1.0669
11513TIP3    H256031   3.848   3.857   3.107 -0.8775 -1.6288 -0.7506
11514TIP3   OH256032   5.559   1.631  14.649 -0.4466  0.2449  0.0564
11514TIP3    H156033   5.525   1.542  14.650 -1.8493  0.7594 -0.2714
11514TIP3    H256034   5.529   1.669  14.731  0.3456  0.3534  0.3022
11515TIP3   OH256035   1.700   1.619   4.875 -0.3264 -0.0049  0.1976
11515TIP3    H156036   1.605   1.605   4.884 -0.4812  1.4099  1.1443
11515TIP3    H256037   1.722   1.678   4.947  1.3988 -0.7685  0.3409
11516TIP3   OH256038   6.355   5.160   1.658 -0.0556 -0.1409  0.0265
11516TIP3    H156039   6.409   5.104   1.713 -0.7549  0.0076  0.8943
11516TIP3    H256040   6.265   5.140   1.685 -0.3702  0.4891 -0.5269
11517TIP3   OH256041   0.731   6.109   5.110  0.0846 -0.2320  0.1262
11517TIP3    H156042   0.783   6.036   5.075 -0.9580 -0.9973  0.1348
11517TIP3    H256043   0.739   6.178   5.043  1.7358 -0.0190  0.4916
11518TIP3   OH256044   0.771   3.139   3.917 -0.5836  0.1309  0.1058
11518TIP3    H156045   0.706   3.174   3.857  1.2222  1.5918 -1.1120
11518TIP3    H256046   0.828   3.085   3.861  0.2967  0.3613  0.7600
11519TIP3   OH256047   5.272   5.444  11.145  0.4402 -0.4930  0.2204
11519TIP3    H156048   5.224   5.375  11.099 -0.0189  1.2351 -2.0655
11519TIP3    H256049   5.352   5.401  11.176 -0.8829 -2.5641  0.9614
11520TIP3   OH256050   1.193   6.542  15.106 -0.5917 -0.9599  0.5511
11520TIP3    H156051   1.238   6.524  15.024 -2.6817 -1.1007 -0.6442
11520TIP3    H256052   1.131   6.470  15.116 -0.2821 -1.0290  2.3653
11521TIP3   OH256053   5.491   5.673  12.269 -0.2779  0.0082  0.5590
11521TIP3    H156054   5.429   5.681  12.341  0.5796 -2.7176  1.7341
11521TIP3    H256055   5.577   5.669  12.311  0.6400  2.2563 -0.9333
11522TIP3   OH256056   1.586   1.191   2.568 -0.2195  0.1594  0.2178
11522TIP3    H156057   1.673   1.161   2.595 -0.2355 -0.1609 -0.0907
11522TIP3    H256058   1.526   1.153   2.632 -0.2941 -0.8808 -0.4484
11523TIP3   OH256059   2.959   2.006  14.682 -0.5455  0.2911  0.0937
11523TIP3    H156060   3.047   1.973  14.665 -0.6055 -0.2682  0.8209
11523TIP3    H256061   2.972   2.082  14.739 -0.5849 -0.4074  1.0464
11524TIP3   OH256062   5.539   5.096  12.122  0.2536  0.0896  0.2104
11524TIP3    H156063   5.482   5.083  12.046  0.6649 -0.6298  0.0128
11524TIP3    H256064   5.603   5.161  12.093  0.5379 -0.3377 -0.1448
11525TIP3   OH256065   4.550   5.502   2.213  0.3282  0.2554  0.4164
11525TIP3    H156066   4.646   5.496   2.212  0.3518  0.4286  1.0587
11525TIP3    H256067   4.532   5.590   2.246 -0.0275 -0.8007  3.4016
11526TIP3   OH256068   3.933   4.517  17.232 -0.0731 -0.3299 -0.6041
11526TIP3    H156069   3.992   4.446  17.205  1.1816  0.5514 -0.2779
11526TIP3    H256070   3.906   4.558  17.150 -0.8339 -1.1741 -0.7983
11527TIP3   OH256071   3.551   3.979  12.538 -0.3983 -0.1564  0.0995
11527TIP3    H156072   3.500   4.053  12.571 -0.3949 -0.9993  2.1236
11527TIP3    H256073   3.610   3.956  12.610  0.6829 -1.1728 -1.0565
11528TIP3   OH256074   2.434   5.688  12.142  0.1783 -0.5364 -0.2167
11528TIP3    H156075   2.444   5.646  12.057  1.3745 -1.1630  0.2132
11528TIP3    H256076   2.484   5.770  12.134  0.9341 -0.9547  0.1071
11529TIP3   OH256077   2.674   2.660  15.304  0.4276 -0.3975 -0.4281
11529TIP3    H156078   2.738   2.655  15.376  2.0248 -1.0687 -1.8230
11529TIP3    H256079   2.702   2.593  15.242 -1.1153 -0.0778 -1.5272
11530TIP3   OH256080   0.256   1.462   5.241 -0.2592 -0.9663 -0.0481
11530TIP3    H156081   0.165   1.449   5.265 -0.7918  2.0877  0.0278
11530TIP3    H256082   0.292   1.517   5.311  1.6216 -1.9713 -0.1513
11531TIP3   OH256083   1.587   0.248  12.556 -0.5187 -0.0806  0.0495
11531TIP3    H156084   1.561   0.277  12.469  1.8055 -0.2773 -0.7729
11531TIP3    H256085   1.672   0.288  12.571 -0.2123 -1.2088  1.6334
11532TIP3   OH256086   2.561   3.004   3.966  0.0732  0.0186  0.4813
11532TIP3    H156087   2.635   2.952   3.935  0.6558  1.3251 -0.3998
11532TIP3    H256088   2.546   2.972   4.055  1.0059 -0.9930  0.3075
11533TIP3   OH256089   3.962   3.367   3.520  0.1352 -0.0768  0.5315
11533TIP3    H156090   3.922   3.406   3.598  0.0719 -0.0354  0.4782
11533TIP3    H256091   3.931   3.276   3.520  2.1963 -0.8955  2.0173
11534TIP3   OH256092   6.528   0.294  12.229  0.1098  0.2702 -0.0455
11534TIP3    H156093   6.538   0.386  12.252 -1.2230  0.1124  1.3087
11534TIP3    H256094   6.544   0.246  12.311  0.4878 -0.6991 -0.6585
11535TIP3   OH256095   6.735   6.281  17.285 -0.5117 -0.1269 -0.1315
11535TIP3    H156096   6.640   6.272  17.276 -0.5034 -0.8159  0.3973
11535TIP3    H256097   6.770   6.244  17.204 -0.7230  1.0028 -0.7490
11536TIP3   OH256098   2.281   2.158  15.672  0.2666 -0.4094  0.7588
11536TIP3    H156099   2.346   2.227  15.686 -2.9169  2.5220  2.7421
11536TIP3    H256100   2.292   2.099  15.746  1.3936 -0.6666  0.4136
11537TIP3   OH256101   4.728   5.674  12.270  0.3580  0.0515 -0.2192
11537TIP3    H156102   4.689   5.641  12.351  2.4539  0.1894  0.8935
11537TIP3    H256103   4.766   5.596  12.229  1.4800  0.3606  0.2081
11538TIP3   OH256104   5.911   2.480  12.190  0.2450  0.6999  0.4101
11538TIP3    H156105   5.861   2.411  12.235 -0.9533  0.4043 -1.3055
11538TIP3    H256106   5.887   2.560  12.236 -0.3446  0.3041  0.8100
11539TIP3   OH256107   4.177   1.438   4.099  0.6326  0.2620 -0.6330
11539TIP3    H156108   4.207   1.348   4.085 -0.0412  0.1795 -1.7518
11539TIP3    H256109   4.195   1.456   4.191  0.5840 -1.0944 -0.3347
11540TIP3   OH256110   4.831   5.107   2.412 -0.3730 -0.6763 -0.5524
11540TIP3    H156111   4.878   5.114   2.495 -0.9582  2.5700 -0.3738
11540TIP3    H256112   4.877   5.166   2.353 -1.3476 -1.1639 -1.8558
11541TIP3   OH256113   5.287   2.583   2.693  0.1149 -0.4803  0.7101
11541TIP3    H156114   5.351   2.630   2.746  0.5848  2.0328 -1.8649
11541TIP3    H256115   5.234   2.651   2.652  0.1564 -2.1585 -2.4624
11542TIP3   OH256116   2.436   4.992  12.702  0.4457  0.0848  0.0629
11542TIP3    H156117   2.398   4.963  12.785  0.6671  0.3144  0.2451
11542TIP3    H256118   2.413   4.923  12.640  2.2741 -1.2860  0.8096
11543TIP3   OH256119   2.855   1.892  13.302 -0.7892  0.1992  0.4458
11543TIP3    H156120   2.940   1.880  13.344 -1.0307 -0.8229  0.6514
11543TIP3    H256121   2.799   1.825  13.341 -1.5094  0.4302 -0.1787
11544TIP3   OH256122   4.668   4.131   3.780  0.3306 -0.0730  0.3008
11544TIP3    H156123   4.641   4.167   3.696  0.8273 -1.2326 -0.3739
11544TIP3    H256124   4.667   4.206   3.840 -0.2131  0.7251 -0.6841
11545TIP3   OH256125   1.999   5.559   1.209  0.0049 -0.0583  0.2394
11545TIP3    H156126   1.994   5.520   1.123  2.1572 -2.3494  1.0354
11545TIP3    H256127   1.972   5.490   1.270 -0.7359  1.2483  1.4771
11546TIP3   OH256128   5.865   3.474   1.260 -0.1404  0.0028 -0.4385
11546TIP3    H156129   5.917   3.397   1.235 -0.9014 -0.3293 -1.0469
11546TIP3    H256130   5.912   3.512   1.333 -0.1322 -1.4694  0.3577
11547TIP3   OH256131   3.506   6.238   3.391 -0.1818 -0.1377 -0.3593
11547TIP3    H156132   3.507   6.321   3.439  0.9571 -0.2635 -0.1229
11547TIP3    H256133   3.483   6.262   3.302  0.6661  0.5315 -0.4182
11548TIP3   OH256134   1.759   6.738   5.265 -0.1402 -0.0478 -0.4873
11548TIP3    H156135   1.694   6.776   5.324  2.2908  0.6963  1.9164
11548TIP3    H256136   1.753   6.644   5.279  1.6564  0.1489  2.6505
11549TIP3   OH256137   2.231   0.181   2.175  0.4303  0.1965 -0.0284
11549TIP3    H156138   2.273   0.140   2.099  0.4540  0.2068 -0.0212
11549TIP3    H256139   2.219   0.110   2.237  0.3932  0.1845 -0.0498
11550TIP3   OH256140   4.806   0.901   2.972 -0.2450  0.2669  0.2448
11550TIP3    H156141   4.718   0.925   2.942 -0.5094 -0.3303  0.5293
11550TIP3    H256142   4.808   0.805   2.966  0.9215  0.3424 -1.2261
11551TIP3   OH256143   5.888   6.558  14.733 -0.4650  0.3380 -0.1337
11551TIP3    H156144   5.828   6.600  14.672 -1.7217  0.4530  1.1194
11551TIP3    H256145   5.952   6.626  14.755  0.3170  0.1365 -1.6734
11552TIP3   OH256146   0.665   4.490  13.901 -0.4480 -0.3659 -0.3103
11552TIP3    H156147   0.743   4.479  13.955 -0.3759  2.0160  0.1555
11552TIP3    H256148   0.696   4.478  13.811 -0.4347 -3.6327  0.0147
11553TIP3   OH256149   0.227   4.936   5.159 -0.0816 -0.3650  0.5272
11553TIP3    H156150   0.147   4.913   5.112 -0.2113 -0.1598  0.6396
11553TIP3    H256151   0.275   4.855   5.167  1.2159  0.0338 -2.2892
11554TIP3   OH256152   4.216   3.608  13.573 -0.1377 -0.4376 -0.0399
11554TIP3    H156153   4.302   3.598  13.614 -0.1772 -1.1847 -0.1392
11554TIP3    H256154   4.174   3.523  13.583 -0.1842 -0.6141 -1.5865
11555TIP3   OH256155   4.287   6.232  12.472  0.3818  0.2364 -0.2281
11555TIP3    H156156   4.234   6.167  12.426 -0.6402  1.3775 -0.7487
11555TIP3    H256157   4.237   6.314  12.463  0.7540  0.7631  1.8475
11556TIP3   OH256158   1.404   0.005   5.941  0.0760  0.5718 -0.6034
11556TIP3    H156159   1.491  -0.035   5.934  0.4263  1.1830  0.1628
11556TIP3    H256160   1.408   0.081   5.883 -0.8926 -0.9410 -2.8002
11557TIP3   OH256161   5.084   0.925   1.601  0.4842 -0.5454  0.8658
11557TIP3    H156162   5.012   0.954   1.656 -0.1381 -0.1016 -0.1531
11557TIP3    H256163   5.042   0.880   1.527  1.1362  0.8719 -0.4312
11558TIP3   OH256164   2.781   2.299  12.702  0.4489 -0.2282  0.1748
11558TIP3    H156165   2.798   2.393  12.708 -2.6892  0.4047  4.7286
11558TIP3    H256166   2.701   2.293  12.649  0.7995 -0.3839 -0.3397
11559TIP3   OH256167   1.423   0.762  12.822 -0.2928 -0.8104  0.5193
11559TIP3    H156168   1.516   0.781  12.828 -0.0871 -1.9796  1.4978
11559TIP3    H256169   1.402   0.718  12.904 -1.6353 -0.8702  0.1720
11560TIP3   OH256170   1.778   4.935  12.258 -0.0209 -0.4093  0.7732
11560TIP3    H156171   1.701   4.879  12.261  0.6159 -1.5984 -1.9619
11560TIP3    H256172   1.778   4.972  12.170 -0.6928  4.5546  2.5370
11561TIP3   OH256173   2.840   3.837   3.460  0.4347 -0.4270  0.0923
11561TIP3    H156174   2.751   3.811   3.439  0.3937 -0.9649  0.8928
11561TIP3    H256175   2.830   3.916   3.513  0.5145  0.5646 -1.3243
11562TIP3   OH256176   6.351   5.896   1.568 -0.3508 -0.2118 -0.4966
11562TIP3    H156177   6.328   5.833   1.636 -0.5101 -0.5393 -0.8514
11562TIP3    H256178   6.359   5.843   1.488  0.1969  0.1117 -0.6622
11563TIP3   OH256179   1.292   4.958   4.680 -0.0044  0.5561 -0.0364
11563TIP3    H156180   1.275   4.869   4.712 -1.5775  1.1398  0.8581
11563TIP3    H256181   1.375   4.983   4.722  1.2655 -0.9965 -1.4833
11564TIP3   OH256182   5.587   3.816   2.382  0.0082  0.8020  0.2791
11564TIP3    H156183   5.525   3.845   2.315  0.9968  0.9397 -0.6051
11564TIP3    H256184   5.533   3.776   2.449 -1.1903  2.3555  0.2994
11565TIP3   OH256185   6.468   5.307  12.904 -0.1603  0.2582  0.0023
11565TIP3    H156186   6.382   5.319  12.944 -0.8478  0.1064 -1.3698
11565TIP3    H256187   6.506   5.233  12.951 -0.1729  1.1841  1.5605
11566TIP3   OH256188   3.582   2.618  13.568  0.3360 -0.5764 -0.3226
11566TIP3    H156189   3.514   2.561  13.533 -0.8653  0.1306  0.7975
11566TIP3    H256190   3.625   2.566  13.635  0.7113 -0.9144 -0.8159
11567TIP3   OH256191   0.334   1.447   3.296 -0.1263  0.0863  0.6298
11567TIP3    H156192   0.355   1.379   3.232 -1.1982 -0.7411  1.1195
11567TIP3    H256193   0.280   1.509   3.247  0.6907  0.4970  0.2332
11568TIP3   OH256194   5.327   0.526   0.735  0.3749 -0.4211  0.3320
11568TIP3    H156195   5.325   0.431   0.724  1.3757 -0.6379  1.6640
11568TIP3    H256196   5.408   0.554   0.692 -0.4327  0.0019 -0.9774
11569TIP3   OH256197   4.876   4.492   5.070  0.2649 -0.3104 -0.2671
11569TIP3    H156198   4.795   4.530   5.035  1.5671  1.5090 -1.4786
11569TIP3    H256199   4.876   4.402   5.038 -0.8858 -0.0980 -0.9288
11570TIP3   OH256200   4.805   0.546   5.443 -0.1031  0.2662  0.0061
11570TIP3    H156201   4.804   0.465   5.494 -0.8561  0.9322  1.0720
11570TIP3    H256202   4.858   0.606   5.495 -1.9113  1.3514  0.6646
11571TIP3   OH256203   2.117   5.130  14.777  0.0060  0.1236 -0.0871
11571TIP3    H156204   2.195   5.185  14.774 -0.7302  1.2155  0.0528
11571TIP3    H256205   2.050   5.181  14.731 -0.3864 -1.2065 -1.0801
11572TIP3   OH256206   1.407   1.703  11.401 -0.3313 -0.0664  0.3580
11572TIP3    H156207   1.420   1.707  11.306 -0.2137 -0.6597  0.3432
11572TIP3    H256208   1.396   1.609  11.419 -2.1987  0.1844  0.6847
11573TIP3   OH256209   2.251   3.236   3.691 -0.3583  0.3336  0.0597
11573TIP3    H156210   2.188   3.179   3.735  2.2442 -0.7555  2.6658
11573TIP3    H256211   2.293   3.285   3.762  0.2183  2.7067 -1.7689
11574TIP3   OH256212   0.277   2.748   1.547  0.7981 -0.1966  1.0225
11574TIP3    H156213   0.243   2.668   1.507 -0.0701 -0.3057  1.9398
11574TIP3    H256214   0.244   2.819   1.493 -3.0507 -0.1053  3.1672
11575TIP3   OH256215   3.035   4.652   5.934  0.5455 -0.3377 -0.3079
11575TIP3    H156216   3.118   4.700   5.939  1.8042 -2.3755 -0.5248
11575TIP3    H256217   3.039   4.606   5.851 -1.7116  0.9970 -1.2341
11576TIP3   OH256218   0.863   2.794   6.276 -0.4825 -0.1183  0.2417
11576TIP3    H156219   0.806   2.725   6.243  1.6132 -1.0617 -1.7153
11576TIP3    H256220   0.951   2.756   6.273  0.4110  1.5052  2.4159
11577TIP3   OH256221   0.574   6.010  14.384  0.1902 -0.0097  0.2085
11577TIP3    H156222   0.657   5.996  14.338  0.4145 -0.0079  0.6070
11577TIP3    H256223   0.538   6.089  14.344 -0.7313 -1.2823 -1.5480
11578TIP3   OH256224   6.581   3.983  17.264  0.3185 -0.0467 -0.1581
11578TIP3    H156225   6.516   4.039  17.222  1.9404  0.7742 -1.7220
11578TIP3    H256226   6.531   3.910  17.301 -1.4410  0.4331 -1.4988
11579TIP3   OH256227   0.517   2.920  10.577  0.0550  0.0148  0.4182
11579TIP3    H156228   0.521   3.010  10.608 -0.1099  0.2392 -0.1906
11579TIP3    H256229   0.605   2.903  10.543 -0.0919  0.1702 -0.0538
11580TIP3   OH256230   3.237   0.817  13.400 -0.0855  0.2549  0.1140
11580TIP3    H156231   3.332   0.825  13.415 -0.0939  0.4335  0.0819
11580TIP3    H256232   3.201   0.895  13.442 -0.2039  0.2627 -0.0043
11581TIP3   OH256233   3.368   6.059   2.291  0.1000 -0.5314 -0.1357
11581TIP3    H156234   3.375   6.111   2.372  0.3287 -2.3188  1.0485
11581TIP3    H256235   3.459   6.045   2.265  0.0120  0.8566 -1.2924
11582TIP3   OH256236   3.058   1.655   1.995 -0.5968 -0.3558 -0.2450
11582TIP3    H156237   3.143   1.612   2.005 -0.4922  0.4034  3.2656
11582TIP3    H256238   2.994   1.587   2.014 -0.5479  0.0870  1.6969
11583TIP3   OH256239   2.601   2.793   0.379  0.2343  0.6498  0.5966
11583TIP3    H156240   2.582   2.721   0.320  0.7424  1.2204 -0.2826
11583TIP3    H256241   2.668   2.759   0.438  1.2557  0.7074 -0.4895
11584TIP3   OH256242   1.638   5.073  13.750  0.1243 -0.2768  0.8143
11584TIP3    H156243   1.632   5.087  13.845 -0.4420  0.9630  0.6186
11584TIP3    H256244   1.682   5.152  13.718  0.4426 -0.7561  0.0554
11585TIP3   OH256245   4.920   6.405  11.979 -0.0666 -0.3659  0.3992
11585TIP3    H156246   4.877   6.320  11.985 -2.1976  0.6873  0.8462
11585TIP3    H256247   4.933   6.431  12.071 -1.7324  0.8549  0.3268
11586TIP3   OH256248   0.371   5.205  14.835 -0.0471 -0.8634  0.2549
11586TIP3    H156249   0.383   5.114  14.862  1.8985 -0.5195  0.6554
11586TIP3    H256250   0.369   5.254  14.917  0.2463 -0.3986 -0.0134
11587TIP3   OH256251   6.137   1.467   4.553 -0.3580  0.0220 -0.1038
11587TIP3    H156252   6.048   1.493   4.576 -0.5640 -1.3336  0.7786
11587TIP3    H256253   6.172   1.427   4.633  0.6050 -0.5733 -0.7955
11588TIP3   OH256254   6.149   3.417  14.089  0.1274 -0.0044  0.5440
11588TIP3    H156255   6.156   3.344  14.150 -0.5670 -2.5296 -2.1498
11588TIP3    H256256   6.239   3.450  14.080  0.4335 -0.4282  1.9039
11589TIP3   OH256257   0.802   1.253   1.261  1.0041 -0.4590  0.0353
11589TIP3    H156258   0.836   1.171   1.224  2.1373 -0.5824  1.2611
11589TIP3    H256259   0.835   1.321   1.203  0.6375 -0.8085 -0.5985
11590TIP3   OH256260   5.002   0.237  15.963  0.0903 -0.1317  0.0446
11590TIP3    H156261   4.946   0.220  16.040  0.2270  0.2420  0.2303
11590TIP3    H256262   5.023   0.150  15.929 -0.2501 -0.2898  0.2305
11591TIP3   OH256263   2.768   6.509   3.317  0.3127  0.2922 -0.2818
11591TIP3    H156264   2.682   6.530   3.353  0.3890 -1.0789  0.7487
11591TIP3    H256265   2.827   6.572   3.359  0.4295 -1.3769  2.2436
11592TIP3   OH256266   5.373   2.303   2.746  0.1763 -0.5720  0.9748
11592TIP3    H156267   5.338   2.285   2.659  1.8674 -1.6957  0.4816
11592TIP3    H256268   5.351   2.395   2.762  1.3024  0.1884 -1.3871
11593TIP3   OH256269   2.407   3.245  15.187 -0.0707  0.5608  0.0600
11593TIP3    H156270   2.494   3.264  15.221 -0.3948  2.0367  0.1696
11593TIP3    H256271   2.414   3.159  15.148  1.3957  0.5918  0.1971
11594TIP3   OH256272   1.240   5.533   2.291  0.4454 -0.2865 -0.2434
11594TIP3    H156273   1.234   5.438   2.286  1.0584 -0.2671 -2.0450
11594TIP3    H256274   1.178   5.565   2.226 -1.6107  0.6882  2.0184
11595TIP3   OH256275   0.265   0.490  14.169  0.0054  0.2616 -1.0993
11595TIP3    H156276   0.225   0.574  14.190  2.6455  1.3250  0.1399
11595TIP3    H256277   0.309   0.463  14.250  4.1670  0.6974 -2.9249
11596TIP3   OH256278   5.389   0.579   6.439 -0.0089 -0.3851  0.9097
11596TIP3    H156279   5.351   0.581   6.352 -0.4079 -1.5544  1.0349
11596TIP3    H256280   5.428   0.491   6.447  0.0391 -0.2932  1.8879
11597TIP3   OH256281   5.850   6.760  13.121  0.2753 -0.4990  0.1698
11597TIP3    H156282   5.760   6.789  13.131  0.2615 -0.3626 -0.3088
11597TIP3    H256283   5.899   6.841  13.104  0.8380 -0.2765  2.5192
11598TIP3   OH256284   0.705   5.370  12.093  0.2895  0.1507  0.1061
11598TIP3    H156285   0.681   5.281  12.116 -0.5160  0.9238  2.6102
11598TIP3    H256286   0.635   5.400  12.036  0.4633 -0.7274 -0.5825
11599TIP3   OH256287   3.938   3.631  16.839  0.0955  0.0036 -0.4416
11599TIP3    H156288   3.957   3.705  16.781 -0.5155 -0.3290 -1.0797
11599TIP3    H256289   3.998   3.643  16.913  0.2526  0.9390 -0.7029
11600TIP3   OH256290   6.413   5.172   2.696 -0.2344  0.2783 -0.2830
11600TIP3    H156291   6.462   5.247   2.729 -2.2360  0.9670  1.3544
11600TIP3    H256292   6.396   5.118   2.774 -1.1925 -0.4385 -0.9652
11601TIP3   OH256293   3.282   4.049   3.089 -0.0617 -0.4066  0.1901
11601TIP3    H156294   3.204   4.019   3.137  1.3685 -0.7384  2.4776
11601TIP3    H256295   3.340   3.973   3.087  1.2266  0.5114  0.8513
11602TIP3   OH256296   2.210   2.018  14.687  0.1373  0.4232 -0.1412
11602TIP3    H156297   2.140   2.070  14.648 -1.1559  0.0388  1.5680
11602TIP3    H256298   2.178   1.928  14.684  1.4741 -0.0487 -1.1981
11603TIP3   OH256299   2.045   4.651  13.013  0.0688  0.3147 -0.4405
11603TIP3    H156300   1.998   4.643  12.930  0.0283  0.3864 -0.4244
11603TIP3    H256301   2.056   4.745  13.025  0.4428  0.2894 -0.5702
11604TIP3   OH256302   4.237   0.279   2.139 -0.5030 -0.3595 -0.2000
11604TIP3    H156303   4.155   0.245   2.174 -0.3580 -0.9926 -0.4483
11604TIP3    H256304   4.286   0.306   2.217 -1.5946  1.6004 -0.1485
11605TIP3   OH256305   5.052   1.330  14.865  0.4743 -0.1789 -0.0408
11605TIP3    H156306   5.114   1.346  14.794 -0.0105  1.5267 -0.1418
11605TIP3    H256307   5.006   1.414  14.876  0.2940 -0.4902  2.0579
11606TIP3   OH256308   5.137   0.400  12.367 -0.2197  0.3509  0.4828
11606TIP3    H156309   5.191   0.472  12.333 -1.8079  1.0765 -0.6470
11606TIP3    H256310   5.144   0.332  12.300 -1.1941  0.7074  0.0025
11607TIP3   OH256311   0.260   4.965  13.148  0.0493  0.2764 -0.5040
11607TIP3    H156312   0.335   5.001  13.195  0.5111 -1.1555 -0.0933
11607TIP3    H256313   0.188   5.025  13.167  1.4565  2.7550 -2.4215
11608TIP3   OH256314   6.544   6.689   1.263 -0.2180  0.2560 -0.3550
11608TIP3    H156315   6.523   6.782   1.269  0.7929  0.4040  2.3550
11608TIP3    H256316   6.461   6.644   1.282 -0.6796  0.5693 -1.5457
11609TIP3   OH256317   3.031   1.588  10.476 -0.2712  0.0698 -0.2516
11609TIP3    H156318   3.051   1.681  10.491  0.7477 -0.2443  0.5135
11609TIP3    H256319   2.951   1.588  10.425  0.1971  1.3976 -1.0314
11610TIP3   OH256320   6.299   2.622   3.894 -0.1814 -0.1658  0.1669
11610TIP3    H156321   6.377   2.591   3.848 -0.3782 -0.4436  0.0160
11610TIP3    H256322   6.235   2.552   3.882 -0.3071 -0.1394  0.6807
11611TIP3   OH256323   5.093   5.480  16.522  0.2435 -0.1911  0.1550
11611TIP3    H156324   5.006   5.446  16.503  0.1989 -0.1130  0.2174
11611TIP3    H256325   5.153   5.412  16.494  0.1568 -0.2917  0.2144
11612TIP3   OH256326   1.363   2.092  12.734 -0.1462  0.0529  0.2877
11612TIP3    H156327   1.419   2.015  12.738 -1.8698 -1.2720 -0.0757
11612TIP3    H256328   1.375   2.126  12.645 -1.0572 -1.1501 -0.3274
11613TIP3   OH256329   1.383   5.104  13.906  0.2187 -0.7254 -0.2449
11613TIP3    H156330   1.416   5.062  13.826 -0.5211 -2.5062  0.3271
11613TIP3    H256331   1.292   5.073  13.913 -0.5781  1.4597 -0.0542
11614TIP3   OH256332   0.929   1.225  16.077 -0.0142  0.0449 -0.3974
11614TIP3    H156333   1.023   1.218  16.058  0.3478  0.5777  1.0555
11614TIP3    H256334   0.909   1.318  16.067 -0.8520 -0.2978 -2.5144
11615TIP3   OH256335   4.196   6.800  15.531 -0.1820  0.1744  0.8385
11615TIP3    H156336   4.177   6.849  15.611 -2.3189  0.2338  0.3408
11615TIP3    H256337   4.151   6.849  15.462 -0.2982 -1.1307 -0.0473
11616TIP3   OH256338   2.930   6.809  13.876 -0.4058 -0.4926  0.2941
11616TIP3    H156339   3.007   6.833  13.824 -0.5408 -1.1439 -0.2069
11616TIP3    H256340   2.916   6.716  13.858  0.1757 -1.0267  2.2864
11617TIP3   OH256341   5.306   4.253  13.180  0.1091  0.1381 -0.0567
11617TIP3    H156342   5.285   4.331  13.231  0.8767 -0.5820  1.4486
11617TIP3    H256343   5.260   4.182  13.226 -0.8601 -0.2627 -1.5996
11618TIP3   OH256344   1.074   2.582   1.012  0.7663 -0.3179  0.4179
11618TIP3    H156345   1.129   2.545   1.081  1.2597  0.8573  0.6854
11618TIP3    H256346   1.017   2.644   1.057  0.8382  0.1926 -0.1699
11619TIP3   OH256347   1.733   4.385  14.916  0.1940 -0.8746  0.1232
11619TIP3    H156348   1.714   4.438  14.838  1.8414 -0.7699 -0.2408
11619TIP3    H256349   1.667   4.413  14.980  0.0671  0.4975 -0.5657
11620TIP3   OH256350   4.161   1.333  11.388 -0.2652 -0.7343  0.0136
11620TIP3    H156351   4.200   1.417  11.411  1.7174 -1.9296  1.2942
11620TIP3    H256352   4.110   1.308  11.464 -1.2855 -0.4870 -0.5684
11621TIP3   OH256353   6.118   2.294  13.314  0.3760  0.0662  0.2494
11621TIP3    H156354   6.169   2.287  13.394 -1.5114  0.3545  1.5336
11621TIP3    H256355   6.029   2.314  13.343 -1.0074 -2.5797 -1.7481
11622TIP3   OH256356   2.361   2.734  12.948 -0.2852 -0.1373  0.3960
11622TIP3    H156357   2.419   2.688  13.010 -1.3344 -0.5087  1.1224
11622TIP3    H256358   2.307   2.666  12.909  2.0481 -0.3058 -2.9455
11623TIP3   OH256359   2.520   3.745   4.495  0.1519 -0.1114  0.6594
11623TIP3    H156360   2.518   3.829   4.540  0.0315 -0.0745  0.5847
11623TIP3    H256361   2.613   3.726   4.486  0.1903  0.2503  0.2425
11624TIP3   OH256362   1.596   4.786  14.740  0.2779 -0.1034 -0.0432
11624TIP3    H156363   1.634   4.699  14.730 -0.0007 -0.1398 -0.8519
11624TIP3    H256364   1.584   4.817  14.651 -1.5115 -0.0520  0.1800
11625TIP3   OH256365   4.535   6.211  14.943  0.6249 -0.1690 -0.3514
11625TIP3    H156366   4.498   6.260  15.016 -0.0110 -3.1758  1.5435
11625TIP3    H256367   4.473   6.224  14.871 -1.1360 -0.5669  1.0239
11626TIP3   OH256368   0.261   0.787   2.782  0.3658  0.5810 -0.4402
11626TIP3    H156369   0.245   0.759   2.692  1.3218  0.6273 -0.6350
11626TIP3    H256370   0.323   0.722   2.816  1.4281  1.5713 -0.4137
11627TIP3   OH256371   1.412   4.918  12.953  0.1984  0.2569  0.0774
11627TIP3    H156372   1.369   4.914  13.038  3.8138 -1.6276  2.0549
11627TIP3    H256373   1.412   5.012  12.931  1.5581  1.2708  3.6444
11628TIP3   OH256374   3.387   1.194   0.833  0.3500 -0.8099 -0.3708
11628TIP3    H156375   3.323   1.187   0.904  0.6265 -1.6915 -0.1912
11628TIP3    H256376   3.396   1.288   0.817 -2.5505 -0.6877 -1.8434
11629TIP3   OH256377   6.221   0.440   3.141 -0.2800  0.3200  0.4978
11629TIP3    H156378   6.282   0.513   3.147  0.1543  0.0501 -0.4322
11629TIP3    H256379   6.251   0.390   3.066 -0.5936 -0.8027  1.0965
11630TIP3   OH256380   0.536   2.029   1.938  0.0089 -0.5207 -0.2322
11630TIP3    H156381   0.441   2.017   1.933 -0.0425 -1.2306  1.5520
11630TIP3    H256382   0.547   2.097   2.004  0.7383 -0.0021 -0.8769
11631TIP3   OH256383   5.493   4.645   6.055  0.5841 -0.3595  1.0600
11631TIP3    H156384   5.584   4.674   6.057  1.2148 -1.9445 -1.1195
11631TIP3    H256385   5.446   4.716   6.012  1.6339 -1.2452 -1.7770
11632TIP3   OH256386   0.577   1.745  17.023  0.9524  0.2224  0.8429
11632TIP3    H156387   0.609   1.685  17.091 -0.1464 -1.8441 -0.3560
11632TIP3    H256388   0.616   1.713  16.942 -0.5378  0.3882  0.0156
11633TIP3   OH256389   3.320   1.435   1.533  0.0297  0.3117  0.2699
11633TIP3    H156390   3.368   1.501   1.582  1.8165 -0.4443 -0.3729
11633TIP3    H256391   3.273   1.484   1.466 -0.7543  1.1422  1.3985
11634TIP3   OH256392   3.501   4.854  10.634  0.0865  0.4065 -0.2516
11634TIP3    H156393   3.500   4.946  10.661  1.0497  0.1463  0.7682
11634TIP3    H256394   3.486   4.856  10.540  0.6169  1.6556 -0.3269
11635TIP3   OH256395   0.333   1.937  15.111  0.4906 -0.1032  0.1317
11635TIP3    H156396   0.335   1.851  15.071  0.1866 -0.4123  0.7692
11635TIP3    H256397   0.259   1.934  15.172  0.9883  0.3241  0.7762
11636TIP3   OH256398   6.336   2.442   5.937 -0.0415 -0.3176  0.1968
11636TIP3    H156399   6.381   2.472   6.016  0.3613 -1.4598  0.4156
11636TIP3    H256400   6.359   2.507   5.871  1.0691 -0.2891  0.5837
11637TIP3   OH256401   2.713   0.110  15.587 -0.4365 -0.2037 -0.2566
11637TIP3    H156402   2.775   0.085  15.518 -1.2080  0.0215 -1.0594
11637TIP3    H256403   2.708   0.205  15.582 -1.4707 -0.2681 -0.7866
11638TIP3   OH256404   3.047   3.500   0.204 -0.6263 -0.3351 -0.8561
11638TIP3    H156405   3.048   3.409   0.174  0.0713 -0.6695  0.1138
11638TIP3    H256406   3.126   3.539   0.165  0.4367 -0.8471  0.6807
11639TIP3   OH256407   1.400   0.623  16.940 -0.2304  0.1716 -0.1830
11639TIP3    H156408   1.344   0.603  16.865  0.7833  1.0889 -1.2237
11639TIP3    H256409   1.352   0.589  17.016 -1.9289  0.4389 -1.0893
11640TIP3   OH256410   5.624   5.141   4.009 -0.0855  0.2046 -0.2347
11640TIP3    H156411   5.548   5.188   4.045  0.5101  1.6673 -0.8091
11640TIP3    H256412   5.636   5.179   3.922  0.4372 -1.0379 -0.7256
11641TIP3   OH256413   1.137   1.835   4.217  0.2702 -0.1041 -0.1582
11641TIP3    H156414   1.179   1.903   4.271  0.0247 -0.3213  0.3086
11641TIP3    H256415   1.203   1.815   4.150  0.0413  1.1649 -0.7985
11642TIP3   OH256416   1.355   3.195  14.604  0.0119  0.1279  0.1719
11642TIP3    H156417   1.263   3.217  14.619 -0.8359 -2.9003 -0.0568
11642TIP3    H256418   1.402   3.249  14.668 -1.5894  3.6187 -1.3091
11643TIP3   OH256419   5.320   4.098  16.770 -0.1233  0.5416 -0.0482
11643TIP3    H156420   5.377   4.101  16.693 -0.9067  0.7908 -0.6384
11643TIP3    H256421   5.244   4.151  16.745 -0.0986  1.1552  1.1414
11644TIP3   OH256422   2.298   1.706   3.686 -0.0972  0.0688  0.2495
11644TIP3    H156423   2.334   1.618   3.675 -1.0475 -0.5922  2.0104
11644TIP3    H256424   2.374   1.763   3.685  0.8933 -1.1051  2.0005
11645TIP3   OH256425   5.397   1.152  16.032 -0.4519  0.1652  0.1098
11645TIP3    H156426   5.493   1.159  16.035 -0.4469 -0.1210  2.7229
11645TIP3    H256427   5.368   1.234  15.993  0.8045  1.1503  1.1530
11646TIP3   OH256428   0.842   2.942  15.000  0.0453 -0.4854  0.0369
11646TIP3    H156429   0.860   3.015  14.941 -1.8629  0.1249  0.1531
11646TIP3    H256430   0.858   2.977  15.088  1.0451 -0.8339  0.0131
11647TIP3   OH256431   5.991   4.580   4.303 -0.0491  0.0394  0.2254
11647TIP3    H156432   5.901   4.558   4.324  0.0924 -0.0764  0.7228
11647TIP3    H256433   6.040   4.561   4.383 -0.1118  3.4785  1.2767
11648TIP3   OH256434   4.919   6.556   5.604 -0.4944  0.3911 -0.2039
11648TIP3    H156435   4.904   6.461   5.603 -1.1743  0.4846 -1.6441
11648TIP3    H256436   4.851   6.589   5.663  0.0183 -0.0307  0.6557
11649TIP3   OH256437   1.527   1.490  11.636  0.1771  0.0686  0.1326
11649TIP3    H156438   1.483   1.566  11.675  0.5909  1.9008 -2.6297
11649TIP3    H256439   1.455   1.438  11.599 -0.0139 -0.0682  0.6899
11650TIP3   OH256440   1.664   4.117   4.292  0.3399 -0.1487 -0.0493
11650TIP3    H156441   1.743   4.143   4.340  1.1075 -1.2820 -0.6613
11650TIP3    H256442   1.600   4.186   4.312  1.0006  0.0251  1.6495
11651TIP3   OH256443   6.276   4.663   0.946 -0.3733  0.1067 -0.6039
11651TIP3    H156444   6.199   4.636   0.896  1.1369  0.0433 -3.0796
11651TIP3    H256445   6.300   4.587   0.998  0.4183 -1.4073 -3.0419
11652TIP3   OH256446   5.581   0.380  12.697 -0.1858 -0.5663  0.1978
11652TIP3    H156447   5.629   0.317  12.750  0.8773  0.3568  0.3817
11652TIP3    H256448   5.546   0.443  12.761  2.2022  1.3027 -0.1485
11653TIP3   OH256449   1.372   2.411   1.820 -0.2385  0.0879 -0.3181
11653TIP3    H156450   1.292   2.453   1.851 -0.8778 -1.2992 -0.0245
11653TIP3    H256451   1.353   2.318   1.820  1.1627 -0.2400 -0.8924
11654TIP3   OH256452   6.251   3.635   0.628 -0.1451 -0.0982 -0.1664
11654TIP3    H156453   6.220   3.551   0.662 -0.8378  0.0487 -0.4229
11654TIP3    H256454   6.246   3.695   0.702  0.1448 -0.2295 -0.0395
11655TIP3   OH256455   1.967   3.978  14.388  0.3809 -0.3399 -0.6597
11655TIP3    H156456   2.007   4.053  14.342  0.5808  0.0615  0.1572
11655TIP3    H256457   2.028   3.958  14.458 -0.6659  0.0631  0.3965
11656TIP3   OH256458   5.661   1.033   3.394  0.3623 -0.6678  0.0284
11656TIP3    H156459   5.627   0.956   3.349  1.2324 -0.4540 -1.0168
11656TIP3    H256460   5.637   1.107   3.338 -1.6987  0.0505  1.6718
11657TIP3   OH256461   5.611   4.377   5.462 -0.1196  0.1090 -0.5144
11657TIP3    H156462   5.521   4.350   5.444  0.0434 -2.0000  1.4245
11657TIP3    H256463   5.609   4.410   5.552  0.9421  0.6149 -0.6577
11658TIP3   OH256464   4.703   4.819   5.106 -0.6717  0.1480  0.0317
11658TIP3    H156465   4.681   4.902   5.064  1.6655  0.3982 -0.8985
11658TIP3    H256466   4.673   4.752   5.044  0.1841  0.4373 -0.7240
11659TIP3   OH256467   4.237   2.698   2.690 -0.1584  0.3730  0.1789
11659TIP3    H156468   4.246   2.781   2.642  0.0525  0.8478  1.0151
11659TIP3    H256469   4.221   2.725   2.781 -2.2391 -0.4856  0.1247
11660TIP3   OH256470   1.745   1.706   4.106 -0.0232 -0.3464 -0.2367
11660TIP3    H156471   1.760   1.796   4.136 -0.8826  0.3103 -1.6700
11660TIP3    H256472   1.692   1.666   4.175 -1.3859  0.9112 -0.5130
11661TIP3   OH256473   3.210   0.352   2.471 -0.2256 -0.2928 -0.2786
11661TIP3    H156474   3.117   0.328   2.462 -0.3286  0.1122 -0.3207
11661TIP3    H256475   3.212   0.445   2.448  0.0972 -0.1514  0.3244
11662TIP3   OH256476   5.277   0.229  14.565 -0.4789  0.5120  0.1110
11662TIP3    H156477   5.269   0.183  14.481 -0.0624  0.7340 -0.0525
11662TIP3    H256478   5.187   0.240  14.594 -0.7479  2.0706 -1.2031
11663TIP3   OH256479   1.336   3.384   4.278  0.3231 -0.2380 -0.3664
11663TIP3    H156480   1.415   3.342   4.312  0.5247  1.7578  1.8673
11663TIP3    H256481   1.366   3.436   4.204  0.6365 -1.3625 -1.0538
11664TIP3   OH256482   2.236   1.397   6.335 -0.0528  0.2872 -0.4643
11664TIP3    H156483   2.192   1.465   6.386 -0.1521  0.4972 -0.8222
11664TIP3    H256484   2.310   1.369   6.389 -0.5526  0.0209  0.0860
11665TIP3   OH256485   3.218   3.275  12.074 -0.1026 -0.4905  0.4408
11665TIP3    H156486   3.148   3.303  12.015  0.8600  0.4405 -0.2995
11665TIP3    H256487   3.289   3.247  12.016  0.2092 -1.2650  1.1775
11666TIP3   OH256488   1.592   5.230  13.213 -0.0757  0.0704  0.7573
11666TIP3    H156489   1.590   5.262  13.123 -0.9175 -0.2461  0.6504
11666TIP3    H256490   1.647   5.152  13.210 -0.3058 -0.0822  0.4630
11667TIP3   OH256491   3.094   1.825  10.790 -0.0282  0.1182 -0.0838
11667TIP3    H156492   3.100   1.741  10.744 -3.6360  1.6660 -4.0012
11667TIP3    H256493   3.008   1.824  10.831 -0.4037  2.0739 -0.7350
11668TIP3   OH256494   3.580   1.704  14.140  0.1158 -0.5835 -0.0919
11668TIP3    H156495   3.559   1.788  14.100 -1.7177 -1.2509 -0.6314
11668TIP3    H256496   3.504   1.683  14.195  1.4284 -0.9532  1.6567
11669TIP3   OH256497   5.130   3.142   3.367  0.1676  0.6863 -0.1369
11669TIP3    H156498   5.123   3.094   3.450 -0.1911  1.3208  0.2148
11669TIP3    H256499   5.221   3.169   3.362  0.8205 -1.5193 -1.2120
11670TIP3   OH256500   4.675   4.398   0.393  0.1048 -0.5332 -0.1103
11670TIP3    H156501   4.746   4.396   0.457 -0.5109  0.9772  0.6544
11670TIP3    H256502   4.690   4.321   0.339  2.7096  0.0575 -0.3677
11671TIP3   OH256503   1.837   0.636  14.640 -0.6356  0.0341 -0.2360
11671TIP3    H156504   1.843   0.555  14.590 -2.6120 -2.6463  3.4068
11671TIP3    H256505   1.752   0.673  14.617  1.1172  2.5391 -3.5319
11672TIP3   OH256506   2.488   3.446  14.508  0.0714  0.2427 -0.0078
11672TIP3    H156507   2.396   3.442  14.535 -0.4881 -0.9927 -1.8577
11672TIP3    H256508   2.491   3.521  14.447  0.7890  1.5481  1.5598
11673TIP3   OH256509   6.180   2.872  17.255  0.1175  0.2695 -0.4894
11673TIP3    H156510   6.170   2.789  17.207  1.3124  0.5755 -1.3372
11673TIP3    H256511   6.169   2.939  17.188 -1.8061  0.8688  0.3674
11674TIP3   OH256512   2.679   3.284   0.403  0.1615 -0.3763  0.2148
11674TIP3    H156513   2.613   3.296   0.471  0.2015 -1.5571  0.4756
11674TIP3    H256514   2.658   3.200   0.363  0.7867 -0.1976 -0.5181
11675TIP3   OH256515   6.319   3.049  11.565 -0.2019 -0.4032 -0.5513
11675TIP3    H156516   6.398   3.101  11.552  0.0340 -0.1020  1.6870
11675TIP3    H256517   6.349   2.958  11.557  0.5224 -0.3076  0.7325
11676TIP3   OH256518   4.480   2.595   5.206  0.2414  0.2396 -0.1925
11676TIP3    H156519   4.412   2.641   5.256  0.0325  2.1949 -2.1450
11676TIP3    H256520   4.561   2.618   5.251 -0.1079  0.2636  0.4427
11677TIP3   OH256521   3.043   1.610  13.002 -0.0513  0.2986  0.4018
11677TIP3    H156522   2.988   1.661  12.943 -0.8443 -0.6626  0.2769
11677TIP3    H256523   2.982   1.573  13.066  0.6655  0.4890  1.2068
11678TIP3   OH256524   1.849   0.972   4.872  0.0215 -0.5066  0.8041
11678TIP3    H156525   1.905   0.932   4.939 -0.0734 -0.8842  0.6632
11678TIP3    H256526   1.805   1.044   4.917 -0.6592 -1.2580  1.3736
11679TIP3   OH256527   5.170   5.550   4.338  0.4178  0.1205 -0.0962
11679TIP3    H156528   5.092   5.553   4.393  0.8673 -1.2279  0.6716
11679TIP3    H256529   5.145   5.495   4.263  0.4521  0.1533 -0.1317
11680TIP3   OH256530   5.907   0.838   6.464  0.7197 -0.6832  0.4144
11680TIP3    H156531   5.824   0.808   6.501 -0.6777  1.5126 -0.7220
11680TIP3    H256532   5.915   0.928   6.492  1.9717 -0.3909 -0.7457
11681TIP3   OH256533   5.837   0.502   6.065  0.0710 -0.0966  0.0310
11681TIP3    H156534   5.873   0.413   6.056 -0.4281 -0.3247  0.2612
11681TIP3    H256535   5.906   0.551   6.110  0.8546 -0.0394 -1.1847
11682TIP3   OH256536   3.652   4.205   2.074 -0.3817  0.1109 -0.4056
11682TIP3    H156537   3.659   4.181   2.166 -0.4724  0.6293 -0.2604
11682TIP3    H256538   3.569   4.167   2.045 -0.7423  0.6174 -0.0608
11683TIP3   OH256539   6.330   5.485   3.079  0.4502 -0.0366  0.1536
11683TIP3    H156540   6.398   5.547   3.052  2.5747 -1.4595  1.8836
11683TIP3    H256541   6.292   5.524   3.157 -0.3942  0.5213 -0.5268
11684TIP3   OH256542   6.700   4.970   2.081 -0.1934 -0.1765 -0.3022
11684TIP3    H156543   6.654   5.053   2.067  0.6161  0.3168 -0.1659
11684TIP3    H256544   6.694   4.955   2.175  0.7662  0.4228 -0.1253
11685TIP3   OH256545   2.653   3.220  15.017 -0.3107 -0.0809  0.3853
11685TIP3    H156546   2.599   3.218  14.938 -1.7437 -0.0078  1.3259
11685TIP3    H256547   2.701   3.137  15.016  0.1974  0.2148 -0.8899
11686TIP3   OH256548   4.296   3.544  10.905  0.2558 -0.3626  0.2308
11686TIP3    H156549   4.285   3.625  10.854  0.1123  0.5308  1.6407
11686TIP3    H256550   4.277   3.475  10.842  0.0587  0.7035 -0.9391
11687TIP3   OH256551   4.684   5.699   5.613 -0.4412 -0.3028 -0.4585
11687TIP3    H156552   4.708   5.791   5.605 -0.3532 -0.5054 -3.0504
11687TIP3    H256553   4.749   5.662   5.673 -0.0232  1.1390  0.0009
11688TIP3   OH256554   1.879   0.071  14.254 -0.2806 -0.6829  0.3637
11688TIP3    H156555   1.859   0.031  14.339 -1.7831 -1.4979 -0.3319
11688TIP3    H256556   1.849   0.007  14.190 -2.7844  1.4759 -0.8242
11689TIP3   OH256557   0.041   5.649  16.942  0.3369  0.4625  0.4754
11689TIP3    H156558   0.038   5.726  16.886  0.4318 -1.3543 -2.2079
11689TIP3    H256559   0.120   5.602  16.914 -1.2350 -2.0142 -0.0657
11690TIP3   OH256560   5.919   5.551  14.402  0.1311 -0.6089  0.3998
11690TIP3    H156561   6.000   5.559  14.452 -0.8366 -1.0805  2.1369
11690TIP3    H256562   5.881   5.468  14.431 -0.1560 -1.2748 -1.6907
11691TIP3   OH256563   2.601   2.174  13.274 -0.3252  0.0958  0.0845
11691TIP3    H156564   2.515   2.177  13.231  0.2286  0.3650 -1.0535
11691TIP3    H256565   2.599   2.093  13.326 -0.8996 -0.4569 -0.7580
11692TIP3   OH256566   0.031   0.766   6.299 -0.1828  0.5160  0.9036
11692TIP3    H156567   0.114   0.720   6.288  0.1071  1.1310  0.4088
11692TIP3    H256568   0.054   0.847   6.345  0.1204  2.3507 -2.1724
11693TIP3   OH256569   4.570   2.870  16.999  0.9132 -0.2914 -0.2035
11693TIP3    H156570   4.664   2.875  16.988  0.8941  0.0174 -0.2276
11693TIP3    H256571   4.542   2.960  17.018  0.7791 -0.5781  1.0784
11694TIP3   OH256572   0.638   0.982  15.560  0.3438 -0.5214  0.1968
11694TIP3    H156573   0.681   1.010  15.479 -0.9248 -1.0470 -0.7094
11694TIP3    H256574   0.650   1.055  15.620 -0.6046  0.8800 -1.2251
11695TIP3   OH256575   3.700   4.861   0.740  0.0437  0.7367  0.0895
11695TIP3    H156576   3.685   4.833   0.649 -1.4265  1.6771  0.0076
11695TIP3    H256577   3.750   4.942   0.733 -0.5249  1.0918  0.0860
11696TIP3   OH256578   6.358   3.413   2.455 -0.3945  0.2230 -0.0484
11696TIP3    H156579   6.299   3.484   2.481 -1.8217 -0.4168 -1.4068
11696TIP3    H256580   6.349   3.407   2.360  1.0416 -0.6345 -0.1610
11697TIP3   OH256581   2.235   2.303  17.239  0.3396 -0.3484 -0.1269
11697TIP3    H156582   2.165   2.283  17.301  0.3051 -0.3476 -0.1657
11697TIP3    H256583   2.199   2.279  17.153  0.0660  0.4523 -0.2535
11698TIP3   OH256584   6.364   5.580   0.346  0.3940 -0.6467  0.1412
11698TIP3    H156585   6.372   5.495   0.391  0.0479 -0.1963  1.0775
11698TIP3    H256586   6.447   5.590   0.300 -0.4103 -2.5494 -1.9099
11699TIP3   OH256587   1.816   0.823   4.569 -0.1051  0.0568 -0.1739
11699TIP3    H156588   1.858   0.908   4.560  0.3552 -0.1136  0.3202
11699TIP3    H256589   1.874   0.773   4.627 -1.1181 -0.1039  0.7202
11700TIP3   OH256590   5.300   6.320   4.865  0.5032 -0.3887  0.1229
11700TIP3    H156591   5.312   6.233   4.903 -1.1132 -0.6737  0.0515
11700TIP3    H256592   5.233   6.307   4.798  0.7401  0.7979 -0.3599
11701TIP3   OH256593   4.408   4.964   1.313 -0.1717 -0.5146  0.0854
11701TIP3    H156594   4.489   4.943   1.360  1.2707  1.6474 -1.2286
11701TIP3    H256595   4.354   5.010   1.377  1.2608  1.3096  0.0883
11702TIP3   OH256596   5.947   2.443  17.033 -0.0595  0.4663  0.0545
11702TIP3    H156597   6.017   2.393  16.991 -0.1595  0.7832 -0.4990
11702TIP3    H256598   5.869   2.389  17.022  0.3470 -0.6147  2.0090
11703TIP3   OH256599   1.315   1.631  16.541 -0.8359 -0.3341  0.0434
11703TIP3    H156600   1.268   1.549  16.534 -1.7132  0.2400 -0.9918
11703TIP3    H256601   1.315   1.667  16.452 -2.1370  1.6847  0.7918
11704TIP3   OH256602   1.353   4.115  15.633  0.0008  0.0807  0.4039
11704TIP3    H156603   1.423   4.169  15.598 -0.2559  1.2248  1.5898
11704TIP3    H256604   1.285   4.178  15.659 -0.1339 -0.7735  2.1951
11705TIP3   OH256605   2.430   2.871   5.863 -0.3213 -0.1571  0.4286
11705TIP3    H156606   2.522   2.891   5.881 -0.0873  1.1743 -1.9661
11705TIP3    H256607   2.431   2.828   5.777 -1.8622 -1.1888  0.8817
11706TIP3   OH256608   1.541   4.224  14.208  1.0046  0.1270 -0.1362
11706TIP3    H156609   1.545   4.219  14.303 -0.0509 -0.0881 -0.0866
11706TIP3    H256610   1.550   4.133  14.179 -1.4579 -0.2018 -0.0754
11707TIP3   OH256611   2.671   2.764   3.932  0.0384 -0.0689  0.0773
11707TIP3    H156612   2.626   2.762   4.017 -0.7440  1.2613 -0.2834
11707TIP3    H256613   2.716   2.679   3.928 -1.5992 -1.0482  0.9143
11708TIP3   OH256614   4.642   2.205  12.647 -0.0048 -0.5810 -0.3289
11708TIP3    H156615   4.550   2.220  12.627 -0.1811 -0.4954  0.4905
11708TIP3    H256616   4.667   2.131  12.592 -0.4780 -0.4039 -0.7879
11709TIP3   OH256617   1.279   5.334  11.922 -0.1917  0.1046 -0.2511
11709TIP3    H156618   1.236   5.271  11.979 -0.1652  0.2200 -0.1019
11709TIP3    H256619   1.215   5.404  11.909  0.0018  0.3483  0.0926
11710TIP3   OH256620   6.341   6.752  17.213  0.6073  0.2661 -0.1297
11710TIP3    H156621   6.269   6.748  17.276  0.5025 -1.2741 -0.3057
11710TIP3    H256622   6.417   6.719  17.260  0.2964 -1.9725 -1.0362
11711TIP3   OH256623   5.664   0.256   2.335 -0.2002 -0.4921 -0.0415
11711TIP3    H156624   5.614   0.338   2.331  1.1786  0.3302 -1.3312
11711TIP3    H256625   5.619   0.198   2.274 -0.9268 -0.5663  0.5493
11712TIP3   OH256626   5.952   5.992  16.780  0.6583  0.0425  0.2127
11712TIP3    H156627   5.995   5.911  16.805  0.7924 -0.4394 -1.4389
11712TIP3    H256628   5.899   5.968  16.703  1.7565  1.7722 -1.1562
11713TIP3   OH256629   2.936   1.189  12.468  0.5222  0.7940 -0.3559
11713TIP3    H156630   2.881   1.136  12.526 -0.9856  1.2720 -1.2859
11713TIP3    H256631   3.016   1.138  12.458  1.1611  0.9946  2.6565
11714TIP3   OH256632   0.810   1.080   4.061  0.1402 -0.1324  0.4840
11714TIP3    H156633   0.859   1.025   3.999  0.5448  0.9767 -0.2236
11714TIP3    H256634   0.771   1.149   4.006 -1.8912 -0.7401  1.0879
11715TIP3   OH256635   1.976   6.820   2.358 -0.1701  0.1402  0.1951
11715TIP3    H156636   1.911   6.760   2.395 -2.1762  1.1306 -1.4933
11715TIP3    H256637   2.056   6.768   2.353 -1.8151 -2.5371 -1.3139
11716TIP3   OH256638   5.041   3.462   4.652 -0.5623  0.0044 -0.2949
11716TIP3    H156639   5.083   3.377   4.639  3.5802  1.8001 -0.3526
11716TIP3    H256640   5.077   3.493   4.735  0.4926  2.8589 -1.7004
11717TIP3   OH256641   5.342   2.921  12.128 -0.5544 -0.0550  0.4833
11717TIP3    H156642   5.402   2.926  12.202 -1.2330 -0.0732  1.0388
11717TIP3    H256643   5.399   2.931  12.051  0.3091 -1.1769  0.9407
11718TIP3   OH256644   6.699   6.406   4.295 -0.3083  0.4038  0.2180
11718TIP3    H156645   6.782   6.445   4.266  0.1080  0.3531  1.2933
11718TIP3    H256646   6.646   6.402   4.215  0.0744  2.0365 -0.1747
11719TIP3   OH256647   0.269   0.211   4.566 -0.2579  0.3273 -0.0051
11719TIP3    H156648   0.246   0.148   4.498  0.7182 -0.1525  0.0944
11719TIP3    H256649   0.223   0.291   4.541 -0.2261  0.0441 -1.0155
11720TIP3   OH256650   4.686   6.004  12.136 -0.2587 -0.5145 -0.1889
11720TIP3    H156651   4.669   5.912  12.114 -1.1898 -0.3268 -0.2666
11720TIP3    H256652   4.723   6.000  12.225 -0.4270 -0.9499 -0.1336
11721TIP3   OH256653   5.015   5.684   0.725 -0.0020 -0.0340 -0.0482
11721TIP3    H156654   5.097   5.730   0.740 -1.2759  2.0661  0.9611
11721TIP3    H256655   5.030   5.596   0.760  1.5895  0.5198  0.7411
11722TIP3   OH256656   3.402   3.087   0.905 -0.5257 -0.4176  0.3292
11722TIP3    H156657   3.456   3.166   0.913 -0.2660 -0.6488  0.9994
11722TIP3    H256658   3.323   3.116   0.860  0.2736 -0.1278 -0.9314
11723TIP3   OH256659   3.829   3.800  16.158  0.5147  0.3044 -0.0592
11723TIP3    H156660   3.835   3.874  16.219  0.2297  0.0266  0.3134
11723TIP3    H256661   3.819   3.723  16.215  0.9366 -0.0326 -0.4404
11724TIP3   OH256662   5.708   2.425   2.369 -0.3765 -0.1326  0.4905
11724TIP3    H156663   5.615   2.447   2.359  0.0062  1.1621 -0.5908
11724TIP3    H256664   5.724   2.360   2.300 -0.4426 -0.2217  0.5592
11725TIP3   OH256665   3.350   4.583  15.425  0.1296 -0.5331 -0.2530
11725TIP3    H156666   3.268   4.633  15.426  0.6282  0.3204 -1.0092
11725TIP3    H256667   3.369   4.567  15.517 -0.3522  0.1656 -0.0211
11726TIP3   OH256668   1.822   2.654  15.544  0.3482  0.4833 -0.3616
11726TIP3    H156669   1.841   2.564  15.573  0.7713  0.6148 -0.2194
11726TIP3    H256670   1.870   2.663  15.462 -0.8376  0.1164 -1.1153
11727TIP3   OH256671   1.408   0.480  10.683 -0.0899 -0.4944  0.4451
11727TIP3    H156672   1.461   0.442  10.614 -0.6470  0.7372 -0.7061
11727TIP3    H256673   1.328   0.427  10.684  0.1160 -0.8080  0.4767
11728TIP3   OH256674   3.403   0.289  13.675 -0.1066  0.0018  0.4460
11728TIP3    H156675   3.320   0.243  13.668  0.3626 -0.7140 -0.7192
11728TIP3    H256676   3.452   0.241  13.742 -0.4641  0.1784  0.8386
11729TIP3   OH256677   4.244   0.950  13.605  0.3361  0.2477  0.1971
11729TIP3    H156678   4.334   0.916  13.602  0.4689  0.6461 -0.6099
11729TIP3    H256679   4.237   1.006  13.528 -0.8381 -0.3306 -0.1404
11730TIP3   OH256680   1.412   0.778  12.060  0.1861 -0.5593 -0.2799
11730TIP3    H156681   1.495   0.785  12.014 -0.1007  1.7503 -0.5517
11730TIP3    H256682   1.356   0.728  12.000  0.7169 -0.1967 -1.0943
11731TIP3   OH256683   1.403   2.475   2.223  0.1090 -0.5472 -0.2288
11731TIP3    H156684   1.402   2.570   2.217  2.3778 -0.4177  0.4712
11731TIP3    H256685   1.488   2.449   2.188  0.4052 -2.1196  1.4857
11732TIP3   OH256686   2.625   2.346   6.490  0.2508  0.2321 -0.6381
11732TIP3    H156687   2.594   2.387   6.570  1.6569  0.9093 -0.3979
11732TIP3    H256688   2.652   2.258   6.516 -2.9166 -1.0391 -1.1833
11733TIP3   OH256689   6.246   0.777  14.097 -0.4206  0.2233 -0.1420
11733TIP3    H156690   6.299   0.724  14.037 -0.2634  1.6737 -1.3417
11733TIP3    H256691   6.205   0.843  14.041 -0.7174  1.2982  1.2759
11734TIP3   OH256692   2.945   6.063   3.892  0.0336  0.0446 -0.7157
11734TIP3    H156693   2.961   6.024   3.978 -0.1930 -1.9101 -1.4919
11734TIP3    H256694   3.031   6.090   3.861  0.4284 -1.1731 -0.7242
11735TIP3   OH256695   5.469   3.078  13.558  0.5027  0.0118  0.3872
11735TIP3    H156696   5.451   3.000  13.610 -0.9595 -0.0779 -0.1970
11735TIP3    H256697   5.403   3.142  13.587  0.5004  0.3915 -0.4099
11736TIP3   OH256698   5.061   2.046   4.782  0.2064 -0.0438  0.5111
11736TIP3    H156699   5.088   2.003   4.701  0.0521 -1.0884  1.0040
11736TIP3    H256700   5.142   2.061   4.830  0.4704  1.8947 -0.4322
11737TIP3   OH256701   5.727   2.967   0.452  0.0310 -0.0276  0.2780
11737TIP3    H156702   5.661   3.020   0.408 -1.3754 -1.1797  0.8999
11737TIP3    H256703   5.678   2.917   0.517  1.5066 -1.0113  0.6942
11738TIP3   OH256704   4.746   2.107  14.824 -0.0362 -0.9759 -0.2932
11738TIP3    H156705   4.779   2.098  14.735 -3.1697 -0.1534 -1.7024
11738TIP3    H256706   4.712   2.197  14.827 -0.3465 -1.1187  1.6308
11739TIP3   OH256707   5.834   1.818   1.291  0.4225  0.6435 -0.0038
11739TIP3    H156708   5.900   1.822   1.361 -0.3609 -1.6091  0.9543
11739TIP3    H256709   5.769   1.884   1.315 -0.2962 -0.6923  1.9695
11740TIP3   OH256710   0.564   5.449  13.514  1.0084  0.1004  0.1102
11740TIP3    H156711   0.567   5.353  13.522  1.5526 -0.3415 -3.5695
11740TIP3    H256712   0.656   5.476  13.517  0.9825  0.2794 -0.6158
11741TIP3   OH256713   0.528   4.527  11.845 -0.0214 -0.8521  0.4809
11741TIP3    H156714   0.539   4.487  11.759 -0.4661  0.7676 -0.3794
11741TIP3    H256715   0.463   4.596  11.831 -0.2002 -0.6386  2.1511
11742TIP3   OH256716   4.495   5.461   4.549 -0.5286 -0.4756  0.4474
11742TIP3    H156717   4.509   5.462   4.644  0.8217  0.1741  0.2732
11742TIP3    H256718   4.450   5.544   4.531  2.2697  1.1054  0.1749
11743TIP3   OH256719   6.494   4.946   1.777 -0.0090  0.7392 -0.4141
11743TIP3    H156720   6.491   4.851   1.779  1.1625  0.6941 -0.2176
11743TIP3    H256721   6.539   4.970   1.858  1.1315  1.3715 -1.1988
11744TIP3   OH256722   5.938   4.404   3.234  0.2422 -0.3954 -0.0920
11744TIP3    H156723   5.897   4.455   3.305 -1.9234 -1.5939 -0.3872
11744TIP3    H256724   5.994   4.341   3.279 -2.7881 -2.6408  0.8758
11745TIP3   OH256725   2.302   3.957   4.725  0.3349  0.4637  0.0889
11745TIP3    H156726   2.314   3.862   4.733 -0.9171  0.2332 -0.4772
11745TIP3    H256727   2.388   3.991   4.702  1.1207 -0.3604  1.6632
11746TIP3   OH256728   6.301   2.214   6.404  0.0950  0.1574 -0.2675
11746TIP3    H156729   6.233   2.267   6.445 -0.7283 -0.2393 -1.0810
11746TIP3    H256730   6.254   2.157   6.344  1.2564  0.6418 -1.6920
11747TIP3   OH256731   3.938   1.248  15.377 -0.0726  0.3281 -0.3053
11747TIP3    H156732   3.885   1.268  15.300 -0.7526 -0.0749  0.0391
11747TIP3    H256733   4.001   1.182  15.347 -2.7288 -2.7559  0.2398
11748TIP3   OH256734   3.293   0.586   4.805 -0.1417  0.1913 -0.7914
11748TIP3    H156735   3.251   0.632   4.733 -2.1620  0.1396  0.2853
11748TIP3    H256736   3.221   0.557   4.861  1.3167 -0.1483  1.0279
11749TIP3   OH256737   0.360   1.514   2.125  0.0893 -0.9775  0.1174
11749TIP3    H156738   0.302   1.499   2.051 -0.8512  1.3268  0.3170
11749TIP3    H256739   0.436   1.557   2.088  0.5893 -1.7350  0.2276
11750TIP3   OH256740   0.483   4.953   3.171 -0.3811 -0.2771 -0.4390
11750TIP3    H156741   0.573   4.941   3.141 -0.6089 -0.1166 -1.1965
11750TIP3    H256742   0.432   4.967   3.091 -1.6656 -3.8053 -0.4150
11751TIP3   OH256743   5.005   5.680  15.626  0.6832  0.2231 -0.0782
11751TIP3    H156744   4.974   5.644  15.709 -1.0276  0.2738 -0.6665
11751TIP3    H256745   5.080   5.625  15.603 -0.0755 -1.0983  0.4962
11752TIP3   OH256746   2.422   3.727  14.671  0.1255  0.2699 -0.0369
11752TIP3    H156747   2.373   3.645  14.669  1.0353 -0.4070  2.1393
11752TIP3    H256748   2.513   3.701  14.686  0.8678  1.5948 -1.9631
11753TIP3   OH256749   0.389   6.752  11.588  0.0357  0.2682  0.4529
11753TIP3    H156750   0.373   6.816  11.518 -2.0054 -1.5334 -0.8384
11753TIP3    H256751   0.340   6.786  11.663  1.0962  1.4998  0.6215
11754TIP3   OH256752   4.864   0.511   3.720 -0.2838  0.2239 -0.1204
11754TIP3    H156753   4.779   0.554   3.725  0.3228  1.5273 -0.5848
11754TIP3    H256754   4.927   0.583   3.720  0.7876 -0.6923 -0.5083
11755TIP3   OH256755   2.629   4.007  14.009  0.5351 -0.0541 -0.0331
11755TIP3    H156756   2.616   3.912  13.997 -0.8043  0.0403  0.4384
11755TIP3    H256757   2.638   4.041  13.920  2.0275 -0.7292 -0.1723
11756TIP3   OH256758   0.642   3.874   2.543  0.2109  0.1721 -0.5591
11756TIP3    H156759   0.548   3.892   2.534  0.2864  0.4228 -0.8769
11756TIP3    H256760   0.684   3.937   2.484  0.8552  2.8655  2.5373
11757TIP3   OH256761   0.545   4.035   4.435 -0.2691 -0.2241 -0.1651
11757TIP3    H156762   0.472   3.998   4.385  0.7243  1.0113 -2.7370
11757TIP3    H256763   0.553   4.125   4.403 -0.5101  1.2492  3.4489
11758TIP3   OH256764   2.792   4.984   4.590  0.3660 -0.1001 -0.3035
11758TIP3    H156765   2.748   5.067   4.570  1.5246  0.3620 -1.0687
11758TIP3    H256766   2.883   5.009   4.607  0.7267 -1.2072 -0.5403
11759TIP3   OH256767   3.760   5.413  15.538  0.2495  0.4317  0.3751
11759TIP3    H156768   3.698   5.442  15.470 -1.3689 -1.6191  0.8638
11759TIP3    H256769   3.719   5.440  15.620  0.6862  0.2662  0.6466
11760TIP3   OH256770   3.462   1.204   6.769 -0.0649  0.0030  0.0368
11760TIP3    H156771   3.527   1.273   6.754  0.1279 -0.0841  0.4620
11760TIP3    H256772   3.479   1.141   6.699  0.7308 -0.3254  0.5180
11761TIP3   OH256773   0.130   0.362  13.163  0.3552 -0.1127  0.3023
11761TIP3    H156774   0.218   0.362  13.124  0.2396  1.6944 -0.0543
11761TIP3    H256775   0.109   0.455  13.173 -1.9810 -0.4757 -0.6965
11762TIP3   OH256776   2.694   4.485   2.663  0.3968 -0.5413  0.0375
11762TIP3    H156777   2.643   4.559   2.630  1.3590  0.5599  0.9481
11762TIP3    H256778   2.782   4.498   2.628  0.4111 -1.6984 -0.4235
11763TIP3   OH256779   5.396   3.842   3.653  0.1345 -0.1089 -0.5921
11763TIP3    H156780   5.420   3.756   3.619 -1.0510 -0.0061 -1.7950
11763TIP3    H256781   5.479   3.888   3.663  0.7799 -1.3636  0.0234
11764TIP3   OH256782   0.388   4.081   1.426 -0.4629 -0.6088 -0.2807
11764TIP3    H156783   0.332   4.111   1.498 -1.6905  0.6401 -1.6817
11764TIP3    H256784   0.463   4.140   1.428  1.9831 -3.4207  2.7755
11765TIP3   OH256785   3.871   5.818   1.230 -0.2751 -0.6802  0.4741
11765TIP3    H156786   3.932   5.745   1.245  0.9795  0.4045  0.7810
11765TIP3    H256787   3.866   5.826   1.134  0.2481 -0.6264  0.4504
11766TIP3   OH256788   0.528   3.272   3.059 -0.7361 -0.5848  0.4839
11766TIP3    H156789   0.528   3.183   3.093 -2.8630 -1.0425 -0.5140
11766TIP3    H256790   0.440   3.305   3.077 -0.4057  0.8392 -0.3038
11767TIP3   OH256791   0.388   1.086  11.688 -0.3908  0.2924  0.1016
11767TIP3    H156792   0.379   1.038  11.605 -0.4066 -0.0541  0.3008
11767TIP3    H256793   0.402   1.017  11.753 -2.5714  0.3845  0.7330
11768TIP3   OH256794   4.265   3.364  14.548  0.0759 -0.3563  0.3683
11768TIP3    H156795   4.222   3.280  14.567 -1.3686  0.3720  0.4760
11768TIP3    H256796   4.297   3.394  14.633  0.3244 -0.6585  0.3814
11769TIP3   OH256797   4.456   3.196  15.779  0.2953 -0.0440 -0.1742
11769TIP3    H156798   4.492   3.285  15.779 -2.0754  1.0605  2.7060
11769TIP3    H256799   4.374   3.202  15.730  1.2820 -1.3477 -2.1622
11770TIP3   OH256800   1.158   0.062   0.828  0.3191  0.4707 -0.1577
11770TIP3    H156801   1.246   0.047   0.794  0.0255 -1.5478 -0.1444
11770TIP3    H256802   1.101   0.011   0.771 -0.6033  0.1543  1.0033
11771TIP3   OH256803   4.407   2.516   0.069  0.0361 -0.4840 -0.6371
11771TIP3    H156804   4.446   2.561  -0.006  1.1352  0.5849  0.5215
11771TIP3    H256805   4.478   2.461   0.103 -0.7926 -1.8173 -1.0363
11772TIP3   OH256806   4.874   1.902   2.519 -0.0709  0.5897  0.1021
11772TIP3    H156807   4.901   1.966   2.586 -0.3712  0.2198  0.5791
11772TIP3    H256808   4.858   1.955   2.441 -1.8660  1.3310  0.9160
11773TIP3   OH256809   0.745   6.065  13.333 -0.4691  0.4458  0.3858
11773TIP3    H156810   0.819   6.050  13.392 -0.1689 -1.3061 -0.3727
11773TIP3    H256811   0.765   6.013  13.255 -1.1588  2.1993 -1.0329
11774TIP3   OH256812   5.771   1.960  11.796  0.4384  0.1479 -0.3725
11774TIP3    H156813   5.845   1.987  11.850  0.8356  0.3623 -1.0129
11774TIP3    H256814   5.750   1.872  11.828  0.8534  0.1542 -0.0621
11775TIP3   OH256815   0.019   5.840  15.729 -0.2650 -0.7800 -0.1025
11775TIP3    H156816   0.033   5.911  15.667  0.2884  0.7261  1.6563
11775TIP3    H256817  -0.024   5.771  15.678 -2.3381  1.4253 -1.5336
11776TIP3   OH256818   3.516   2.322   6.735  0.0009 -0.0079 -0.3704
11776TIP3    H156819   3.453   2.377   6.781 -0.1033  1.4763 -2.2009
11776TIP3    H256820   3.571   2.383   6.687  1.7652 -1.3723 -0.2007
11777TIP3   OH256821   3.563   5.572   1.489 -0.3766 -0.0996 -0.6706
11777TIP3    H156822   3.605   5.656   1.469  0.8596 -0.8800 -1.4866
11777TIP3    H256823   3.491   5.566   1.426 -0.2291  0.1826 -0.8717
11778TIP3   OH256824   6.734   1.663   0.387 -0.4931  0.6166 -0.0471
11778TIP3    H156825   6.738   1.634   0.478 -1.8231 -0.3799 -0.2869
11778TIP3    H256826   6.824   1.651   0.354 -0.7027 -2.2621  0.1811
11779TIP3   OH256827   3.813   6.409   0.331 -0.0269  0.2526  0.1007
11779TIP3    H156828   3.778   6.415   0.420 -1.1400  1.6670 -0.3790
11779TIP3    H256829   3.900   6.447   0.337  1.1064 -2.2868  1.1004
11780TIP3   OH256830   3.018   0.511   2.968  0.2196  0.1350  0.0693
11780TIP3    H156831   3.023   0.479   2.878  1.5590  0.9684 -0.1884
11780TIP3    H256832   2.928   0.494   2.995 -0.4549  0.6512 -1.7273
11781TIP3   OH256833   0.826   4.113  14.828 -0.2223 -0.2788  1.0223
11781TIP3    H156834   0.882   4.115  14.750 -0.6165 -1.5123  0.6860
11781TIP3    H256835   0.876   4.065  14.893 -0.8116 -1.2726  0.7629
11782TIP3   OH256836   2.958   2.275   4.495  0.7458 -0.0158 -0.1127
11782TIP3    H156837   2.868   2.308   4.503  1.2972  1.5899 -0.2096
11782TIP3    H256838   2.958   2.225   4.413 -0.0695 -0.1061 -0.0670
11783TIP3   OH256839   3.633   3.445   2.528 -0.2805 -0.4455  0.2871
11783TIP3    H156840   3.636   3.540   2.514 -0.8378 -0.6389 -1.3825
11783TIP3    H256841   3.715   3.413   2.489 -0.4146 -0.7177  0.2264
11784TIP3   OH256842   2.719   6.277   1.837  0.2261  0.0257 -0.2411
11784TIP3    H156843   2.624   6.289   1.835  0.0012 -0.3786  2.9882
11784TIP3    H256844   2.732   6.183   1.827  0.0852 -0.1824  1.2520
11785TIP3   OH256845   0.409   1.106   2.499  0.8384 -0.3434  0.1436
11785TIP3    H156846   0.424   1.067   2.585 -2.4900 -0.0530  0.9881
11785TIP3    H256847   0.394   1.031   2.441  2.0363 -0.4983  0.0068
11786TIP3   OH256848   1.657   3.466  11.964 -0.2595  0.5558 -0.1358
11786TIP3    H156849   1.667   3.424  11.878  0.8558 -0.6654  0.5675
11786TIP3    H256850   1.592   3.413  12.009  2.2336 -1.4988  1.3183
11787TIP3   OH256851   2.221   5.151  12.132 -0.0889 -0.4658  0.2386
11787TIP3    H156852   2.306   5.193  12.125 -1.0348  1.7636  0.9475
11787TIP3    H256853   2.174   5.179  12.053 -0.6896 -0.2617  0.6545
11788TIP3   OH256854   5.375   6.643  16.463 -0.3280 -0.1195  0.0664
11788TIP3    H156855   5.314   6.707  16.424  1.8409  3.0345  1.4109
11788TIP3    H256856   5.462   6.676  16.440  0.9363 -2.9507  0.4504
11789TIP3   OH256857   1.581   3.230   2.049 -0.2654  0.1248 -0.1742
11789TIP3    H156858   1.663   3.193   2.080  0.0325  1.2701  0.4934
11789TIP3    H256859   1.594   3.244   1.955 -0.4293 -1.5045 -0.4623
11790TIP3   OH256860   3.703   5.627   2.145  0.2298  0.5767 -0.1532
11790TIP3    H156861   3.699   5.599   2.237  0.0530 -0.6518 -0.5180
11790TIP3    H256862   3.783   5.586   2.111 -0.5709 -0.3655 -0.9690
11791TIP3   OH256863   2.695   6.327  11.711  0.1109 -0.3672  0.7475
11791TIP3    H156864   2.673   6.278  11.631 -0.3359 -1.6964  1.6384
11791TIP3    H256865   2.787   6.353  11.699  0.9487 -2.9382  0.9094
11792TIP3   OH256866   4.667   0.848  15.305  0.3711  0.0863  0.0144
11792TIP3    H156867   4.572   0.840  15.293 -0.5176  2.1957  4.0552
11792TIP3    H256868   4.692   0.922  15.250 -0.1987 -0.6114 -1.2451
11793TIP3   OH256869   0.370   3.571  14.674 -0.3421  0.1020 -0.4422
11793TIP3    H156870   0.363   3.605  14.584 -1.3231  1.4817  0.1258
11793TIP3    H256871   0.463   3.577  14.694 -0.4039  2.1713 -0.5198
11794TIP3   OH256872   4.056   6.805  12.592 -0.1225  0.0660  0.1464
11794TIP3    H156873   4.130   6.816  12.531 -0.2632  1.3381  0.1768
11794TIP3    H256874   4.097   6.784  12.675  0.1633 -0.0693 -0.0257
11795TIP3   OH256875   1.695   2.828  16.670  0.3957 -0.1298  0.2496
11795TIP3    H156876   1.623   2.876  16.712  0.0172 -0.3078 -0.1753
11795TIP3    H256877   1.773   2.853  16.718  0.1727  0.7662  0.1555
11796TIP3   OH256878   3.106   2.330   5.693 -0.7175 -0.0482 -0.3272
11796TIP3    H156879   3.106   2.351   5.600 -0.4373  1.1141 -0.0780
11796TIP3    H256880   3.019   2.354   5.724 -0.9986 -0.9502 -0.3860
11797TIP3   OH256881   2.792   3.662  16.620  0.9863  0.1238  0.3948
11797TIP3    H156882   2.756   3.690  16.536 -0.8473 -0.4575  0.9497
11797TIP3    H256883   2.871   3.613  16.597  1.1347  0.9186 -0.9050
11798TIP3   OH256884   5.698   0.667  15.125  0.6192  0.5365 -0.3447
11798TIP3    H156885   5.652   0.644  15.206  2.8077 -0.5453  0.6591
11798TIP3    H256886   5.714   0.582  15.082 -2.2267  1.1595 -3.0170
11799TIP3   OH256887   3.400   3.201  11.886 -0.3000  0.3508  0.3033
11799TIP3    H156888   3.393   3.106  11.877  0.1727  0.3270  0.1507
11799TIP3    H256889   3.339   3.236  11.821  1.1781  0.1614 -1.2837
11800TIP3   OH256890   5.710   6.039   0.296  0.0762  0.0736  0.0052
11800TIP3    H156891   5.699   6.055   0.390  0.2373  0.8171 -0.0983
11800TIP3    H256892   5.639   6.089   0.255 -0.0459 -0.3161 -0.2690
11801TIP3   OH256893   5.260   6.558  13.890  0.1106  0.7237  0.1257
11801TIP3    H156894   5.272   6.629  13.953  0.0575  1.3856 -0.5855
11801TIP3    H256895   5.309   6.586  13.813  0.5922 -0.3057  0.0439
11802TIP3   OH256896   5.425   0.072   1.367 -0.3144  0.1598  0.2204
11802TIP3    H156897   5.390   0.070   1.278 -1.4693 -1.0093  0.6637
11802TIP3    H256898   5.466   0.158   1.375 -1.0372  0.6646 -1.1261
11803TIP3   OH256899   2.492   3.045  12.635 -0.0508 -0.0030  0.3280
11803TIP3    H156900   2.568   3.077  12.684  1.7063 -0.4012 -1.9940
11803TIP3    H256901   2.484   3.105  12.561 -0.4616 -1.4116 -0.8062
11804TIP3   OH256902   6.791   2.649  11.874  0.0384 -0.5834 -0.6111
11804TIP3    H156903   6.775   2.693  11.791 -1.6017 -0.1563 -0.1065
11804TIP3    H256904   6.859   2.702  11.916  1.2823 -1.1125 -1.8686
11805TIP3   OH256905   2.693   2.892   6.248  0.2958 -0.1323 -0.2500
11805TIP3    H156906   2.705   2.902   6.342  0.6171 -2.6402  0.0354
11805TIP3    H256907   2.606   2.852   6.239 -0.1080  0.8717 -1.1129
11806TIP3   OH256908   1.828   2.717   1.611  0.0481 -0.5054  0.0309
11806TIP3    H156909   1.907   2.663   1.622 -0.0178 -0.6282 -0.0937
11806TIP3    H256910   1.859   2.798   1.572  0.1799 -0.3656  0.4170
11807TIP3   OH256911   0.230   2.736  12.933 -0.3243  0.3423  0.1079
11807TIP3    H156912   0.221   2.822  12.976  0.1961  0.3852  0.1384
11807TIP3    H256913   0.169   2.679  12.980 -0.9798  0.7923 -0.1782
11808TIP3   OH256914   4.119   2.581   5.306  0.6938  0.1242 -0.2082
11808TIP3    H156915   4.178   2.514   5.272  1.9757  0.4806  1.2117
11808TIP3    H256916   4.076   2.617   5.228  2.4571 -0.0609 -1.3181
11809TIP3   OH256917   5.817   2.460  11.225 -0.3501  0.0049  0.0303
11809TIP3    H156918   5.903   2.417  11.230 -0.0149  0.6417 -0.1559
11809TIP3    H256919   5.837   2.554  11.230 -0.9094  0.2257 -1.3946
11810TIP3   OH256920   6.044   4.831   2.578 -0.3635 -0.1402  0.1848
11810TIP3    H156921   6.136   4.817   2.601  0.8334  1.0627 -3.1718
11810TIP3    H256922   6.022   4.755   2.523 -1.1887 -0.1219  0.4833
11811TIP3   OH256923   0.871   0.191   0.468  0.4515 -0.3528 -0.1045
11811TIP3    H156924   0.819   0.111   0.479  3.9720 -2.9043 -0.2462
11811TIP3    H256925   0.914   0.180   0.383  1.5650  1.3421  0.1968
11812TIP3   OH256926   1.348   3.799   4.739 -0.3456 -0.3484 -0.4344
11812TIP3    H156927   1.286   3.747   4.687  0.3992  0.1296 -1.8629
11812TIP3    H256928   1.420   3.816   4.679 -0.3311  1.9233  0.1374
11813TIP3   OH256929   2.901   3.575   3.317  0.6897  0.0732  0.3698
11813TIP3    H156930   2.846   3.647   3.349 -1.7487 -2.3062  1.9381
11813TIP3    H256931   2.959   3.616   3.253 -0.7200  3.3645  1.0085
11814TIP3   OH256932   6.507   1.877  10.967 -0.2776 -0.8333  0.4924
11814TIP3    H156933   6.454   1.801  10.988 -3.3176  0.7874 -0.7627
11814TIP3    H256934   6.450   1.934  10.916  2.2002  1.8115  0.3698
11815TIP3   OH256935   2.464   3.760   2.653  0.2021 -0.0622 -0.2747
11815TIP3    H156936   2.373   3.745   2.679  0.1698  1.1033  0.3832
11815TIP3    H256937   2.516   3.715   2.719  0.1012  1.7506  1.1295
11816TIP3   OH256938   4.019   6.800  11.886  0.1215  0.0044 -0.2630
11816TIP3    H156939   4.075   6.779  11.811  0.1903 -0.1320 -0.1749
11816TIP3    H256940   4.079   6.804  11.960  0.1854  1.0447 -0.3602
11817TIP3   OH256941   4.825   6.146   0.799 -0.2610  0.1075  0.3782
11817TIP3    H156942   4.843   6.053   0.814 -0.1405  0.1318  0.3794
11817TIP3    H256943   4.730   6.150   0.789 -0.1836 -0.1452 -0.5321
11818TIP3   OH256944   3.705   5.447   5.631 -0.3998 -0.4137 -0.5403
11818TIP3    H156945   3.618   5.429   5.664 -2.5328  3.0368 -3.5192
11818TIP3    H256946   3.719   5.381   5.563 -1.6835  0.2283 -1.4673
11819TIP3   OH256947   0.680   3.015  17.255  0.2495 -0.4068 -0.9614
11819TIP3    H156948   0.586   3.013  17.237  0.3730  2.0701 -2.2655
11819TIP3    H256949   0.710   2.927  17.232 -1.9222 -1.7567  0.9409
11820TIP3   OH256950   3.779   1.819  16.400  0.0379  0.0104 -0.0656
11820TIP3    H156951   3.793   1.726  16.383 -1.8768 -0.4513  0.6803
11820TIP3    H256952   3.734   1.852  16.322 -0.6234 -0.0455  0.2851
11821TIP3   OH256953   4.704   5.628  15.470  0.1395  0.0234 -0.3716
11821TIP3    H156954   4.726   5.572  15.396  1.2602 -0.4676  0.3159
11821TIP3    H256955   4.757   5.595  15.542  1.2844  2.3085 -0.0805
11822TIP3   OH256956   4.195   2.214  11.498 -0.0173 -0.1392 -0.4518
11822TIP3    H156957   4.259   2.238  11.430  0.0409 -1.1715 -0.7835
11822TIP3    H256958   4.110   2.219  11.453 -0.1971  1.2882  0.0048
11823TIP3   OH256959   4.270   1.729   2.466 -0.1124  0.3665  0.2630
11823TIP3    H156960   4.329   1.803   2.459  1.1617 -0.2139  3.2182
11823TIP3    H256961   4.326   1.655   2.488 -1.4168 -1.4163 -1.9297
11824TIP3   OH256962   4.050   2.838   0.507 -0.3531  0.0002 -0.2869
11824TIP3    H156963   4.106   2.765   0.533  0.1782 -0.1132 -1.6915
11824TIP3    H256964   4.031   2.823   0.414 -0.6866  1.3564 -0.4636
11825TIP3   OH256965   6.077   1.373  11.256  0.4493 -0.3640  0.0910
11825TIP3    H156966   6.110   1.332  11.336  1.4117 -0.0125 -0.1051
11825TIP3    H256967   6.105   1.315  11.186  1.2890  0.2855 -0.1364
11826TIP3   OH256968   0.935   3.023   1.623 -0.2444  0.0089  1.0008
11826TIP3    H156969   1.001   3.087   1.651  1.0686 -0.1061 -1.4541
11826TIP3    H256970   0.853   3.071   1.623  0.8796  2.2486 -1.9503
11827TIP3   OH256971   6.300   4.872   4.761  0.3331 -0.1329 -0.1497
11827TIP3    H156972   6.264   4.945   4.811  0.1327  0.7708 -1.5353
11827TIP3    H256973   6.278   4.893   4.670  0.8640 -1.5965 -0.6407
11828TIP3   OH256974   3.130   1.616   0.703 -0.2204  0.3672 -0.4378
11828TIP3    H156975   3.042   1.637   0.736 -0.3794 -0.6372 -0.1861
11828TIP3    H256976   3.120   1.532   0.659  0.2190  1.1910 -2.1885
11829TIP3   OH256977   1.812   6.252  13.451 -0.6022 -0.2375  0.6379
11829TIP3    H156978   1.725   6.214  13.456 -1.4886  1.1246 -2.2265
11829TIP3    H256979   1.825   6.295  13.535 -2.2256 -1.3365  1.5007
11830TIP3   OH256980   0.394   6.777  15.858 -0.6798 -0.0918 -0.1810
11830TIP3    H156981   0.441   6.786  15.941  1.3228 -0.4219 -1.2181
11830TIP3    H256982   0.409   6.686  15.832 -1.4455 -0.0444 -0.8125
11831TIP3   OH256983   6.312   2.751   1.829 -0.3204 -0.1047 -0.3963
11831TIP3    H156984   6.293   2.831   1.878 -0.7692  1.1163 -2.4550
11831TIP3    H256985   6.354   2.781   1.748 -0.3480 -1.9496 -1.1520
11832TIP3   OH256986   6.330   5.236   5.064  0.3324  0.0706  0.2497
11832TIP3    H156987   6.413   5.279   5.083  0.4426 -0.3891  0.8316
11832TIP3    H256988   6.284   5.297   5.006  0.9640  0.4438  0.1371
11833TIP3   OH256989   5.702   1.412  10.715  0.2241 -0.0190  0.6635
11833TIP3    H156990   5.727   1.364  10.794  1.2833 -0.2159  0.2138
11833TIP3    H256991   5.737   1.500  10.728 -0.5448  0.2671  0.8827
11834TIP3   OH256992   3.539   3.569   3.329 -0.6501 -0.1070 -0.2334
11834TIP3    H156993   3.493   3.576   3.413 -0.5868 -2.5931  0.0719
11834TIP3    H256994   3.628   3.543   3.353  0.3736  2.3889 -0.9539
11835TIP3   OH256995   4.879   5.484  13.773 -1.1600  0.8021 -0.2095
11835TIP3    H156996   4.858   5.471  13.865 -1.0324  1.7825 -0.0262
11835TIP3    H256997   4.973   5.505  13.774 -1.1670  0.8427 -0.5637
11836TIP3   OH256998   6.568   6.481  14.742 -0.8390  0.0384 -0.6475
11836TIP3    H156999   6.539   6.559  14.788  0.2190  0.1473 -0.1308
11836TIP3    H257000   6.649   6.507  14.699 -0.7404 -0.6282 -0.8858
11837TIP3   OH257001   4.062   3.700  14.616 -0.1570 -0.1430 -0.1797
11837TIP3    H157002   4.036   3.747  14.537  1.4970  0.1117 -0.6054
11837TIP3    H257003   4.114   3.764  14.665 -0.1848 -0.6777  0.5673
11838TIP3   OH257004   1.928   4.276   4.529 -0.2331 -0.2106 -0.4234
11838TIP3    H157005   1.884   4.319   4.457  0.2084  0.1497 -0.4859
11838TIP3    H257006   1.897   4.185   4.526 -0.2009 -0.2038 -1.0771
11839TIP3   OH257007   0.016   3.956  11.706  0.5100  0.0638  0.0753
11839TIP3    H157008   0.033   3.877  11.757 -0.0154  1.0308  1.8274
11839TIP3    H257009   0.003   3.924  11.616  0.6999 -1.7829  0.6628
11840TIP3   OH257010   1.211   4.976  15.926 -0.4541 -0.7073  0.0156
11840TIP3    H157011   1.293   4.953  15.881  0.2391 -0.2484  1.0074
11840TIP3    H257012   1.158   5.018  15.858  0.1301 -1.0013 -0.6457
11841TIP3   OH257013   6.191   0.184   6.319 -0.6706  0.0501 -0.4451
11841TIP3    H157014   6.285   0.198   6.329 -0.7984  0.5258  0.1689
11841TIP3    H257015   6.179   0.090   6.333 -0.3819  0.1236  0.3440
11842TIP3   OH257016   5.682   0.534  12.438  0.1028 -0.3239  1.1583
11842TIP3    H157017   5.699   0.467  12.505 -1.3402 -0.0670  1.8283
11842TIP3    H257018   5.586   0.539  12.434  0.0709 -1.2892 -1.9328
11843TIP3   OH257019   3.433   0.644   4.268 -0.2193 -0.0712  0.1266
11843TIP3    H157020   3.397   0.664   4.182  1.2385  0.8036 -0.3108
11843TIP3    H257021   3.372   0.685   4.330  0.5969  2.4813 -0.6370
11844TIP3   OH257022   4.244   2.341   1.452  0.5225  0.2746 -0.1432
11844TIP3    H157023   4.305   2.314   1.521  1.1023  1.0748 -0.3312
11844TIP3    H257024   4.288   2.317   1.371  1.1312  1.9022 -0.3192
11845TIP3   OH257025   4.420   4.349  13.066  0.2065 -0.0174  0.1034
11845TIP3    H157026   4.363   4.370  12.992 -1.3066 -1.8027  0.6839
11845TIP3    H257027   4.509   4.362  13.032 -0.3983 -1.3335 -2.2519
11846TIP3   OH257028   6.254   1.849   5.761  0.1535  0.3949 -0.0718
11846TIP3    H157029   6.263   1.856   5.856 -0.2496  0.2968 -0.0230
11846TIP3    H257030   6.166   1.812   5.748  0.8152 -1.1721 -0.4149
11847TIP3   OH257031   5.225   4.204   2.350 -0.0358 -0.2816 -0.3654
11847TIP3    H157032   5.263   4.291   2.349  1.2425 -0.8084  0.2048
11847TIP3    H257033   5.134   4.217   2.376 -0.3094  1.0236 -1.8309
11848TIP3   OH257034   5.386   3.723   2.561  0.2512 -0.0982  0.3760
11848TIP3    H157035   5.305   3.739   2.512  0.1678 -0.4801  0.3847
11848TIP3    H257036   5.360   3.665   2.632  0.5044 -0.0929  0.4743
11849TIP3   OH257037   3.678   1.635   6.333  0.5347  0.2803 -0.3017
11849TIP3    H157038   3.621   1.598   6.266 -0.9116  0.9241  0.5166
11849TIP3    H257039   3.748   1.570   6.344 -0.3137 -0.7875 -0.9872
11850TIP3   OH257040   1.921   2.657   1.362 -0.6538 -0.3564 -0.0118
11850TIP3    H157041   2.006   2.699   1.350 -0.2463 -0.7268  1.3592
11850TIP3    H257042   1.862   2.729   1.384 -0.3750 -0.2600  0.4390
11851TIP3   OH257043   4.803   4.460  15.273  0.0178 -0.2838 -0.1932
11851TIP3    H157044   4.881   4.453  15.217 -0.0142 -0.7444 -0.1851
11851TIP3    H257045   4.795   4.553  15.291  1.9979 -0.4154  1.8241
11852TIP3   OH257046   3.282   6.275   0.017 -0.1102  0.0402 -0.3179
11852TIP3    H157047   3.246   6.358  -0.014  0.6981  0.1019 -1.1599
11852TIP3    H257048   3.356   6.301   0.073  0.0999 -0.1020 -0.5268
11853TIP3   OH257049   6.359   3.120   4.718  0.1327  0.3961  0.4130
11853TIP3    H157050   6.360   3.135   4.624 -0.5887  2.0006  0.6234
11853TIP3    H257051   6.410   3.192   4.754 -1.8360  1.3783  1.3943
11854TIP3   OH257052   1.063   1.691   2.422  0.2293 -0.1577  0.2057
11854TIP3    H157053   1.069   1.598   2.441  1.3994 -0.4683 -1.4908
11854TIP3    H257054   1.035   1.731   2.504 -0.7505 -2.0417  0.8325
11855TIP3   OH257055   2.432   3.439   0.716  0.3992  0.0683 -0.4007
11855TIP3    H157056   2.473   3.414   0.633  2.6066  2.0358 -0.0054
11855TIP3    H257057   2.427   3.357   0.765  1.2919 -0.7224 -1.5529
11856TIP3   OH257058   2.017   6.305   5.045 -0.8321  0.0046  0.1312
11856TIP3    H157059   2.043   6.242   4.978  1.1719  1.4901 -0.5635
11856TIP3    H257060   1.939   6.347   5.008 -0.0148  0.4956 -1.0806
11857TIP3   OH257061   5.852   3.242  12.881  0.2034  0.0527 -0.3171
11857TIP3    H157062   5.892   3.323  12.911  2.5241 -0.7195 -1.1183
11857TIP3    H257063   5.804   3.268  12.801  0.5852  0.7043 -0.3442
11858TIP3   OH257064   3.511   2.671   2.404 -0.0004  0.3223 -0.1058
11858TIP3    H157065   3.482   2.693   2.315 -0.7285 -0.1648  0.0095
11858TIP3    H257066   3.473   2.739   2.459 -2.6963 -1.3952  0.3238
11859TIP3   OH257067   5.716   3.155   5.972  0.1849 -0.4822 -0.2227
11859TIP3    H157068   5.789   3.106   6.011 -0.9105 -2.2438 -0.2550
11859TIP3    H257069   5.662   3.181   6.047  0.2944 -0.1105 -0.2720
11860TIP3   OH257070   1.402   1.600   0.857  0.1110 -0.0079  0.3075
11860TIP3    H157071   1.439   1.676   0.812 -2.4486  1.3910  0.3981
11860TIP3    H257072   1.445   1.599   0.943  1.9176 -0.1513 -0.5692
11861TIP3   OH257073   2.571   6.293   0.348 -0.0142 -0.1706  0.5836
11861TIP3    H157074   2.660   6.323   0.331 -0.2904  0.0288 -0.5689
11861TIP3    H257075   2.535   6.274   0.261 -1.3709  0.5442  0.9718
11862TIP3   OH257076   3.761   6.685  11.890 -0.2939  0.4347  0.3010
11862TIP3    H157077   3.844   6.729  11.869 -1.0601  1.9665  0.3271
11862TIP3    H257078   3.694   6.753  11.878 -1.4681 -0.5404  1.0590
11863TIP3   OH257079   3.525   2.351   4.878  0.2872 -0.4767 -0.6964
11863TIP3    H157080   3.530   2.439   4.915  1.7214  0.1323 -2.1906
11863TIP3    H257081   3.589   2.352   4.806  1.4407 -3.1675  0.1584
11864TIP3   OH257082   4.469   1.045  11.828  0.2133  0.6740 -0.4063
11864TIP3    H157083   4.454   1.137  11.848 -2.0458  0.2587  0.0806
11864TIP3    H257084   4.394   0.999  11.866  2.3393 -1.6786  1.3993
11865TIP3   OH257085   4.992   1.773   6.223 -0.1177  0.2161 -0.0906
11865TIP3    H157086   5.038   1.852   6.250 -1.5572  0.5470  1.5423
11865TIP3    H257087   4.913   1.805   6.179 -0.4308 -0.3005  0.0841
11866TIP3   OH257088   3.815   0.134   5.281  0.2070 -0.1383  0.4353
11866TIP3    H157089   3.838   0.222   5.311  2.6566 -0.5679  0.0145
11866TIP3    H257090   3.720   0.135   5.274  0.1066  2.1755  1.3345
11867TIP3   OH257091   4.270   0.203   6.099  0.7727  0.7044  0.1715
11867TIP3    H157092   4.289   0.126   6.046  0.4563  0.0628  0.9686
11867TIP3    H257093   4.177   0.221   6.083  0.5275  0.1691  0.9104
11868TIP3   OH257094   2.796   5.876   4.212  0.6631 -0.0336  0.2088
11868TIP3    H157095   2.888   5.884   4.187  0.8953  0.2873  1.1137
11868TIP3    H257096   2.778   5.955   4.263  0.4203 -0.9708  1.6371
11869TIP3   OH257097   6.775   1.507  14.277  0.2002 -0.1947  0.4310
11869TIP3    H157098   6.760   1.434  14.338 -1.4695 -0.2503 -0.0026
11869TIP3    H257099   6.753   1.585  14.328 -0.0394 -0.1488  0.2549
11870TIP3   OH257100   6.007   2.193  15.645  0.5098  0.4203 -0.4444
11870TIP3    H157101   5.951   2.136  15.591 -0.9907  0.8516  0.6049
11870TIP3    H257102   5.964   2.195  15.730  1.6660  1.4860  0.1402
11871TIP3   OH257103   2.244   0.637   2.893  0.3325  0.0708  0.0413
11871TIP3    H157104   2.156   0.629   2.930 -0.8818  0.3991 -2.5412
11871TIP3    H257105   2.246   0.574   2.821  1.7268  0.9908 -0.7858
11872TIP3   OH257106   3.916   5.927  13.698 -0.0255 -0.0469  0.1434
11872TIP3    H157107   3.944   5.946  13.787  0.4586  1.7897 -0.3595
11872TIP3    H257108   3.863   6.002  13.672  2.0130  0.7860 -1.9999
11873TIP3   OH257109   3.570   1.347   2.008  0.1599  0.2019 -0.2064
11873TIP3    H157110   3.583   1.282   1.939  0.0094 -1.3644  1.2066
11873TIP3    H257111   3.648   1.340   2.062 -0.9235 -0.5280  1.3157
11874TIP3   OH257112   5.293   3.095  15.056  0.5198 -0.6033 -0.2569
11874TIP3    H157113   5.266   3.084  15.148 -0.3711  1.5267 -0.2070
11874TIP3    H257114   5.239   3.167  15.024  0.8143 -1.3021 -2.4858
11875TIP3   OH257115   1.578   5.640  14.864  0.4185 -0.1388 -0.6728
11875TIP3    H157116   1.668   5.611  14.879 -0.0793 -1.2835  0.3027
11875TIP3    H257117   1.570   5.720  14.916  0.8370 -0.0899 -0.6793
11876TIP3   OH257118   6.692   3.686  13.748  0.4043 -0.3248 -0.2225
11876TIP3    H157119   6.728   3.641  13.672 -2.4587 -3.1996 -0.0882
11876TIP3    H257120   6.691   3.621  13.817  0.9790  1.6089  1.7351
11877TIP3   OH257121   5.980   2.772   3.739 -0.3491  0.1755  0.2119
11877TIP3    H157122   6.061   2.804   3.779  0.3672  0.9159 -1.6884
11877TIP3    H257123   5.923   2.849   3.734 -0.1223  0.3014 -0.8312
11878TIP3   OH257124   1.899   1.594   0.987  0.5437 -0.1587 -0.0578
11878TIP3    H157125   1.862   1.675   0.951  0.8799 -0.1066 -0.2957
11878TIP3    H257126   1.825   1.550   1.030  0.4687  0.5266  0.5314
11879TIP3   OH257127   3.491   2.394   2.374  0.4766  0.0229 -0.3008
11879TIP3    H157128   3.419   2.405   2.312  0.3651  0.9829 -0.0165
11879TIP3    H257129   3.514   2.483   2.400  0.5133 -0.3686  1.0542
11880TIP3   OH257130   5.682   6.001  17.049  0.9966 -0.4427 -0.1005
11880TIP3    H157131   5.621   6.073  17.035  0.1225 -1.3608 -1.1608
11880TIP3    H257132   5.718   6.017  17.136 -1.3808 -0.3340  0.9373
11881TIP3   OH257133   2.553   0.061  14.691  0.0652 -0.2530 -0.3376
11881TIP3    H157134   2.564  -0.004  14.760  1.2357 -0.3381 -0.5896
11881TIP3    H257135   2.603   0.137  14.720 -1.8852  0.8629  0.3066
11882TIP3   OH257136   2.119   0.461   2.082 -0.3314 -0.2506 -0.0862
11882TIP3    H157137   2.027   0.483   2.092 -0.4024 -0.7924  0.5365
11882TIP3    H257138   2.120   0.376   2.037 -0.1465 -0.3660  0.1298
11883TIP3   OH257139   2.005   6.463   1.312 -0.3488 -0.2757 -0.9361
11883TIP3    H157140   2.072   6.485   1.248 -0.3866 -0.2000 -0.9490
11883TIP3    H257141   2.041   6.387   1.359 -0.7593 -0.9886 -1.7363
11884TIP3   OH257142   1.568   2.202   5.249 -0.4991 -0.2171  0.7415
11884TIP3    H157143   1.496   2.143   5.224  0.0111 -0.8939  0.8391
11884TIP3    H257144   1.545   2.232   5.336 -1.0330  0.1569  0.4747
11885TIP3   OH257145   3.693   5.746  14.129  0.0420  0.2551  0.2612
11885TIP3    H157146   3.686   5.739  14.224 -0.7003 -0.8174  0.1442
11885TIP3    H257147   3.782   5.715  14.109 -0.4797 -1.4431  0.4562
11886TIP3   OH257148   6.308   2.926   3.135  0.1342 -0.0367 -0.1303
11886TIP3    H157149   6.222   2.966   3.122  0.1696 -0.0308 -0.3408
11886TIP3    H257150   6.364   2.968   3.071  0.4391  0.3887  0.4042
11887TIP3   OH257151   5.759   2.297   1.602 -0.0419 -0.5260  0.2830
11887TIP3    H157152   5.721   2.283   1.515 -1.1989  0.0487  0.6766
11887TIP3    H257153   5.825   2.365   1.589 -0.8916  0.2625  0.0196
11888TIP3   OH257154   0.910   0.139   1.465  0.0840  0.3935 -0.2458
11888TIP3    H157155   0.922   0.105   1.377 -0.2453 -0.3713 -0.0004
11888TIP3    H257156   0.885   0.231   1.452 -0.5613  0.1280 -0.9779
11889TIP3   OH257157   2.064   0.896   1.409  1.1761  0.2486 -0.1417
11889TIP3    H157158   2.145   0.948   1.412 -0.9547  3.9426 -0.0143
11889TIP3    H257159   2.065   0.846   1.490  2.7359  1.2405  0.5095
11890TIP3   OH257160   1.702   2.848  12.826  0.3386 -0.1634 -0.2345
11890TIP3    H157161   1.683   2.887  12.911  1.6524 -1.2426  0.6098
11890TIP3    H257162   1.629   2.789  12.809 -0.6498  1.1177 -0.5706
11891TIP3   OH257163   5.025   0.136   0.134 -0.4021  0.6871  0.1116
11891TIP3    H157164   4.995   0.221   0.103  0.1774  1.0257  0.4518
11891TIP3    H257165   4.994   0.131   0.224 -1.9791 -0.2417 -0.4462
11892TIP3   OH257166   4.939   0.301   5.431  0.3951 -0.2124  0.4569
11892TIP3    H157167   4.967   0.374   5.375  1.5227 -1.2895 -0.4450
11892TIP3    H257168   4.895   0.241   5.371  1.3300 -1.2308  0.7487
11893TIP3   OH257169   6.722   3.888   3.421  0.0456  0.7814 -0.1728
11893TIP3    H157170   6.776   3.817   3.454 -0.6921 -0.1089 -0.8210
11893TIP3    H257171   6.784   3.951   3.383  0.6330 -0.2716 -1.0000
11894TIP3   OH257172   5.008   1.492  17.273  0.4283 -0.3879  0.1262
11894TIP3    H157173   5.019   1.469  17.180  1.6906 -1.3502  0.4921
11894TIP3    H257174   5.027   1.411  17.320 -3.5599 -0.9120  1.1443
11895TIP3   OH257175   1.459   3.170  16.294 -0.1423  0.3140  0.2383
11895TIP3    H157176   1.520   3.147  16.364  0.3749  1.1041  0.0669
11895TIP3    H257177   1.422   3.254  16.322 -1.3147 -0.2454  0.4359
11896TIP3   OH257178   2.623   4.085   0.971 -0.2578 -0.6183  0.3201
11896TIP3    H157179   2.701   4.096   0.916 -0.4708  0.6567  0.2348
11896TIP3    H257180   2.635   4.149   1.041 -0.8210 -1.0286  0.7973
11897TIP3   OH257181   1.623   6.186   3.997 -0.1673 -0.0150  0.1197
11897TIP3    H157182   1.654   6.191   4.087  0.9579 -1.8480 -0.1145
11897TIP3    H257183   1.570   6.106   3.995  0.6320 -0.5447 -1.0489
11898TIP3   OH257184   5.652   5.461   1.254  0.0316 -0.0561  0.3591
11898TIP3    H157185   5.622   5.431   1.168  1.0334  1.3724 -0.5281
11898TIP3    H257186   5.677   5.381   1.300  0.2162 -0.7947 -0.9636
11899TIP3   OH257187   5.807   1.831  12.191  0.0700 -0.0667 -0.8738
11899TIP3    H157188   5.839   1.761  12.133 -1.6977 -0.6072 -1.2429
11899TIP3    H257189   5.712   1.826  12.185 -0.1268  1.1007  0.6488
11900TIP3   OH257190   6.762   4.196   5.586  0.2492 -0.0529  0.2850
11900TIP3    H157191   6.712   4.269   5.623  0.3485  0.8519 -1.2595
11900TIP3    H257192   6.842   4.237   5.553  1.5069 -1.2824  1.6250
11901TIP3   OH257193   2.374   4.845  14.518 -0.2889 -0.7432  0.2317
11901TIP3    H157194   2.433   4.892  14.576 -0.0080 -0.5242 -0.2316
11901TIP3    H257195   2.355   4.763  14.564  0.5140 -0.8922  0.2972
11902TIP3   OH257196   6.187   2.728  14.203  0.4247 -0.3450 -0.0134
11902TIP3    H157197   6.191   2.790  14.130 -0.0130  0.6570  0.7752
11902TIP3    H257198   6.263   2.749  14.257 -0.6155  0.7061  1.1373
11903TIP3   OH257199   4.909   3.029  17.137 -0.5581 -0.3678 -0.5556
11903TIP3    H157200   4.894   2.951  17.190  0.2244 -1.6563 -2.1462
11903TIP3    H257201   4.972   3.081  17.187 -0.6629 -1.0168  0.2561
11904TIP3   OH257202   1.857   4.339  12.877 -0.1035  0.2793  0.7201
11904TIP3    H157203   1.853   4.433  12.896 -0.6006 -0.1763  3.2479
11904TIP3    H257204   1.783   4.323  12.819 -1.1337  1.1753  1.7385
11905TIP3   OH257205   6.287   2.071   4.889  0.1653 -0.8930 -0.1091
11905TIP3    H157206   6.282   2.014   4.812 -2.0763  0.2050 -0.8547
11905TIP3    H257207   6.315   2.156   4.855 -1.2025 -0.2990  0.1884
11906TIP3   OH257208   5.541   0.087   2.167  0.0990  0.3564 -0.4023
11906TIP3    H157209   5.578   0.112   2.082  0.7776  0.1058 -0.1815
11906TIP3    H257210   5.590   0.010   2.194 -0.9962 -0.3588 -0.3846
11907TIP3   OH257211   4.790   4.208  13.044  0.1145 -0.2780  0.4183
11907TIP3    H157212   4.744   4.125  13.055  0.2627 -0.3027  0.8662
11907TIP3    H257213   4.764   4.261  13.119  0.2000 -0.0020  0.2566
11908TIP3   OH257214   2.913   1.710  14.447 -0.5221 -0.2515  0.4880
11908TIP3    H157215   2.886   1.774  14.513 -1.2683 -0.9403  0.8609
11908TIP3    H257216   2.990   1.750  14.405  0.0168  0.1660  1.8208
11909TIP3   OH257217   1.379   6.477  13.365  0.0876 -0.3298  0.0400
11909TIP3    H157218   1.370   6.551  13.305  0.6001 -0.9727 -0.8624
11909TIP3    H257219   1.454   6.498  13.420 -1.4644  1.1037  1.7505
11910TIP3   OH257220   6.448   2.780   5.914  0.0538  0.1348  0.3730
11910TIP3    H157221   6.419   2.715   5.850  1.2674  0.0471 -0.1233
11910TIP3    H257222   6.372   2.835   5.929 -0.7648 -0.9155  0.1951
11911TIP3   OH257223   2.914   6.436   2.933 -0.4355 -0.2611  0.2764
11911TIP3    H157224   2.851   6.506   2.951 -0.5250 -0.4101  0.5521
11911TIP3    H257225   2.862   6.368   2.890 -0.8364 -1.0807  1.9806
11912TIP3   OH257226   0.842   4.389  14.882 -0.5168 -0.5249 -0.4136
11912TIP3    H157227   0.854   4.295  14.872  1.6465 -0.1912 -1.4449
11912TIP3    H257228   0.810   4.418  14.797 -0.9640 -0.2737 -0.1672
11913TIP3   OH257229   1.336   4.028   5.932 -0.5282 -0.1112 -0.2023
11913TIP3    H157230   1.423   4.032   5.894 -0.6955 -0.4545 -0.6343
11913TIP3    H257231   1.306   3.939   5.914 -1.3940  0.3322 -1.0430
11914TIP3   OH257232   0.029   0.997   1.058 -0.2115  0.5892  0.0263
11914TIP3    H157233  -0.039   0.958   1.004 -0.0232  1.8024 -1.1604
11914TIP3    H257234   0.012   0.964   1.146 -2.6316  1.2190 -0.1255
11915TIP3   OH257235   2.307   5.203   5.814  0.3280  0.0988  0.7294
11915TIP3    H157236   2.225   5.204   5.864 -0.2172 -0.7868 -0.1290
11915TIP3    H257237   2.373   5.231   5.877 -0.7580  1.8094  1.1832
11916TIP3   OH257238   1.590   3.472   5.545 -0.5303 -0.5151 -0.0967
11916TIP3    H157239   1.529   3.400   5.558 -0.4506 -0.9062 -1.7538
11916TIP3    H257240   1.651   3.441   5.478 -0.1038  0.8574 -0.3803
11917TIP3   OH257241   2.308   4.663   0.960 -0.2391  0.2451  0.0879
11917TIP3    H157242   2.403   4.653   0.967 -0.3724 -0.9810  0.3596
11917TIP3    H257243   2.294   4.688   0.869  0.3007 -0.3782 -0.1827
11918TIP3   OH257244   1.320   4.797   3.846 -0.1796  0.0666  0.3070
11918TIP3    H157245   1.348   4.718   3.801 -0.5309 -0.5822  1.1934
11918TIP3    H257246   1.269   4.845   3.780  1.2042  0.2500 -0.6592
11919TIP3   OH257247   0.294   1.387   5.625  0.2019 -0.0112 -0.0846
11919TIP3    H157248   0.227   1.426   5.568  1.7400 -0.1097 -2.0404
11919TIP3    H257249   0.312   1.455   5.690  0.5859  1.3480 -1.5531
11920TIP3   OH257250   4.567   2.174  13.505 -0.2056 -0.3508  0.1613
11920TIP3    H157251   4.568   2.092  13.456  2.5028 -0.4176  0.1650
11920TIP3    H257252   4.609   2.152  13.588 -0.0872  0.8874  0.4448
11921TIP3   OH257253   0.674   4.024  12.683  0.3174  0.5328  0.5483
11921TIP3    H157254   0.693   3.948  12.628  0.3415  0.3652  0.7888
11921TIP3    H257255   0.737   4.090  12.655  0.3700  0.4276  0.4156
11922TIP3   OH257256   2.688   3.276   0.075 -0.0188 -0.1713  0.3500
11922TIP3    H157257   2.652   3.335   0.009  0.7741  0.4661  0.4652
11922TIP3    H257258   2.611   3.235   0.115 -0.5091 -0.5880 -0.9618
11923TIP3   OH257259   4.553   5.954   4.577  0.4144 -0.1001 -0.5236
11923TIP3    H157260   4.501   6.014   4.524  0.8015 -1.0819 -2.0810
11923TIP3    H257261   4.584   6.007   4.651 -1.4490  0.8976 -0.4025
11924TIP3   OH257262   2.859   1.334  12.057 -0.2183 -0.7225  0.8342
11924TIP3    H157263   2.776   1.295  12.031 -0.7064  1.0666 -0.5374
11924TIP3    H257264   2.902   1.356  11.974  0.8119 -0.0080  1.5211
11925TIP3   OH257265   1.328   1.182  13.250 -0.0301 -0.0293 -0.5445
11925TIP3    H157266   1.308   1.272  13.225  0.8438  0.1359 -0.6490
11925TIP3    H257267   1.346   1.187  13.344 -1.9571 -0.4336 -0.0925
11926TIP3   OH257268   4.329   3.235  16.336 -0.0577 -0.1975 -0.7728
11926TIP3    H157269   4.239   3.229  16.370  0.6644 -0.3879  1.2368
11926TIP3    H257270   4.341   3.154  16.286 -0.1920 -1.4407  1.1242
11927TIP3   OH257271   3.935   0.266   0.677 -0.3251  0.1297  0.1385
11927TIP3    H157272   3.988   0.346   0.684  0.1445 -0.2573  1.1874
11927TIP3    H257273   3.865   0.289   0.616 -0.1599  1.3293  0.3760
11928TIP3   OH257274   3.738   0.453   3.636  0.0047  0.1751 -0.0013
11928TIP3    H157275   3.695   0.530   3.601  0.4835 -0.4234 -2.0522
11928TIP3    H257276   3.667   0.391   3.652 -0.1421  0.0191 -1.1658
11929TIP3   OH257277   5.642   2.300   2.806  0.0615  0.3547 -0.0147
11929TIP3    H157278   5.562   2.301   2.754 -1.0131  0.0350  1.5647
11929TIP3    H257279   5.682   2.215   2.788 -0.7427 -0.1016  0.3199
11930TIP3   OH257280   4.571   3.648  16.305  0.9328 -0.2731  0.0836
11930TIP3    H157281   4.481   3.664  16.277 -0.4611 -1.1803  3.5255
11930TIP3    H257282   4.574   3.554  16.323  2.9621 -0.4713 -0.9722
11931TIP3   OH257283   3.055   0.167   3.707 -0.3488 -0.2363  0.2534
11931TIP3    H157284   3.046   0.072   3.705  0.2494 -0.3969  2.6740
11931TIP3    H257285   3.141   0.183   3.669 -0.3681 -0.6731  0.0170
11932TIP3   OH257286   2.022   0.839   1.058 -0.0943 -0.2385  0.1620
11932TIP3    H157287   2.065   0.921   1.032  0.1651  0.4873  2.6286
11932TIP3    H257288   2.085   0.794   1.113 -0.9876 -1.1476  0.4806
11933TIP3   OH257289   1.545   5.437  11.883  0.1211  0.5404 -0.4460
11933TIP3    H157290   1.562   5.478  11.968  1.0457  0.0515 -0.3803
11933TIP3    H257291   1.453   5.412  11.887 -0.0294  1.1547  0.1364
11934TIP3   OH257292   4.688   0.261   6.101 -0.6108  0.0598 -0.5210
11934TIP3    H157293   4.657   0.181   6.143 -1.1809  0.5049 -0.0805
11934TIP3    H257294   4.782   0.249   6.094 -0.6474 -0.5038 -0.1424
11935TIP3   OH257295   5.186   6.248  11.824 -0.8119  0.0200 -0.2604
11935TIP3    H157296   5.147   6.180  11.879  0.5374 -0.7911 -0.2521
11935TIP3    H257297   5.280   6.240  11.839 -0.5908  1.6275 -0.5875
11936TIP3   OH257298   0.494   3.481  17.204  0.0385  0.4769 -0.1140
11936TIP3    H157299   0.450   3.509  17.124 -0.2852 -0.2415 -0.1914
11936TIP3    H257300   0.583   3.459  17.176 -0.6977 -1.9751 -0.7373
11937TIP3   OH257301   2.355   1.099   4.614 -0.0481 -0.2963  0.0153
11937TIP3    H157302   2.326   1.175   4.564  1.1871 -0.3311 -0.8013
11937TIP3    H257303   2.317   1.111   4.701 -0.2011  1.0393 -0.2171
11938TIP3   OH257304   1.123   5.251   2.460 -0.0516  0.0353  0.6462
11938TIP3    H157305   1.186   5.322   2.464 -1.2433  1.1806 -0.0555
11938TIP3    H257306   1.137   5.202   2.541  2.1089 -0.1285  0.2426
11939TIP3   OH257307   1.526   4.297   4.446 -0.1206  0.1968 -0.2287
11939TIP3    H157308   1.569   4.383   4.451  1.1001 -0.3494 -0.7824
11939TIP3    H257309   1.444   4.308   4.493  1.3074  0.8869  2.2525
11940TIP3   OH257310   5.819   2.552  15.650  0.2583  0.0678 -0.4495
11940TIP3    H157311   5.892   2.489  15.646  0.7410  0.6540 -1.1555
11940TIP3    H257312   5.837   2.613  15.579  1.3753  2.6961  1.9226
11941TIP3   OH257313   1.052   0.525   1.429  0.2821 -0.5276  0.2120
11941TIP3    H157314   1.074   0.602   1.376  1.7236  0.5318  2.2362
11941TIP3    H257315   1.129   0.469   1.423  0.2930 -0.5840  0.8490
11942TIP3   OH257316   1.652   2.548  16.075 -0.0944  1.0539  0.2296
11942TIP3    H157317   1.577   2.488  16.069  1.9151 -1.5278 -1.5224
11942TIP3    H257318   1.714   2.503  16.133  0.3499  2.9082  1.2658
11943TIP3   OH257319   5.241   0.353  16.069 -0.2615  0.0065 -0.6509
11943TIP3    H157320   5.162   0.327  16.021 -0.3484  2.6249 -2.1439
11943TIP3    H257321   5.209   0.409  16.140  0.1823  0.1320 -0.5459
11944TIP3   OH257322   5.346   5.763   4.204 -0.1511  0.4862 -0.4170
11944TIP3    H157323   5.415   5.723   4.150  1.6264 -0.3240  2.2347
11944TIP3    H257324   5.274   5.700   4.201  1.4624 -1.5942  1.2587
11945TIP3   OH257325   0.059   6.445  13.982  0.3447  1.2172 -0.1534
11945TIP3    H157326   0.021   6.453  14.069  1.0114  0.9111  0.1674
11945TIP3    H257327  -0.012   6.409  13.928  1.1664 -3.0654  1.2314
11946TIP3   OH257328   5.969   3.028   6.094 -0.0391 -0.1038 -0.3083
11946TIP3    H157329   5.991   3.118   6.069 -0.1897  0.0359  0.0533
11946TIP3    H257330   6.032   3.007   6.163  0.6996 -0.6665 -1.1456
11947TIP3   OH257331   2.186   2.018   1.269  0.7933 -0.2561 -0.1659
11947TIP3    H157332   2.139   2.058   1.342  2.3908  0.7114  0.3929
11947TIP3    H257333   2.198   1.927   1.296 -2.2120 -1.0265 -1.1119
11948TIP3   OH257334   2.869   2.093  16.093 -0.0257 -0.1703 -0.5147
11948TIP3    H157335   2.964   2.097  16.086 -0.1915  0.8654 -3.1491
11948TIP3    H257336   2.850   2.002  16.117  1.5802 -0.7174 -1.1941
11949TIP3   OH257337   1.279   2.268   6.581 -0.4325 -0.2312  0.7505
11949TIP3    H157338   1.231   2.291   6.501  1.6023  1.9008  0.0176
11949TIP3    H257339   1.260   2.339   6.642  1.8515  0.8219  0.3456
11950TIP3   OH257340   2.796   5.283  16.265 -0.7170 -0.0836  0.4570
11950TIP3    H157341   2.863   5.267  16.199 -1.7589 -2.8495 -0.0706
11950TIP3    H257342   2.836   5.253  16.347 -0.2592  1.1254  0.6843
11951TIP3   OH257343   6.761   0.783   1.235  0.5030 -0.1189  0.2805
11951TIP3    H157344   6.709   0.738   1.168  0.1633 -0.2706  0.6473
11951TIP3    H257345   6.699   0.801   1.305  1.2352 -1.5532  1.3388
11952TIP3   OH257346   4.558   4.711   5.429  0.2650  0.3280 -0.2532
11952TIP3    H157347   4.583   4.769   5.501  0.3064  2.1355 -1.6576
11952TIP3    H257348   4.639   4.663   5.408  0.1637 -0.4777  1.0880
11953TIP3   OH257349   1.726   3.625   4.509  0.0086  0.1876 -0.1007
11953TIP3    H157350   1.788   3.556   4.533  0.7851  0.8895 -0.0191
11953TIP3    H257351   1.724   3.623   4.413  0.8434  0.7268 -0.1423
11954TIP3   OH257352   1.516   1.473  10.975  0.7850  0.1211 -0.1428
11954TIP3    H157353   1.572   1.396  10.966  0.4013 -0.2405  0.4811
11954TIP3    H257354   1.430   1.437  10.999  0.2570  0.6539 -1.1745
11955TIP3   OH257355   2.929   6.048  14.683  0.0769 -0.4762 -1.0225
11955TIP3    H157356   2.875   6.127  14.688  0.4062 -0.2993 -0.1480
11955TIP3    H257357   2.871   5.978  14.712  0.5143 -0.1669  0.7740
11956TIP3   OH257358   0.777   5.120  16.315 -0.4066 -0.1647 -0.1422
11956TIP3    H157359   0.842   5.156  16.256 -1.8182  0.6772 -1.2478
11956TIP3    H257360   0.763   5.030  16.283 -1.2584  0.3272 -1.2181
11957TIP3   OH257361   4.004   0.652   2.676 -0.0348 -0.4485  0.0787
11957TIP3    H157362   3.926   0.678   2.627  1.7763  0.8213 -2.3123
11957TIP3    H257363   4.062   0.727   2.671  2.0790 -1.9723  0.1946
11958TIP3   OH257364   1.630   0.420  14.350  0.4832  0.0002 -0.3028
11958TIP3    H157365   1.563   0.432  14.282  2.4856 -0.0241 -2.3907
11958TIP3    H257366   1.627   0.500  14.401 -2.2414 -0.6767  0.7769
11959TIP3   OH257367   0.087   6.181  16.151  0.8378 -0.1138  0.0120
11959TIP3    H157368   0.080   6.100  16.100 -1.0914 -0.0251  0.0341
11959TIP3    H257369   0.115   6.247  16.089 -1.0968 -0.0863 -0.9129
11960TIP3   OH257370   2.758   0.223   1.726 -0.0869 -0.5501 -0.4586
11960TIP3    H157371   2.733   0.256   1.813 -1.4971  1.5035 -1.5566
11960TIP3    H257372   2.674   0.210   1.681  0.5644 -2.8229 -1.1493
11961TIP3   OH257373   3.111   2.460  15.429 -0.4670 -0.3054  0.3021
11961TIP3    H157374   3.175   2.395  15.459  0.7766  1.1705  1.0056
11961TIP3    H257375   3.164   2.528  15.387 -1.7635  0.0905 -0.7513
11962TIP3   OH257376   2.979   3.918   4.503 -0.5837 -0.1935 -0.3854
11962TIP3    H157377   2.967   3.901   4.596 -1.5494  2.0674 -0.0176
11962TIP3    H257378   2.949   4.009   4.491 -0.4007 -0.3801 -2.8792
11963TIP3   OH257379   3.484   0.919  15.680 -0.1788 -0.6536  0.2507
11963TIP3    H157380   3.448   0.973  15.609 -1.8922  0.6532  2.0112
11963TIP3    H257381   3.411   0.864  15.708  0.7518 -1.8370  0.4189
11964TIP3   OH257382   4.294   6.369  12.980  0.4155  0.1953 -0.0037
11964TIP3    H157383   4.364   6.409  12.928  0.9434  0.0264  0.5607
11964TIP3    H257384   4.306   6.275  12.969  0.7821  0.1511  0.7423
11965TIP3   OH257385   1.021   2.630   2.107  0.6815  0.3333  0.7993
11965TIP3    H157386   0.941   2.677   2.129  0.5915  1.0365 -0.9451
11965TIP3    H257387   1.058   2.606   2.192 -1.6618 -0.5571  1.6651
11966TIP3   OH257388   4.195   5.040  16.781  0.0642  0.5075 -0.3164
11966TIP3    H157389   4.188   4.997  16.866  1.6834 -0.3326 -0.5722
11966TIP3    H257390   4.198   5.133  16.801  1.3160  0.2805  0.6238
11967TIP3   OH257391   0.374   5.816   4.076  0.2095 -0.2816 -0.0043
11967TIP3    H157392   0.282   5.790   4.067  1.0378 -3.4307 -0.5252
11967TIP3    H257393   0.375   5.873   4.152 -2.0952 -0.6399  0.3786
11968TIP3   OH257394   0.651   4.075   2.860 -0.5911  0.9573 -0.3405
11968TIP3    H157395   0.571   4.045   2.903 -0.9157  0.1316 -1.4810
11968TIP3    H257396   0.680   4.149   2.913 -2.1511  1.3248  0.0454
11969TIP3   OH257397   0.067   0.125  16.076  0.2915  0.1350 -0.1780
11969TIP3    H157398   0.030   0.183  16.143  0.7937  0.1547  0.0907
11969TIP3    H257399   0.160   0.120  16.098  0.2197 -0.9645 -0.0526
11970TIP3   OH257400   6.529   1.837   0.449 -0.1013 -0.2958 -0.1019
11970TIP3    H157401   6.524   1.892   0.371  0.2820 -0.7873 -0.4812
11970TIP3    H257402   6.601   1.776   0.430 -1.5236 -1.9566 -0.3619
11971TIP3   OH257403   5.504   2.742   0.928  0.2490  0.0350  0.5164
11971TIP3    H157404   5.576   2.686   0.959  0.0682 -1.4362 -1.5343
11971TIP3    H257405   5.446   2.682   0.882 -2.0752  1.2889  1.6647
11972TIP3   OH257406   5.542   5.323  14.426  1.0190  0.8181 -0.2943
11972TIP3    H157407   5.626   5.292  14.460  0.5713  0.4545  0.5064
11972TIP3    H257408   5.565   5.385  14.357  1.9570 -0.6255 -1.3289
11973TIP3   OH257409   2.413   6.377  16.895 -0.0962  0.4121 -0.4590
11973TIP3    H157410   2.471   6.412  16.828 -0.3464  0.4024 -0.6832
11973TIP3    H257411   2.423   6.282  16.889  2.7421  0.4218  2.0515
11974TIP3   OH257412   6.817   3.374   0.706 -0.5088 -0.3419 -0.4570
11974TIP3    H157413   6.777   3.358   0.792 -1.2956  1.7803 -0.3646
11974TIP3    H257414   6.754   3.338   0.644 -0.7409 -0.4281 -0.1778
11975TIP3   OH257415   2.813   4.990   0.938 -0.3734  0.0324 -0.2281
11975TIP3    H157416   2.724   4.956   0.924 -0.8141  0.8513  0.4572
11975TIP3    H257417   2.829   5.046   0.862  0.2142 -1.3709 -1.1764
11976TIP3   OH257418   0.332   1.352  10.715 -0.0855  0.2125  0.0941
11976TIP3    H157419   0.320   1.426  10.774 -2.4066 -0.1241  0.1376
11976TIP3    H257420   0.286   1.377  10.635  2.6798  0.4928 -1.5152
11977TIP3   OH257421   4.334   3.353   5.497 -0.3185 -0.3499 -0.1850
11977TIP3    H157422   4.323   3.371   5.590 -1.8114 -0.6140 -0.2899
11977TIP3    H257423   4.354   3.438   5.458 -0.9321 -0.0186  0.2079
11978TIP3   OH257424   2.855   6.464  13.450 -0.5796  0.3180 -0.4453
11978TIP3    H157425   2.788   6.531  13.438 -0.4377  0.8172  1.2480
11978TIP3    H257426   2.806   6.385  13.473 -0.7449 -0.2104 -2.4107
11979TIP3   OH257427   2.702   4.212   4.724  0.1883 -0.0058 -0.4563
11979TIP3    H157428   2.782   4.201   4.774  0.5322 -1.3852 -1.2640
11979TIP3    H257429   2.657   4.286   4.765  1.6881  0.5405  0.2354
11980TIP3   OH257430   5.331   5.920  16.782 -0.1113 -0.1684 -0.4591
11980TIP3    H157431   5.357   6.004  16.743  0.9489 -0.8118 -1.2223
11980TIP3    H257432   5.402   5.860  16.757 -0.7155 -1.2258  0.2978
11981TIP3   OH257433   1.345   5.298   0.932  0.4159  0.2464  0.3388
11981TIP3    H157434   1.258   5.336   0.946 -0.1416 -0.9707  0.2803
11981TIP3    H257435   1.378   5.281   1.020 -0.4117 -1.4632  0.3580
11982TIP3   OH257436   1.806   0.062   4.868 -0.1484  0.4535  0.0509
11982TIP3    H157437   1.846   0.003   4.932 -2.8363  0.8513  2.2689
11982TIP3    H257438   1.775   0.004   4.799  2.6493 -0.0029 -0.9678
11983TIP3   OH257439   6.172   5.304  14.106  0.3327  0.1916  0.1411
11983TIP3    H157440   6.149   5.397  14.106  0.9085  0.4371 -3.2330
11983TIP3    H257441   6.263   5.302  14.137  0.0831  0.6415  0.9333
11984TIP3   OH257442   4.929   0.279   4.836 -0.2490 -0.0781 -0.1432
11984TIP3    H157443   5.020   0.264   4.811  0.2773 -0.6120  1.9278
11984TIP3    H257444   4.898   0.345   4.774  1.7072  0.5125 -0.5655
11985TIP3   OH257445   2.933   4.794  12.127  0.4186 -0.4837  0.1665
11985TIP3    H157446   2.982   4.779  12.208 -0.9371 -0.7291  0.9725
11985TIP3    H257447   2.999   4.785  12.058  1.4465 -1.1006  1.1797
11986TIP3   OH257448   5.898   2.738   6.004 -0.2587 -0.0196 -0.2654
11986TIP3    H157449   5.909   2.820   6.051  1.7635  0.1124 -0.8709
11986TIP3    H257450   5.804   2.723   6.003 -0.5238  1.1944  1.6909
11987TIP3   OH257451   6.552   3.824  15.735  0.0122 -0.0496 -0.1432
11987TIP3    H157452   6.636   3.801  15.695  0.8886 -0.7738  1.9411
11987TIP3    H257453   6.576   3.889  15.802 -0.7900 -1.4216  1.5622
11988TIP3   OH257454   2.665   3.285  13.439 -0.0157 -0.1531  0.2431
11988TIP3    H157455   2.618   3.281  13.522 -0.8270  2.3636 -0.0060
11988TIP3    H257456   2.755   3.309  13.463 -0.1590  0.2116  0.4112
11989TIP3   OH257457   0.883   3.912  16.373  0.5978  0.4094 -0.1323
11989TIP3    H157458   0.808   3.921  16.313 -0.2487 -0.7313  0.7297
11989TIP3    H257459   0.916   3.824  16.358  0.4269  0.1363  1.0216
11990TIP3   OH257460   5.866   2.413   5.241 -0.3972  0.0358 -0.5826
11990TIP3    H157461   5.909   2.497   5.222 -0.0278  0.2463  1.0575
11990TIP3    H257462   5.772   2.435   5.245 -0.2511  0.5260  0.5062
11991TIP3   OH257463   1.727   4.553   0.693 -0.3128 -0.3252  0.1767
11991TIP3    H157464   1.687   4.469   0.716 -2.4772  0.4070 -0.6746
11991TIP3    H257465   1.753   4.591   0.777 -2.0498 -0.5686  0.8731
11992TIP3   OH257466   5.484   5.085  15.955 -0.6868  0.0172  0.0814
11992TIP3    H157467   5.462   5.031  15.879 -2.5825  0.8045 -0.0161
11992TIP3    H257468   5.565   5.049  15.988 -0.4421 -1.1198 -1.6063
11993TIP3   OH257469   0.736   2.932  12.559  0.2871 -0.4387 -0.3120
11993TIP3    H157470   0.661   2.932  12.618 -0.0467 -0.4298 -0.7323
11993TIP3    H257471   0.699   2.907  12.474  0.6845 -0.0017 -0.6170
11994TIP3   OH257472   1.750   5.538   6.413 -0.3844  0.2330  0.5062
11994TIP3    H157473   1.721   5.628   6.399 -0.7876 -0.0473 -0.5286
11994TIP3    H257474   1.844   5.547   6.431 -0.2792  0.8194 -0.2363
11995TIP3   OH257475   6.072   0.986   4.761  0.1130  0.5425 -0.6711
11995TIP3    H157476   6.140   0.970   4.696  0.3902  0.2856 -0.3187
11995TIP3    H257477   6.089   0.922   4.830  0.3059  1.3632  0.0469
11996TIP3   OH257478   6.481   2.859   4.455 -0.0133 -0.7512  0.3298
11996TIP3    H157479   6.389   2.835   4.463  0.1436 -1.1765  0.9349
11996TIP3    H257480   6.505   2.834   4.366 -1.0325  1.3301 -0.5700
11997TIP3   OH257481   0.811   0.343   4.953  0.3482 -0.1848 -0.1036
11997TIP3    H157482   0.745   0.403   4.987  1.3659  1.1163 -0.3471
11997TIP3    H257483   0.765   0.259   4.945 -1.1376  0.5693  0.1550
11998TIP3   OH257484   2.865   5.180  13.173 -0.0281  0.3606 -0.1521
11998TIP3    H157485   2.894   5.255  13.224  0.8710  0.2879 -0.5379
11998TIP3    H257486   2.803   5.135  13.231  0.8832  0.3342  0.8517
11999TIP3   OH257487   5.202   2.210  16.048 -0.2975 -0.5251  0.0311
11999TIP3    H157488   5.199   2.252  15.962 -1.2970 -1.6231 -0.4977
11999TIP3    H257489   5.230   2.279  16.107 -2.8489  1.2187 -0.6148
12000TIP3   OH257490   3.099   6.748  15.276 -0.2812 -0.7572 -0.0111
12000TIP3    H157491   3.193   6.757  15.292 -0.6472  0.8335  1.6376
12000TIP3    H257492   3.091   6.673  15.218  2.0434 -0.6000 -0.6225
12001TIP3   OH257493   6.499   0.953   2.311 -0.4592 -0.4053 -0.5651
12001TIP3    H157494   6.559   0.989   2.376 -1.7938  1.1977 -0.1595
12001TIP3    H257495   6.441   0.895   2.361  0.2932 -1.4510 -0.8536
12002TIP3   OH257496   2.616   4.869   2.440 -0.2005 -0.1232 -0.2612
12002TIP3    H157497   2.606   4.950   2.389  1.3589 -0.0033 -0.4154
12002TIP3    H257498   2.617   4.899   2.531  1.5308  0.2014 -0.3546
12003TIP3   OH257499   0.579   4.372  15.263 -0.4275  0.2980 -0.0277
12003TIP3    H157500   0.553   4.434  15.331  1.4324 -0.4379  1.4159
12003TIP3    H257501   0.566   4.421  15.181  0.8521  2.5872  1.0407
12004TIP3   OH257502   4.770   0.038   5.748  0.1844  0.6257  0.0453
12004TIP3    H157503   4.741  -0.052   5.733 -0.0551  0.0559  3.1154
12004TIP3    H257504   4.690   0.090   5.747 -0.0257  0.3342  0.8552
12005TIP3   OH257505   2.687   5.252   2.017  0.1810  0.4986 -0.6349
12005TIP3    H157506   2.744   5.328   2.025  0.3465  0.3177 -0.0663
12005TIP3    H257507   2.600   5.288   2.005  0.1545  0.7945  0.3390
12006TIP3   OH257508   6.405   4.113  16.559  0.0248 -0.1464  0.1064
12006TIP3    H157509   6.337   4.107  16.626  0.0745 -1.5952  0.0561
12006TIP3    H257510   6.485   4.131  16.608 -0.3289  1.3888  0.1822
12007TIP3   OH257511   6.722   1.276   2.784 -0.0537 -0.1909  0.0203
12007TIP3    H157512   6.632   1.246   2.780  0.2827 -1.1940 -0.1989
12007TIP3    H257513   6.752   1.252   2.872  0.0253  0.0702  0.0657
12008TIP3   OH257514   0.722   4.844  16.250  0.3406 -0.1091  0.0594
12008TIP3    H157515   0.674   4.860  16.168 -0.6382 -0.7805  0.4733
12008TIP3    H257516   0.705   4.752  16.269  0.8404 -0.0422  0.8397
12009TIP3   OH257517   2.405   1.379  16.025  0.7245 -0.0571  0.2692
12009TIP3    H157518   2.471   1.425  15.973  0.1027  0.1725 -0.3366
12009TIP3    H257519   2.408   1.289  15.992 -1.9198  0.7294 -2.5986
12010TIP3   OH257520   4.235   3.215   3.993 -0.0093 -0.0671 -0.1850
12010TIP3    H157521   4.262   3.185   4.079  0.5943  1.6332  0.2559
12010TIP3    H257522   4.291   3.290   3.974  0.2940 -0.7675 -2.3468
12011TIP3   OH257523   4.628   0.002   3.343 -0.7173  0.4729 -0.2457
12011TIP3    H157524   4.561  -0.063   3.320  0.2813 -0.5448 -0.3373
12011TIP3    H257525   4.648  -0.017   3.435  1.0895 -0.7514 -0.8598
12012TIP3   OH257526   6.714   4.463   5.694 -0.0964  0.5840  0.0829
12012TIP3    H157527   6.627   4.496   5.717  0.5588  1.8603  0.8884
12012TIP3    H257528   6.732   4.501   5.608  0.0080  1.0341  0.3004
12013TIP3   OH257529   0.278   3.313   4.834 -0.8258  0.3415  0.3045
12013TIP3    H157530   0.366   3.338   4.862 -0.6251  0.0810 -0.0867
12013TIP3    H257531   0.223   3.386   4.860 -0.7029 -0.0112  1.6788
12014TIP3   OH257532   1.331   1.594  14.037  0.1848 -0.0301  0.3383
12014TIP3    H157533   1.267   1.636  13.980 -0.9652 -0.0446  1.5881
12014TIP3    H257534   1.302   1.504  14.044  0.8793 -0.2737  0.1813
12015TIP3   OH257535   6.252   3.773   0.903  0.0118 -0.2007  0.0714
12015TIP3    H157536   6.188   3.736   0.963  0.5988  1.7345  1.9989
12015TIP3    H257537   6.235   3.867   0.905  1.5937  0.1441 -0.9639
12016TIP3   OH257538   3.204   4.735   1.913 -0.1717  0.9115  0.3552
12016TIP3    H157539   3.278   4.674   1.917 -0.0440  0.6367 -2.9785
12016TIP3    H257540   3.140   4.699   1.974  1.4872 -0.2261  1.5045
12017TIP3   OH257541   2.478   5.299  12.103 -0.1770 -0.3775 -0.7252
12017TIP3    H157542   2.521   5.276  12.186 -0.1262 -3.3387 -1.4788
12017TIP3    H257543   2.551   5.324  12.045  0.0754 -0.9238 -0.6506
12018TIP3   OH257544   4.181   6.377   2.331  0.0168  0.3758 -0.2187
12018TIP3    H157545   4.105   6.420   2.293 -1.8752 -0.8045  1.9413
12018TIP3    H257546   4.215   6.440   2.394  0.7683  0.8385 -1.0664
12019TIP3   OH257547   4.400   6.033  12.056 -0.0039  0.1653  0.5809
12019TIP3    H157548   4.354   5.994  12.130 -0.1616 -0.4916  0.1452
12019TIP3    H257549   4.485   6.059  12.092  0.2127 -0.8331  0.8302
12020TIP3   OH257550   4.225   4.591  13.314 -0.2043  0.5705  0.5279
12020TIP3    H157551   4.232   4.654  13.242 -1.6831 -0.1924 -0.3392
12020TIP3    H257552   4.288   4.522  13.292 -1.7586 -0.4631 -0.9620
12021TIP3   OH257553   5.761   5.860  13.757  0.3317  0.1741 -0.4811
12021TIP3    H157554   5.766   5.792  13.824 -1.7721  1.0285  0.6423
12021TIP3    H257555   5.834   5.841  13.698 -0.4259 -3.3879 -0.5345
12022TIP3   OH257556   1.304   0.433  12.450  0.0797  0.2480  0.5995
12022TIP3    H157557   1.313   0.349  12.405 -0.8049  1.4441 -2.0545
12022TIP3    H257558   1.209   0.444  12.461  0.2309  0.5052  1.8086
12023TIP3   OH257559   6.194   3.171  13.900  0.0718 -0.2346 -1.0420
12023TIP3    H157560   6.259   3.211  13.958 -1.5938 -1.0943  1.5694
12023TIP3    H257561   6.220   3.200  13.812  1.2678  3.2613  0.2898
12024TIP3   OH257562   0.811   1.673  13.543 -0.5305 -0.0430 -0.2660
12024TIP3    H157563   0.825   1.755  13.496  1.3107 -1.4192 -2.3424
12024TIP3    H257564   0.737   1.632  13.498 -0.7846  0.0236  0.0906
12025TIP3   OH257565   3.779   5.642   0.216 -0.2210 -0.2205 -0.2271
12025TIP3    H157566   3.709   5.656   0.279 -0.4647  2.3163 -0.9397
12025TIP3    H257567   3.806   5.730   0.190  0.8327 -1.1473 -2.5913
12026TIP3   OH257568   4.489   4.554  14.162 -0.2825  0.5848  0.8959
12026TIP3    H157569   4.430   4.489  14.125 -2.2005  2.3039  0.7789
12026TIP3    H257570   4.560   4.560  14.098  0.1605 -1.6027  1.1005
12027TIP3   OH257571   2.296   5.318   2.500  0.0014  0.5964 -0.2931
12027TIP3    H157572   2.380   5.361   2.511 -0.0424  0.1619  2.5440
12027TIP3    H257573   2.317   5.224   2.500 -0.3459  0.5122 -1.2513
12028TIP3   OH257574   1.568   1.221  15.887 -0.1250  0.1498  0.5706
12028TIP3    H157575   1.649   1.231  15.937  0.8623 -1.7927 -0.5037
12028TIP3    H257576   1.542   1.311  15.865  1.1811  0.8601  1.7770
12029TIP3   OH257577   3.558   1.197   2.790  0.0402  0.4949  0.1263
12029TIP3    H157578   3.593   1.108   2.792  0.6703  0.7136 -0.5627
12029TIP3    H257579   3.486   1.193   2.727 -1.3517  0.0085  1.6601
12030TIP3   OH257580   5.551   3.715  15.375 -0.1214  0.0628 -0.3446
12030TIP3    H157581   5.458   3.736  15.359 -0.2188 -0.0907  0.0118
12030TIP3    H257582   5.598   3.788  15.336 -0.3533 -0.2848 -1.2924
12031TIP3   OH257583   3.623   3.479  16.831 -0.3791 -0.6732 -0.0451
12031TIP3    H157584   3.705   3.455  16.875  0.5290  0.2390 -1.1785
12031TIP3    H257585   3.579   3.537  16.893  0.6601  0.2174 -0.1154
12032TIP3   OH257586   3.085   1.270  16.398  0.1134  0.1936 -0.5663
12032TIP3    H157587   3.145   1.223  16.455  1.1491  1.2725 -0.7164
12032TIP3    H257588   3.074   1.212  16.322 -0.2393 -0.6730  0.1338
12033TIP3   OH257589   2.857   5.466   4.014  0.0767 -0.2855 -0.0291
12033TIP3    H157590   2.820   5.399   3.955 -1.0732 -0.2105  0.5750
12033TIP3    H257591   2.821   5.549   3.982  0.7690 -0.0478 -0.2147
12034TIP3   OH257592   0.075   0.755   5.780  0.9922 -0.0546  0.5013
12034TIP3    H157593   0.051   0.835   5.733  0.6169  0.2176  1.1361
12034TIP3    H257594   0.163   0.772   5.813  0.8902  0.1326  0.6862
12035TIP3   OH257595   3.481   3.651  12.564  0.0702 -0.0535 -0.2368
12035TIP3    H157596   3.418   3.703  12.513  0.1222  0.5109  0.2668
12035TIP3    H257597   3.540   3.716  12.601 -0.5057 -0.3745  1.2915
12036TIP3   OH257598   1.100   5.184   1.288  0.6442 -0.4490  0.6596
12036TIP3    H157599   1.122   5.170   1.196 -1.1925  0.7870 -0.0341
12036TIP3    H257600   1.120   5.276   1.304 -0.5357 -0.2322  1.0055
12037TIP3   OH257601   5.196   0.224  10.991 -0.0018  1.0857 -0.1842
12037TIP3    H157602   5.269   0.263  10.942  1.0191 -0.9328 -0.3835
12037TIP3    H257603   5.149   0.173  10.927  1.0518 -1.1883  0.7430
12038TIP3   OH257604   6.623   0.329   2.360  0.0154  0.2197 -0.8609
12038TIP3    H157605   6.697   0.306   2.304 -0.7774 -2.5464 -0.9123
12038TIP3    H257606   6.547   0.291   2.317 -1.1456  1.0790  0.3304
12039TIP3   OH257607   6.261   5.437   4.755 -0.0694  0.3577 -0.0895
12039TIP3    H157608   6.207   5.422   4.832  1.1194  3.6068  1.6068
12039TIP3    H257609   6.282   5.350   4.722 -2.2418 -1.1026  2.0871
12040TIP3   OH257610   5.930   3.350   0.901 -0.1394 -0.3275  0.0290
12040TIP3    H157611   5.874   3.315   0.832 -1.3546  1.1306  0.2189
12040TIP3    H257612   5.983   3.416   0.857 -0.5798  0.2703  0.3754
12041TIP3   OH257613   1.209   3.687  13.573  0.0183  0.1584  0.4426
12041TIP3    H157614   1.144   3.619  13.552 -0.5040  0.2939  1.5961
12041TIP3    H257615   1.255   3.654  13.650 -0.6558  1.3913  1.3948
12042TIP3   OH257616   5.462   1.285  11.717 -0.2134 -0.0297 -0.4126
12042TIP3    H157617   5.521   1.347  11.675 -0.4406 -0.2187 -1.0224
12042TIP3    H257618   5.419   1.335  11.787 -0.4508  0.5127 -0.9449
12043TIP3   OH257619   6.671   0.972  17.187  0.4570 -0.0395  0.2702
12043TIP3    H157620   6.655   0.943  17.277  0.2495 -0.8936 -0.0375
12043TIP3    H257621   6.765   0.957  17.174  0.1669 -1.6163 -0.2332
12044TIP3   OH257622   6.344   0.380  10.935  0.5859 -0.1240  0.0027
12044TIP3    H157623   6.343   0.351  11.026 -0.7540  0.5468  0.2218
12044TIP3    H257624   6.406   0.321  10.891 -0.2151 -1.7093  0.9366
12045TIP3   OH257625   3.696   1.912  13.574  0.6420  0.4946 -0.0613
12045TIP3    H157626   3.631   1.948  13.634  1.3664  1.2666  0.2800
12045TIP3    H257627   3.745   1.988  13.543 -0.2254  0.2229 -2.2960
12046TIP3   OH257628   5.825   5.862  10.770  0.4545  0.0225  0.4910
12046TIP3    H157629   5.857   5.952  10.769  0.1136  0.1449 -0.3412
12046TIP3    H257630   5.731   5.869  10.790  0.5741 -0.1971  1.1316
12047TIP3   OH257631   5.802   6.702  12.639 -0.4473  0.0520 -0.3096
12047TIP3    H157632   5.780   6.654  12.719 -0.5264 -0.0694 -0.4037
12047TIP3    H257633   5.846   6.781  12.670  0.4274 -0.4697 -0.1802
12048TIP3   OH257634   2.529   3.697   0.272  0.2232  0.4199  0.2106
12048TIP3    H157635   2.590   3.627   0.298  2.1538  1.5741 -0.9977
12048TIP3    H257636   2.569   3.736   0.195 -2.1225  1.2278 -0.6712
12049TIP3   OH257637   2.730   4.288   2.926  0.8959  0.3447 -0.9555
12049TIP3    H157638   2.811   4.240   2.913 -0.5323 -2.4686 -0.2407
12049TIP3    H257639   2.666   4.244   2.870 -0.3859  1.7879 -0.6934
12050TIP3   OH257640   2.508   4.481  15.833 -0.0354  0.1518 -0.4863
12050TIP3    H157641   2.538   4.529  15.756  1.1789  0.6242  0.2519
12050TIP3    H257642   2.452   4.544  15.880 -0.1069  0.1480 -0.5681
12051TIP3   OH257643   0.535   4.434  13.258 -0.1318 -0.4042 -0.0584
12051TIP3    H157644   0.577   4.431  13.344 -0.2908  2.6139  0.2565
12051TIP3    H257645   0.469   4.365  13.260 -1.4930  0.8202  3.0767
12052TIP3   OH257646   3.353   6.060  14.930  0.0824  1.0646 -0.1435
12052TIP3    H157647   3.428   6.069  14.870 -0.6090 -1.2481 -1.4937
12052TIP3    H257648   3.380   5.992  14.991  0.0097  2.0015  0.9518
12053TIP3   OH257649   1.511   6.802  14.265  0.0999 -0.1116  0.3327
12053TIP3    H157650   1.431   6.785  14.216 -1.5564  1.8305  2.1525
12053TIP3    H257651   1.581   6.792  14.201 -1.5267 -2.2123 -1.2553
12054TIP3   OH257652   3.460   2.782  13.338 -0.4676 -0.5306  0.0136
12054TIP3    H157653   3.493   2.733  13.413 -1.7951 -0.1226  0.9123
12054TIP3    H257654   3.521   2.763  13.267  0.8260 -0.9273  1.1959
12055TIP3   OH257655   2.965   6.722  12.784 -0.5247  0.2314  0.1019
12055TIP3    H157656   2.992   6.733  12.875 -2.4642 -1.5969  0.9791
12055TIP3    H257657   2.942   6.629  12.777 -1.3236  0.5387 -2.0076
12056TIP3   OH257658   0.708   4.509   2.582 -0.5701  0.4609 -0.7548
12056TIP3    H157659   0.698   4.583   2.522 -0.6329  0.5105 -0.6842
12056TIP3    H257660   0.787   4.529   2.632 -1.0018  0.8518 -0.2165
12057TIP3   OH257661   5.334   0.560   5.552 -0.1633 -0.5455 -0.7633
12057TIP3    H157662   5.328   0.652   5.527  1.0228 -0.8275 -2.2551
12057TIP3    H257663   5.330   0.513   5.468  2.7741 -1.6305 -0.4111
12058TIP3   OH257664   1.409   3.812   3.174  0.5031  1.0788 -0.3122
12058TIP3    H157665   1.403   3.718   3.195  2.1328  0.9067 -0.4843
12058TIP3    H257666   1.389   3.856   3.257  0.0308  0.5693 -0.1488
12059TIP3   OH257667   5.273   6.770  13.098  0.6598 -0.5076  0.1177
12059TIP3    H157668   5.192   6.820  13.085 -0.7515 -2.2716  1.4867
12059TIP3    H257669   5.301   6.746  13.009 -2.5710 -3.1017 -0.4058
12060TIP3   OH257670   1.648   3.841   5.503 -0.5574 -0.7340  0.2063
12060TIP3    H157671   1.588   3.805   5.437 -1.2102  0.1502  0.2904
12060TIP3    H257672   1.613   3.928   5.521  1.3940  0.2438 -0.5295
12061TIP3   OH257673   0.568   4.218  13.029  0.0744 -0.3634  0.0707
12061TIP3    H157674   0.547   4.236  12.938  2.0851 -2.2250 -0.8349
12061TIP3    H257675   0.503   4.153  13.057  1.0830 -1.8533 -0.9366
12062TIP3   OH257676   2.802   4.605  15.990 -0.0390  0.1982 -0.3107
12062TIP3    H157677   2.827   4.591  16.081 -1.8425 -0.2892  0.1443
12062TIP3    H257678   2.781   4.517  15.957 -0.5667  0.5107 -0.8286
12063TIP3   OH257679   5.105   3.058  10.776 -0.1487  0.2693 -0.1199
12063TIP3    H157680   5.130   3.126  10.839 -0.3653  1.4680 -1.2580
12063TIP3    H257681   5.094   3.106  10.694  0.6408 -1.3136 -1.1972
12064TIP3   OH257682   3.079   5.470   3.271  0.4819 -0.2922 -0.2958
12064TIP3    H157683   3.125   5.547   3.305  0.2336  0.0634 -0.7528
12064TIP3    H257684   3.140   5.432   3.207 -0.3182  0.8932 -1.8328
12065TIP3   OH257685   0.768   5.144  14.231 -0.0037  0.4203 -0.5469
12065TIP3    H157686   0.701   5.078  14.212 -0.8110  1.6090 -2.1032
12065TIP3    H257687   0.751   5.172  14.321 -1.2541  0.3006 -0.7366
12066TIP3   OH257688   3.593   4.569  16.325 -0.5530 -0.1968 -0.4718
12066TIP3    H157689   3.627   4.626  16.255  1.4609 -0.9891 -0.2059
12066TIP3    H257690   3.620   4.612  16.406 -1.1734 -0.2939 -0.2086
12067TIP3   OH257691   3.217   6.477   5.424  0.4448  0.6872  0.0430
12067TIP3    H157692   3.149   6.415   5.450  0.0728  0.6068 -1.0929
12067TIP3    H257693   3.216   6.475   5.328  0.7595  2.0837 -0.0047
12068TIP3   OH257694   1.529   5.686  13.202  0.4249  0.7319  0.1876
12068TIP3    H157695   1.537   5.629  13.279  1.2660  0.3784 -0.1440
12068TIP3    H257696   1.597   5.654  13.142  1.2370  2.3818  0.1822
12069TIP3   OH257697   0.922   0.518   4.402  0.0642  0.2523  0.2208
12069TIP3    H157698   0.907   0.612   4.392 -0.6126  0.3608  1.8761
12069TIP3    H257699   0.866   0.492   4.475  0.1475 -1.4754 -0.2644
12070TIP3   OH257700   4.244   4.136  15.900  0.0556 -0.9459 -0.1577
12070TIP3    H157701   4.157   4.095  15.897  0.0946 -0.9961 -0.7299
12070TIP3    H257702   4.251   4.183  15.816 -0.4709  1.2388  0.9468
12071TIP3   OH257703   5.890   5.165  15.371  0.1055 -0.4054  0.1662
12071TIP3    H157704   5.981   5.189  15.385 -0.6486  4.2019 -1.3077
12071TIP3    H257705   5.877   5.174  15.277 -1.6160 -2.5301  0.1071
12072TIP3   OH257706   5.631   1.575  13.600  1.1747  0.0571 -0.4765
12072TIP3    H157707   5.631   1.590  13.695  3.1449  1.1029 -0.5967
12072TIP3    H257708   5.597   1.656  13.563  2.6951  0.5860 -0.7459
12073TIP3   OH257709   6.093   5.715   2.415 -0.4442 -0.0430  0.6061
12073TIP3    H157710   6.007   5.757   2.411 -0.8012 -0.8170 -0.1200
12073TIP3    H257711   6.118   5.720   2.507 -1.1303  0.4528  0.7709
12074TIP3   OH257712   2.403   0.715  13.509 -0.1379 -0.1856 -0.0937
12074TIP3    H157713   2.375   0.706  13.600 -0.6483 -0.2395 -0.2491
12074TIP3    H257714   2.353   0.791  13.476 -0.5870 -0.6720 -0.5570
12075TIP3   OH257715   5.551   5.715   3.731 -0.3427  0.7424 -0.0012
12075TIP3    H157716   5.626   5.725   3.673  2.1081 -1.5966  2.4278
12075TIP3    H257717   5.572   5.768   3.807 -1.7392  0.9629  0.2547
12076TIP3   OH257718   6.002   2.787  12.636 -0.1163 -0.3010 -0.2586
12076TIP3    H157719   6.087   2.819  12.666  0.7090 -1.8739 -0.8112
12076TIP3    H257720   5.964   2.744  12.713 -0.1826 -0.0326 -0.1423
12077TIP3   OH257721   0.304   3.293  12.445  0.0505 -0.2748  0.2538
12077TIP3    H157722   0.273   3.311  12.356  0.8698 -0.3959 -0.0703
12077TIP3    H257723   0.382   3.239  12.432 -0.2788 -0.9747  1.0799
12078TIP3   OH257724   2.449   1.559  17.214  0.5215 -0.7452  0.3559
12078TIP3    H157725   2.373   1.501  17.225  0.5310 -0.7100  0.6182
12078TIP3    H257726   2.461   1.564  17.119  0.3858 -0.9975  0.3224
12079TIP3   OH257727   1.948   1.900   2.130  0.4301 -0.5764  0.0419
12079TIP3    H157728   2.006   1.936   2.198  0.3389 -1.7080  0.7422
12079TIP3    H257729   1.861   1.930   2.155  0.5511  0.0803 -0.3072
12080TIP3   OH257730   0.185   5.327  14.683  0.0791  0.3500  0.9062
12080TIP3    H157731   0.251   5.274  14.727 -1.3555 -1.9792  0.4157
12080TIP3    H257732   0.123   5.352  14.751 -0.3349 -0.3788  0.8055
12081TIP3   OH257733   3.448   0.335  15.011 -0.2520 -0.1159  1.2740
12081TIP3    H157734   3.388   0.265  15.033 -0.6497 -0.1502  0.1602
12081TIP3    H257735   3.395   0.398  14.961  0.3964  0.3366  1.1336
12082TIP3   OH257736   6.030   3.168   4.692 -0.9945 -0.4670 -0.1110
12082TIP3    H157737   6.089   3.238   4.719 -2.1365  1.1183 -1.4887
12082TIP3    H257738   6.040   3.163   4.597 -1.6734 -1.4709 -0.1475
12083TIP3   OH257739   4.490   4.414  16.816  0.1297 -0.0013  0.3955
12083TIP3    H157740   4.426   4.365  16.764  1.5294  0.6352 -2.0562
12083TIP3    H257741   4.436   4.475  16.868 -1.3490 -0.9749  0.0808
12084TIP3   OH257742   4.684   2.324   2.750  0.1065  0.0093  0.3116
12084TIP3    H157743   4.703   2.289   2.663 -2.8090 -0.2251 -0.3274
12084TIP3    H257744   4.748   2.395   2.762 -0.2415  0.9669 -2.6364
12085TIP3   OH257745   1.136   4.056   4.630  0.4615 -0.2579  0.4463
12085TIP3    H157746   1.190   4.044   4.708  0.8574  0.3116  0.2678
12085TIP3    H257747   1.065   4.113   4.659  0.4554 -0.2716  0.4582
12086TIP3   OH257748   3.395   2.374  11.623 -0.4655 -0.5058  0.3756
12086TIP3    H157749   3.348   2.309  11.570 -0.9323  0.2460 -0.1525
12086TIP3    H257750   3.327   2.435  11.652  0.0372  0.0321  0.4418
12087TIP3   OH257751   5.160   6.490   2.396 -0.1126  0.4911 -0.4007
12087TIP3    H157752   5.120   6.466   2.480 -0.3219  1.4953 -0.1893
12087TIP3    H257753   5.087   6.518   2.342  0.1588  1.1553 -0.4386
12088TIP3   OH257754   0.722   0.565   4.139  0.1218 -0.0109 -0.1334
12088TIP3    H157755   0.685   0.482   4.170  0.3295 -0.6176 -1.4455
12088TIP3    H257756   0.712   0.625   4.213  0.0140 -1.2175  0.8582
12089TIP3   OH257757   0.818   0.771   0.934  0.0758  0.1408  0.7339
12089TIP3    H157758   0.814   0.675   0.930  0.6534  0.1154  0.7851
12089TIP3    H257759   0.805   0.799   0.843  0.3483 -0.0000  0.6516
12090TIP3   OH257760   6.665   2.740  10.641 -0.4092 -0.2907 -0.5712
12090TIP3    H157761   6.654   2.798  10.566  2.1503  1.8012  0.5172
12090TIP3    H257762   6.628   2.789  10.715 -1.7153 -1.7656 -0.1822
12091TIP3   OH257763   4.261   6.390   6.578 -0.1163 -0.2720  0.6789
12091TIP3    H157764   4.257   6.294   6.577 -0.9287 -0.2583  1.2480
12091TIP3    H257765   4.235   6.413   6.667  0.0577  0.4831  0.5341
12092TIP3   OH257766   5.727   2.446   0.929  0.5873  0.3577  0.0283
12092TIP3    H157767   5.714   2.490   1.013  0.0231 -1.5758  1.0013
12092TIP3    H257768   5.822   2.434   0.922  0.6141  0.2974  0.5106
12093TIP3   OH257769   2.147   2.066   4.123  0.1940 -0.5284 -0.1347
12093TIP3    H157770   2.094   1.996   4.162 -0.4945  0.6229  1.0558
12093TIP3    H257771   2.234   2.027   4.113  0.0899 -1.2449  1.4752
12094TIP3   OH257772   2.025   4.269   4.187 -0.6666  0.9141 -0.8699
12094TIP3    H157773   2.096   4.231   4.239 -0.9896 -1.7730 -2.2148
12094TIP3    H257774   2.050   4.253   4.097 -3.3638 -1.1397 -1.4046
12095TIP3   OH257775   2.310   1.235  14.887 -0.2253  0.7238 -0.2796
12095TIP3    H157776   2.281   1.151  14.923 -0.5293  0.2263 -1.6279
12095TIP3    H257777   2.394   1.251  14.930  0.6295 -1.0877 -1.1430
12096TIP3   OH257778   1.892   3.611  14.933 -0.0582  0.8032 -0.4554
12096TIP3    H157779   1.800   3.597  14.913 -0.1712  1.1330 -0.1662
12096TIP3    H257780   1.892   3.657  15.016  0.3769  0.6013 -0.3417
12097TIP3   OH257781   5.290   5.446  13.187 -0.1158 -0.5086  0.1270
12097TIP3    H157782   5.197   5.448  13.208 -0.1540 -0.5839 -0.0338
12097TIP3    H257783   5.334   5.445  13.272 -0.2840 -1.5669  0.2134
12098TIP3   OH257784   1.744   3.350  11.737 -0.0952 -0.0030 -0.2151
12098TIP3    H157785   1.720   3.269  11.693  1.6763 -1.5554  1.4816
12098TIP3    H257786   1.832   3.369  11.705 -0.1684  0.8007  0.0300
12099TIP3   OH257787   4.473   2.132  12.306  0.1623 -0.5758 -0.2804
12099TIP3    H157788   4.385   2.114  12.338  0.8567 -1.7953  1.0273
12099TIP3    H257789   4.478   2.228  12.303 -0.9730 -0.4797  0.2851
12100TIP3   OH257790   2.505   1.668   4.155 -0.3343  0.8238  0.2585
12100TIP3    H157791   2.562   1.737   4.123 -0.6339  0.7505 -0.4468
12100TIP3    H257792   2.513   1.597   4.091 -1.5933  1.0105 -0.1456
12101TIP3   OH257793   1.117   2.455  16.147  0.8338  0.4653 -0.2179
12101TIP3    H157794   1.086   2.517  16.081  0.2436 -0.7258 -1.0939
12101TIP3    H257795   1.050   2.387  16.149  0.4043  0.8899  2.2525
12102TIP3   OH257796   2.891   5.055  12.070 -0.9700  0.3164 -0.2384
12102TIP3    H157797   2.808   5.028  12.108 -0.7260 -0.8799 -0.5251
12102TIP3    H257798   2.955   4.991  12.102 -0.4027  0.4485 -1.0571
12103TIP3   OH257799   1.677   3.239   4.098  0.1551 -0.5451  0.0691
12103TIP3    H157800   1.699   3.304   4.031 -2.1066 -0.6039 -0.8281
12103TIP3    H257801   1.631   3.289   4.165  1.0806 -0.7480  0.8758
12104TIP3   OH257802   3.351   2.955   0.623  0.0631  0.0889  0.5243
12104TIP3    H157803   3.258   2.953   0.601  0.3557 -0.0946 -0.7667
12104TIP3    H257804   3.360   3.030   0.681 -0.5576  1.3444 -0.9383
12105TIP3   OH257805   3.531   3.897  15.420  0.2144  0.2011 -0.2705
12105TIP3    H157806   3.563   3.883  15.331 -0.5800  0.6053 -0.6399
12105TIP3    H257807   3.553   3.988  15.439  2.5491 -0.5456  0.9017
12106TIP3   OH257808   0.327   4.077  13.037 -0.3248 -0.0123 -0.1775
12106TIP3    H157809   0.312   3.990  13.074  0.3732  0.4774  1.3478
12106TIP3    H257810   0.319   4.065  12.943 -2.7050 -1.2294  0.1091
12107TIP3   OH257811   1.587   4.372   3.254 -0.0793  0.4481 -0.3258
12107TIP3    H157812   1.620   4.380   3.165  0.5128 -1.8374 -0.3805
12107TIP3    H257813   1.610   4.283   3.280 -2.3373  0.2421  1.2586
12108TIP3   OH257814   0.484   6.240   0.557 -0.3511 -0.3903 -0.3694
12108TIP3    H157815   0.491   6.162   0.502 -0.7055  0.1225 -1.1555
12108TIP3    H257816   0.524   6.310   0.506  0.5337 -0.1658  0.5886
12109TIP3   OH257817   0.172   2.287   0.630 -0.1159  0.2805 -0.3876
12109TIP3    H157818   0.097   2.247   0.588 -1.4085  3.1433 -1.0234
12109TIP3    H257819   0.246   2.266   0.573 -0.5602 -1.7430 -0.2757
12110TIP3   OH257820   2.956   0.419  11.176  0.1707  0.0537 -0.7240
12110TIP3    H157821   2.918   0.487  11.121 -2.0016  0.6098  1.3122
12110TIP3    H257822   2.916   0.337  11.145  0.0787  0.1770 -0.9263
12111TIP3   OH257823   4.662   2.116  15.847 -0.1795  0.3261  0.7100
12111TIP3    H157824   4.696   2.182  15.909 -1.2397  1.9284 -0.3296
12111TIP3    H257825   4.568   2.117  15.862 -0.0977 -2.3327  1.9126
12112TIP3   OH257826   4.108   0.461  13.817  0.5482  0.2126 -0.1429
12112TIP3    H157827   4.203   0.465  13.829  0.9179  1.4967 -2.8525
12112TIP3    H257828   4.092   0.376  13.776  0.3117 -0.5378  1.4182
12113TIP3   OH257829   2.486   6.544  11.430 -0.1537 -0.0082  0.4956
12113TIP3    H157830   2.498   6.458  11.470  3.1192 -0.3088 -0.7951
12113TIP3    H257831   2.460   6.526  11.340 -2.4853  0.5294  0.9936
12114TIP3   OH257832   3.952   3.393  11.623  0.4104  0.3920 -0.9312
12114TIP3    H157833   3.970   3.484  11.644 -4.7633  1.2846  1.1179
12114TIP3    H257834   3.956   3.347  11.707 -0.5883 -0.4467 -1.3142
12115TIP3   OH257835   0.125   3.611  12.689  0.5976  0.2357 -0.0820
12115TIP3    H157836   0.188   3.646  12.625 -1.0565  0.9476 -1.3965
12115TIP3    H257837   0.041   3.615  12.644 -0.5943  0.4316  2.0566
12116TIP3   OH257838   6.366   4.490  13.247 -0.1379  0.1140  0.3263
12116TIP3    H157839   6.444   4.482  13.192 -1.6381 -0.5850 -1.8385
12116TIP3    H257840   6.381   4.428  13.318  2.0366  1.3246  1.0403
12117TIP3   OH257841   5.786   2.271   0.020  0.4543 -0.0057  1.0366
12117TIP3    H157842   5.832   2.347  -0.016 -0.5850 -0.0599 -0.5015
12117TIP3    H257843   5.836   2.195  -0.010  0.6007  0.0073  1.2436
12118TIP3   OH257844   0.791   5.167  12.894  0.4830  0.6093 -0.2226
12118TIP3    H157845   0.837   5.106  12.836 -1.3414  1.3997 -2.6644
12118TIP3    H257846   0.706   5.180  12.852 -0.6455  1.8860  2.2634
12119TIP3   OH257847   5.917   4.719  15.363 -0.3801 -0.6974 -0.0785
12119TIP3    H157848   5.865   4.799  15.354  0.4658 -0.2290 -0.9493
12119TIP3    H257849   5.948   4.721  15.454 -0.5417 -0.1371 -0.0333
12120TIP3   OH257850   1.488   4.953   1.711 -0.4338 -0.2586 -0.2987
12120TIP3    H157851   1.572   4.933   1.751  0.2246  0.7676 -1.1274
12120TIP3    H257852   1.497   4.924   1.620 -0.9171  0.0279 -0.4406
12121TIP3   OH257853   0.745   1.924   1.044  0.1459  0.0168  0.6691
12121TIP3    H157854   0.789   1.934   1.128 -0.6845 -1.6253  1.3584
12121TIP3    H257855   0.755   2.009   1.001  1.7210  0.4845  1.8594
12122TIP3   OH257856   3.211   1.031  11.589  0.2064 -0.4687  0.1436
12122TIP3    H157857   3.274   0.989  11.530 -2.0768 -0.0134 -2.8444
12122TIP3    H257858   3.154   0.960  11.618 -0.6393 -0.2446 -0.9030
12123TIP3   OH257859   1.240   0.541  16.378 -0.1045  0.1125  0.4358
12123TIP3    H157860   1.182   0.469  16.400  1.5540 -1.3797  0.1293
12123TIP3    H257861   1.328   0.504  16.383  0.7286  1.6533 -1.3802
12124TIP3   OH257862   4.113   3.848   3.549 -0.4808  0.1683 -0.2368
12124TIP3    H157863   4.112   3.757   3.520  1.5725 -0.1109  0.4042
12124TIP3    H257864   4.021   3.870   3.565 -1.0850 -1.4965 -1.2354
12125TIP3   OH257865   3.671   1.507   4.573  0.6305 -0.0662 -0.1412
12125TIP3    H157866   3.740   1.495   4.638 -0.8502  0.2284  1.5564
12125TIP3    H257867   3.609   1.567   4.614  0.3677  1.3658 -2.4459
12126TIP3   OH257868   3.651   0.075   4.724  0.4885  0.3106  0.5660
12126TIP3    H157869   3.653  -0.019   4.744  2.3681 -0.3155 -2.0604
12126TIP3    H257870   3.729   0.090   4.671 -1.0445  2.8874 -1.1599
12127TIP3   OH257871   4.223   2.868  10.757 -0.1610  0.0485 -0.5055
12127TIP3    H157872   4.294   2.824  10.803 -1.3365  0.1803  1.5547
12127TIP3    H257873   4.261   2.950  10.726  0.4703  0.3948  1.0784
12128TIP3   OH257874   1.747   4.692  13.527  0.1089  0.6100 -0.4612
12128TIP3    H157875   1.698   4.645  13.595  0.7691  1.5484  0.7137
12128TIP3    H257876   1.752   4.630  13.454  0.7550 -1.0701  0.9289
12129TIP3   OH257877   1.686   4.291  12.175  0.4633  0.1802 -0.3183
12129TIP3    H157878   1.732   4.351  12.116 -0.6465  1.4580  0.0827
12129TIP3    H257879   1.751   4.269  12.242  0.6892  1.4684 -0.0968
12130TIP3   OH257880   3.601   1.356  16.874  0.1985 -0.1259 -0.4092
12130TIP3    H157881   3.689   1.393  16.879  0.5306 -0.8589 -0.6850
12130TIP3    H257882   3.549   1.422  16.827  0.5112  0.4592  0.0543
12131TIP3   OH257883   5.468   6.744  10.841  0.1165 -0.7358  0.5725
12131TIP3    H157884   5.435   6.700  10.762 -1.2652 -0.3086  0.8893
12131TIP3    H257885   5.538   6.800  10.809 -0.0524 -0.9813 -0.2753
12132TIP3   OH257886   4.626   2.365   3.624  0.6724  0.5910 -0.2229
12132TIP3    H157887   4.572   2.307   3.677  1.5564  0.6209  0.7390
12132TIP3    H257888   4.693   2.398   3.684  3.2623 -1.3067 -1.8732
12133TIP3   OH257889   4.918   3.809   3.241  0.0373 -0.2335  0.0425
12133TIP3    H157890   4.847   3.853   3.194 -0.1795  0.4632  1.0106
12133TIP3    H257891   4.997   3.831   3.192 -0.3757 -0.8681 -0.9411
12134TIP3   OH257892   4.673   4.698   4.125  0.1068  0.0392  0.0798
12134TIP3    H157893   4.744   4.671   4.183  0.0458 -1.0580 -0.3303
12134TIP3    H257894   4.685   4.792   4.113 -0.3003  0.4585  2.4499
12135TIP3   OH257895   3.352   5.574  15.909 -0.1203  0.7749 -0.3883
12135TIP3    H157896   3.308   5.521  15.843 -1.0275  1.1418 -0.0963
12135TIP3    H257897   3.392   5.511  15.969 -1.5598  0.3754  0.2098
12136TIP3   OH257898   2.013   3.067   0.046 -0.1633  0.1933  0.0093
12136TIP3    H157899   2.036   3.153   0.081  1.8144 -0.5508  0.6225
12136TIP3    H257900   1.943   3.036   0.103 -1.5187  1.7171 -0.7398
12137TIP3   OH257901   3.076   5.444   1.897 -0.3301 -0.1660  0.3063
12137TIP3    H157902   3.138   5.381   1.933  0.6404  1.0888  0.9413
12137TIP3    H257903   3.004   5.446   1.960  0.1461  0.1314  0.8543
12138TIP3   OH257904   0.931   4.584   5.243  0.2370 -0.8171 -0.7350
12138TIP3    H157905   1.013   4.536   5.256 -0.0164 -1.0928 -0.0585
12138TIP3    H257906   0.876   4.556   5.317 -0.9048 -1.5684 -1.8217
12139TIP3   OH257907   5.173   4.281   1.501 -0.7613 -0.3399 -0.8437
12139TIP3    H157908   5.194   4.189   1.484 -2.3905 -0.9494  0.1877
12139TIP3    H257909   5.220   4.302   1.582  2.9043  1.0512 -3.0784
12140TIP3   OH257910   2.892   6.487   1.883 -0.1988  0.1010  0.1327
12140TIP3    H157911   2.853   6.476   1.970 -2.9041  2.5812 -0.5864
12140TIP3    H257912   2.875   6.405   1.838 -1.7884 -0.0407  0.9405
12141TIP3   OH257913   1.511   3.075  13.593 -0.4733 -0.0208  0.3824
12141TIP3    H157914   1.603   3.049  13.591 -0.8464 -1.5410 -2.0003
12141TIP3    H257915   1.465   2.997  13.624 -0.9809  0.7396  1.5933
12142TIP3   OH257916   3.390   6.135  13.137  0.0382  0.7658 -0.1920
12142TIP3    H157917   3.390   6.158  13.044  0.9508 -0.2462 -0.4763
12142TIP3    H257918   3.351   6.210  13.181 -1.1873  0.9064 -1.4704
12143TIP3   OH257919   0.248   5.309   2.695 -0.6905 -0.1089  0.0891
12143TIP3    H157920   0.213   5.308   2.784 -0.7743  0.7927  0.0744
12143TIP3    H257921   0.278   5.399   2.682  0.1528 -0.4674 -0.4746
12144TIP3   OH257922   4.170   4.222   5.566  0.1681  0.1652  0.3735
12144TIP3    H157923   4.140   4.230   5.475  2.6742 -0.3591 -0.5873
12144TIP3    H257924   4.110   4.159   5.606 -0.6388 -0.0312 -1.0715
12145TIP3   OH257925   1.879   3.468  16.722 -0.3295 -0.3127  0.7331
12145TIP3    H157926   1.872   3.438  16.631  0.1688 -2.2662  1.2995
12145TIP3    H257927   1.865   3.563  16.716 -1.1141 -0.4874 -1.2719
12146TIP3   OH257928   6.530   0.693  12.763  0.3346 -0.5686 -0.3023
12146TIP3    H157929   6.495   0.659  12.681  0.8729 -2.9647  0.3792
12146TIP3    H257930   6.600   0.632  12.787  2.2382  1.7350  0.4738
12147TIP3   OH257931   4.593   3.131  16.591 -0.4396 -0.3598  0.8455
12147TIP3    H157932   4.560   3.202  16.647  3.0632  1.9970  0.2573
12147TIP3    H257933   4.570   3.159  16.502  1.0445  0.2041  0.6038
12148TIP3   OH257934   6.639   2.306  11.353 -0.0760  0.0462  0.4569
12148TIP3    H157935   6.720   2.311  11.302 -1.3391  3.0544 -1.4853
12148TIP3    H257936   6.649   2.374  11.420 -0.7401 -0.0269  0.6341
12149TIP3   OH257937   5.934   4.382   0.372  0.0730  0.0992  0.2057
12149TIP3    H157938   5.985   4.405   0.450 -1.8808 -0.9965  1.9041
12149TIP3    H257939   5.989   4.319   0.325  0.0648 -1.6317  2.3740
12150TIP3   OH257940   4.142   2.752  13.643 -0.3899  0.0691  0.1590
12150TIP3    H157941   4.115   2.761  13.735 -0.0100  0.3016  0.2519
12150TIP3    H257942   4.226   2.707  13.648 -0.4886 -0.1396 -0.0897
12151TIP3   OH257943   2.206   1.908  14.313 -1.0692  0.1148 -0.3556
12151TIP3    H157944   2.111   1.903  14.310 -1.0147 -0.9163 -0.9590
12151TIP3    H257945   2.232   1.930  14.224 -0.7295 -0.0897 -0.3123
12152TIP3   OH257946   4.908   1.482   4.614  0.4114 -0.1930 -0.2487
12152TIP3    H157947   4.872   1.520   4.694 -2.1863 -1.3043 -0.7589
12152TIP3    H257948   4.977   1.423   4.644  1.0587  1.1004  0.9307
12153TIP3   OH257949   2.342   3.874  15.824  0.0340  0.1861  0.7207
12153TIP3    H157950   2.374   3.810  15.888 -0.7321 -0.6645  0.2734
12153TIP3    H257951   2.397   3.952  15.839  2.1979 -1.1412  0.0868
12154TIP3   OH257952   3.865   0.506  17.028 -0.5020  0.2330  0.1478
12154TIP3    H157953   3.904   0.419  17.023  0.8723  0.8500 -0.1301
12154TIP3    H257954   3.785   0.498  16.975  0.7030 -0.3065 -1.7261
12155TIP3   OH257955   5.360   1.971   2.073  0.0586 -0.1182 -0.0777
12155TIP3    H157956   5.273   1.971   2.034  0.1023 -0.0257 -0.1733
12155TIP3    H257957   5.378   2.063   2.092  0.3286 -0.0877 -0.4817
12156TIP3   OH257958   5.348   2.942  16.870 -0.5660  0.3293  0.4663
12156TIP3    H157959   5.432   2.961  16.830 -0.6694  1.1083  0.6035
12156TIP3    H257960   5.297   3.023  16.859 -1.3615 -0.1879  0.2159
12157TIP3   OH257961   3.157   4.905   2.908 -0.2151 -0.3554  0.0828
12157TIP3    H157962   3.182   4.815   2.888 -1.2588 -0.3627 -1.3703
12157TIP3    H257963   3.212   4.958   2.850 -0.0815 -0.0887  0.4483
12158TIP3   OH257964   0.407   6.529  15.427 -0.3367  0.2959  0.8325
12158TIP3    H157965   0.360   6.483  15.357  0.5299 -1.6105  1.4336
12158TIP3    H257966   0.495   6.543  15.392 -0.7597  2.1818  0.4117
12159TIP3   OH257967   5.222   4.625  11.896 -0.7349 -0.4780  0.3729
12159TIP3    H157968   5.127   4.621  11.909 -0.5492 -1.4693  1.7439
12159TIP3    H257969   5.253   4.681  11.967 -0.1857 -1.3262  0.8249
12160TIP3   OH257970   0.200   4.139   5.058 -0.5966  0.2181 -0.5105
12160TIP3    H157971   0.273   4.176   5.008 -0.1415  1.1094  0.7782
12160TIP3    H257972   0.123   4.183   5.023 -0.2027  1.3874  0.0627
12161TIP3   OH257973   3.331   0.299  10.714 -0.4293 -0.4418  0.0337
12161TIP3    H157974   3.290   0.246  10.782 -0.3353 -2.7688 -1.6190
12161TIP3    H257975   3.412   0.253  10.693  0.2214  0.9879 -0.7290
12162TIP3   OH257976   6.426   2.397  16.868  0.0738  0.4521  0.0694
12162TIP3    H157977   6.446   2.348  16.948  0.0515  0.4201  0.0556
12162TIP3    H257978   6.466   2.346  16.798  1.1142  1.0951  0.1761
12163TIP3   OH257979   3.614   6.306   2.401  0.4567  0.2018  0.3015
12163TIP3    H157980   3.540   6.290   2.461  0.9675 -1.3748  0.5604
12163TIP3    H257981   3.575   6.297   2.314  0.4602 -1.3578  0.4389
12164TIP3   OH257982   6.556   2.742  13.165  0.2170 -0.3428  0.0243
12164TIP3    H157983   6.525   2.775  13.080  1.1204  1.0059  0.1922
12164TIP3    H257984   6.519   2.654  13.171  0.5717 -0.6980 -2.0286
12165TIP3   OH257985   1.296   4.821   0.432 -0.2487  1.1668  0.1959
12165TIP3    H157986   1.212   4.840   0.391 -0.2022  1.1868  0.1098
12165TIP3    H257987   1.283   4.841   0.524 -1.0764 -1.0482  0.6347
12166TIP3   OH257988   6.523   3.108   3.714 -0.1935 -0.7350  0.4160
12166TIP3    H157989   6.457   3.148   3.771 -0.7333  0.8098 -1.1885
12166TIP3    H257990   6.472   3.071   3.642  0.6111 -0.2351 -0.4352
12167TIP3   OH257991   1.975   2.046  11.324 -0.2072  0.5169 -0.2523
12167TIP3    H157992   1.887   2.046  11.361 -0.0740  0.8223  0.0723
12167TIP3    H257993   1.967   2.098  11.244 -0.2021  1.0419  0.0804
12168TIP3   OH257994   6.303   4.252  10.925 -0.1336 -0.0822  0.5280
12168TIP3    H157995   6.216   4.288  10.942  0.3127  0.1967  2.5574
12168TIP3    H257996   6.302   4.229  10.832 -2.0814  0.6627  0.3081
12169TIP3   OH257997   0.036   3.238   2.639  0.4942  0.2430 -0.2803
12169TIP3    H157998  -0.036   3.301   2.635  1.2402  1.2582  1.1608
12169TIP3    H257999   0.002   3.167   2.692 -0.2923 -0.5387 -1.7638
12170TIP3   OH258000   5.698   2.707  14.310  0.1736 -0.0140  0.6271
12170TIP3    H158001   5.681   2.777  14.373  1.4217 -0.2465  1.2790
12170TIP3    H258002   5.790   2.683  14.326  0.1862 -0.8399 -0.5394
12171TIP3   OH258003   0.952   6.105  14.116 -0.3353 -0.2595 -0.6583
12171TIP3    H158004   0.873   6.138  14.073 -0.8228 -0.4304  0.0845
12171TIP3    H258005   0.925   6.087  14.206  0.5355 -0.3896 -0.4101
12172TIP3   OH258006   2.573   4.354  16.052  0.7937  0.3612  0.0107
12172TIP3    H158007   2.492   4.384  16.094  1.6456  0.6646  1.5285
12172TIP3    H258008   2.576   4.399  15.968 -0.6847  0.2140 -0.1399
12173TIP3   OH258009   1.133   0.076  12.696  0.0568 -0.2850  0.5423
12173TIP3    H158010   1.113   0.001  12.641 -0.8078  1.6482 -1.9652
12173TIP3    H258011   1.226   0.067  12.716  0.7509 -0.4924 -2.3269
12174TIP3   OH258012   4.095   0.120  16.505  0.1346 -0.2883  0.1222
12174TIP3    H158013   4.089   0.089  16.414 -0.0228 -1.6706  0.5787
12174TIP3    H258014   4.025   0.185  16.512 -0.4817 -0.8597 -0.4937
12175TIP3   OH258015   1.595   0.989  12.949 -0.0049 -0.1792 -0.5262
12175TIP3    H158016   1.501   0.994  12.933 -0.1168 -0.2814  0.0705
12175TIP3    H258017   1.614   1.065  13.005  0.6220  0.9702 -2.2402
12176TIP3   OH258018   5.276   1.826  17.201  0.1201 -0.1154  0.1965
12176TIP3    H158019   5.289   1.783  17.117  0.4034 -0.4255  0.3987
12176TIP3    H258020   5.282   1.755  17.266 -1.0361 -0.0482  0.4144
12177TIP3   OH258021   1.215   2.288  12.891  0.0205  0.1782 -0.4414
12177TIP3    H158022   1.255   2.249  12.969 -2.1843 -0.1849  0.5849
12177TIP3    H258023   1.247   2.234  12.819  0.2742 -0.9602  0.4847
12178TIP3   OH258024   6.772   3.748  15.542  0.5363  0.1976 -0.0278
12178TIP3    H158025   6.789   3.753  15.448  1.1137  0.3571  0.0833
12178TIP3    H258026   6.854   3.774  15.583  0.5746 -0.7438  0.5316
12179TIP3   OH258027   4.457   1.452   2.811 -0.0122  0.0880  0.2993
12179TIP3    H158028   4.521   1.381   2.817  0.7068  0.6723 -0.2649
12179TIP3    H258029   4.377   1.411   2.778  0.1652 -0.5873  0.6962
12180TIP3   OH258030   0.818   4.822  12.580 -0.1628  0.1529  0.3976
12180TIP3    H158031   0.828   4.739  12.625  2.9383  0.6694  0.8694
12180TIP3    H258032   0.807   4.887  12.650  1.2097  0.5354  0.2979
12181TIP3   OH258033   0.791   5.715   3.885 -0.0579 -0.4915 -0.5164
12181TIP3    H158034   0.789   5.710   3.980 -0.1282  0.4316 -0.4594
12181TIP3    H258035   0.883   5.731   3.863  0.3041 -2.5452 -0.7374
12182TIP3   OH258036   5.040   1.599   0.327  0.1523 -0.1950  0.2951
12182TIP3    H158037   4.961   1.565   0.371 -0.9385  0.3682 -1.1381
12182TIP3    H258038   5.068   1.528   0.270  0.8717 -0.5000  1.0168
12183TIP3   OH258039   0.347   4.221   5.542 -0.5944 -0.1118 -0.2241
12183TIP3    H158040   0.436   4.206   5.512 -0.9345 -0.7782 -0.9192
12183TIP3    H258041   0.298   4.243   5.463 -1.2186 -0.5893  0.0238
12184TIP3   OH258042   6.195   5.226  13.306 -0.4073 -0.3555 -0.0775
12184TIP3    H158043   6.204   5.206  13.399  1.4616  1.0618  0.1218
12184TIP3    H258044   6.174   5.142  13.265  0.4491 -1.3575  1.4318
12185TIP3   OH258045   6.623   4.512   4.787 -0.6797  0.4939 -0.5768
12185TIP3    H158046   6.567   4.569   4.841 -1.3431  1.2569 -2.0238
12185TIP3    H258047   6.663   4.572   4.724  0.9352 -0.2205 -0.2822
12186TIP3   OH258048   1.181   5.204  15.541 -0.4173  0.3251  0.4328
12186TIP3    H158049   1.141   5.215  15.454  0.3745  0.7799  0.1208
12186TIP3    H258050   1.275   5.215  15.526 -0.1535 -0.7498  1.1600
12187TIP3   OH258051   5.462   4.950  12.613 -0.0360 -0.4155  0.0570
12187TIP3    H158052   5.431   4.964  12.523 -0.6568  0.3688  0.3759
12187TIP3    H258053   5.478   5.038  12.647  1.7176 -0.7688  0.2112
12188TIP3   OH258054   2.576   5.289   2.315 -0.0455  0.1820 -0.4508
12188TIP3    H158055   2.579   5.378   2.351  0.3276 -0.6057  1.6579
12188TIP3    H258056   2.487   5.280   2.282 -0.6060  0.8497  0.7638
12189TIP3   OH258057   1.805   0.612   1.761  0.5406  0.4482  0.3574
12189TIP3    H158058   1.719   0.645   1.790 -0.6520  0.5257 -2.8839
12189TIP3    H258059   1.799   0.517   1.772 -0.6967  0.2750 -1.4251
12190TIP3   OH258060   1.921   2.242   5.930 -0.4318 -0.4346 -0.5015
12190TIP3    H158061   1.970   2.261   6.010 -0.0698  0.0875 -0.8391
12190TIP3    H258062   1.913   2.327   5.886 -0.8856 -0.6649 -0.8739
12191TIP3   OH258063   6.555   0.876  12.994  0.6168 -0.5643 -0.3256
12191TIP3    H158064   6.576   0.843  13.081 -1.2297 -0.7029  0.1169
12191TIP3    H258065   6.525   0.798  12.946  0.3826 -0.2666 -0.6622
12192TIP3   OH258066   1.865   3.021   6.170 -0.3044 -0.4290 -0.1890
12192TIP3    H158067   1.839   3.109   6.142 -1.3630 -1.1882 -1.7285
12192TIP3    H258068   1.825   3.010   6.257  1.3663  1.2443  0.8644
12193TIP3   OH258069   6.484   1.033   1.836 -0.3637 -0.0175  0.0361
12193TIP3    H158070   6.433   0.986   1.769 -1.2021  0.7783  0.0893
12193TIP3    H258071   6.460   1.125   1.824  1.5966  0.4726 -0.3653
12194TIP3   OH258072   4.309   0.467  13.496 -0.1635  0.2905 -0.9519
12194TIP3    H158073   4.400   0.485  13.472  1.7167 -1.9808  3.2288
12194TIP3    H258074   4.316   0.420  13.579 -5.2895  1.8088  0.7179
12195TIP3   OH258075   6.625   6.040  13.040  0.2042 -0.1515  0.1284
12195TIP3    H158076   6.693   6.107  13.046  0.8118 -0.5631 -1.5827
12195TIP3    H258077   6.670   5.958  13.060 -0.5046 -0.1166  2.0596
12196TIP3   OH258078   6.626   0.869  14.753  0.3820 -0.5179  0.3100
12196TIP3    H158079   6.604   0.897  14.842 -0.8995  0.5043 -0.2890
12196TIP3    H258080   6.690   0.935  14.724  0.3731 -0.5243  0.2764
12197TIP3   OH258081   5.459   5.851   1.629 -0.2886 -0.7090 -0.0751
12197TIP3    H158082   5.531   5.804   1.671 -1.1844 -0.5909  1.6481
12197TIP3    H258083   5.499   5.931   1.595  0.4417 -0.7518  0.6656
12198TIP3   OH258084   1.948   6.169   4.501 -0.0728 -0.0113  0.3231
12198TIP3    H158085   1.899   6.244   4.537  0.4573 -0.4210  1.9933
12198TIP3    H258086   1.918   6.163   4.410 -1.1978  1.3362  0.5556
12199TIP3   OH258087   3.630   5.946  12.826  0.1418 -0.1807 -0.3427
12199TIP3    H158088   3.631   5.954  12.921 -1.1659 -0.0834 -0.3184
12199TIP3    H258089   3.554   5.998  12.798 -0.4425 -1.4782 -1.2912
12200TIP3   OH258090   3.395   5.361  11.008  0.4131  0.0461 -0.0225
12200TIP3    H158091   3.354   5.275  11.001  1.4667 -0.5703  0.9366
12200TIP3    H258092   3.454   5.366  10.933  0.0787  0.0938 -0.2847
12201TIP3   OH258093   4.676   6.699  15.079  0.4471 -0.4052 -0.3116
12201TIP3    H158094   4.741   6.766  15.099  1.1674 -1.6222  1.7785
12201TIP3    H258095   4.722   6.616  15.096 -1.0801 -1.3539 -0.6429
12202TIP3   OH258096   3.050   0.671  13.546 -0.0891 -0.0239 -0.3388
12202TIP3    H158097   2.965   0.683  13.503  0.2370  0.1758 -0.9438
12202TIP3    H258098   3.107   0.736  13.504  0.6043 -0.7876 -0.5896
12203TIP3   OH258099   4.274   1.315  16.969 -0.8202 -0.2072  0.0239
12203TIP3    H158100   4.329   1.297  16.892  0.8978 -2.3286  1.6187
12203TIP3    H258101   4.242   1.404  16.954  2.2105  0.7827 -1.5580
12204TIP3   OH258102   5.829   2.051   5.957  0.0298  0.1367  0.0238
12204TIP3    H158103   5.922   2.059   5.936 -0.1577  0.4405 -0.7407
12204TIP3    H258104   5.824   2.059   6.052  0.6353  1.6464 -0.0539
12205TIP3   OH258105   2.359   2.633   4.653 -1.2810  0.2969  0.0206
12205TIP3    H158106   2.292   2.686   4.696 -1.6631 -0.9630  1.0845
12205TIP3    H258107   2.314   2.550   4.634 -0.2891 -0.2204 -0.1134
12206TIP3   OH258108   5.988   0.448   3.775 -0.3252 -0.4491  0.1205
12206TIP3    H158109   5.976   0.440   3.681 -2.0811 -0.3681  0.3158
12206TIP3    H258110   5.940   0.374   3.812 -0.7774  0.2657  1.0052
12207TIP3   OH258111   0.775   0.433   4.626  0.7430 -0.0935  0.5937
12207TIP3    H158112   0.819   0.373   4.686 -0.7589 -0.0892  1.7371
12207TIP3    H258113   0.684   0.434   4.654  0.0477  0.1923 -1.4690
12208TIP3   OH258114   1.525   6.540   4.657  0.1562  0.3974 -0.3593
12208TIP3    H158115   1.479   6.565   4.738  1.8903  0.4848  0.6615
12208TIP3    H258116   1.462   6.556   4.587 -1.0734  1.2607  0.8908
12209TIP3   OH258117   1.689   0.051   1.241  0.1932  0.4336  0.0984
12209TIP3    H158118   1.716  -0.038   1.263 -0.2346  0.5051  0.9654
12209TIP3    H258119   1.691   0.054   1.145 -0.3112 -0.6827  0.0345
12210TIP3   OH258120   5.874   3.514   4.890  0.0226 -0.3557 -0.5408
12210TIP3    H158121   5.929   3.590   4.909 -0.8035 -0.4647  3.0232
12210TIP3    H258122   5.929   3.458   4.835  1.4593  1.7897 -1.4427
12211TIP3   OH258123   2.964   6.223  16.361 -0.7916  0.0361  0.4134
12211TIP3    H158124   2.902   6.244  16.291 -0.4853 -0.7504 -0.1096
12211TIP3    H258125   3.043   6.271  16.338  0.0440 -1.9147 -1.0009
12212TIP3   OH258126   4.073   1.250  11.646  0.4624 -0.5811 -0.4407
12212TIP3    H158127   4.083   1.180  11.711 -0.2714 -2.1190 -1.8951
12212TIP3    H258128   3.997   1.300  11.677 -0.2300 -1.6300 -0.3782
12213TIP3   OH258129   3.452   4.651   0.654 -0.0664  0.5713 -0.3272
12213TIP3    H158130   3.537   4.671   0.691 -0.1373 -0.1638  0.2640
12213TIP3    H258131   3.392   4.713   0.695 -0.0509  0.1264  0.3799
12214TIP3   OH258132   6.042   5.273   3.151 -0.1250  0.0312 -0.6484
12214TIP3    H158133   6.011   5.183   3.162  1.0024 -0.2602  0.3863
12214TIP3    H258134   6.111   5.266   3.085 -0.2658  0.2005 -0.8155
12215TIP3   OH258135   4.621   0.224   0.136 -0.2768  0.0984  0.4186
12215TIP3    H158136   4.676   0.160   0.091 -1.2582  0.8054 -1.9601
12215TIP3    H258137   4.587   0.178   0.212  1.7367 -1.0754  0.6627
12216TIP3   OH258138   0.454   4.032  11.795  0.3088 -0.5004  0.8527
12216TIP3    H158139   0.421   4.085  11.722  2.0146  2.3344  2.0045
12216TIP3    H258140   0.387   3.964  11.807 -1.1635  0.3444 -1.7939
12217TIP3   OH258141   4.287   4.577  16.954 -0.0593 -0.3749  0.6002
12217TIP3    H158142   4.272   4.615  17.040 -1.6483  0.0266  0.1717
12217TIP3    H258143   4.211   4.602  16.902  1.3217  0.2390 -1.2449
12218TIP3   OH258144   3.707   6.149   0.931  0.0246  0.1634  0.1273
12218TIP3    H158145   3.669   6.230   0.965  1.9954  0.1089  2.8130
12218TIP3    H258146   3.633   6.088   0.924 -1.0962  1.4360  0.5259
12219TIP3   OH258147   0.155   1.901  13.888  0.9522 -0.3220 -0.2131
12219TIP3    H158148   0.117   1.820  13.922  0.3492  0.9635  2.4667
12219TIP3    H258149   0.148   1.893  13.793 -1.7683 -2.1814  0.0192
12220TIP3   OH258150   6.803   3.983  13.182  0.2295  0.6241  0.5749
12220TIP3    H158151   6.862   3.974  13.107 -1.3675  1.8910 -0.9102
12220TIP3    H258152   6.838   4.057  13.232  0.5621  0.6101  0.3619
12221TIP3   OH258153   2.908   0.247   3.931 -0.5354 -0.0864  0.0254
12221TIP3    H158154   2.899   0.183   4.002 -0.9561  1.2081  1.1847
12221TIP3    H258155   2.989   0.222   3.887  0.3339 -0.2938  1.6457
12222TIP3   OH258156   2.153   1.015  16.422 -0.5317  0.0569 -0.0264
12222TIP3    H158157   2.090   1.076  16.459 -1.6455  0.0691 -1.8252
12222TIP3    H258158   2.137   0.932  16.469 -1.3141  0.2725  0.0940
12223TIP3   OH258159   3.730   4.951  15.299 -0.1910 -0.0021  0.2490
12223TIP3    H158160   3.729   4.904  15.215  1.3806 -0.4798  0.4622
12223TIP3    H258161   3.643   4.935  15.336 -0.0504 -1.9694 -0.1329
12224TIP3   OH258162   2.960   3.526  11.660 -0.5513  0.0893  0.0032
12224TIP3    H158163   3.030   3.569  11.611  0.6500 -0.8044  0.8934
12224TIP3    H258164   2.909   3.599  11.697  0.1609  0.7434 -0.2730
12225TIP3   OH258165   4.241   6.728   0.690 -0.3903 -0.4959 -0.8505
12225TIP3    H158166   4.277   6.786   0.757  1.9812 -1.2421 -1.4088
12225TIP3    H258167   4.149   6.717   0.715 -1.1032  3.6876 -0.8807
12226TIP3   OH258168   3.032   3.290  17.067  0.2529  0.3404  0.1754
12226TIP3    H158169   2.961   3.344  17.031 -0.4398  0.6606  1.8983
12226TIP3    H258170   3.099   3.290  16.999 -0.4546  1.9498 -0.5824
12227TIP3   OH258171   2.166   1.192  13.432  0.2893 -0.6519 -0.4683
12227TIP3    H158172   2.078   1.189  13.468  0.5501  0.0898  0.2715
12227TIP3    H258173   2.223   1.199  13.509  0.9689 -0.7695 -0.9470
12228TIP3   OH258174   3.610   4.430  16.973  0.5852  0.0010  0.1748
12228TIP3    H158175   3.700   4.399  16.970  1.0458  1.3420 -0.4368
12228TIP3    H258176   3.611   4.502  17.036 -0.2363 -0.4737  0.7561
12229TIP3   OH258177   2.359   6.655   3.813 -0.2875  0.1799 -0.6690
12229TIP3    H158178   2.286   6.715   3.799 -0.0501  0.4912 -0.5602
12229TIP3    H258179   2.414   6.665   3.736  0.4319  1.0663 -0.0556
12230TIP3   OH258180   2.169   0.366  12.214 -0.0958  0.2246  0.7516
12230TIP3    H158181   2.223   0.423  12.159  0.1438 -0.8155 -0.1154
12230TIP3    H258182   2.199   0.278  12.194  1.0585 -0.1543  3.6757
12231TIP3   OH258183   5.026   2.209   3.614 -0.7592  0.2013  1.0005
12231TIP3    H158184   4.940   2.168   3.617 -0.9200  0.3658 -0.4030
12231TIP3    H258185   5.066   2.175   3.534  1.2873 -1.3742  2.5747
12232TIP3   OH258186   6.052   2.860  12.122 -0.0981  0.4717  0.1810
12232TIP3    H158187   6.111   2.785  12.129  0.6394  0.8260 -1.7704
12232TIP3    H258188   6.000   2.843  12.044  1.5970  2.9419 -1.6564
12233TIP3   OH258189   2.282   0.263  15.183  0.3376 -0.4658 -0.0828
12233TIP3    H158190   2.203   0.229  15.142 -0.1433  0.7497 -0.2016
12233TIP3    H258191   2.317   0.189  15.234  0.1668 -1.5703 -1.5067
12234TIP3   OH258192   2.487   4.627   5.619  0.0323  0.4683  0.0504
12234TIP3    H158193   2.420   4.579   5.668 -1.1000  0.4382 -1.4633
12234TIP3    H258194   2.505   4.573   5.543  1.7743  0.5088  0.4107
12235TIP3   OH258195   2.787   5.646   0.494 -0.4558  0.3574 -0.4760
12235TIP3    H158196   2.856   5.581   0.502 -0.4644  0.3207 -0.7182
12235TIP3    H258197   2.738   5.638   0.576  0.9968  1.7246  0.6006
12236TIP3   OH258198   6.282   1.606  15.205  0.0444  0.4743  0.2628
12236TIP3    H158199   6.376   1.606  15.188 -0.0860  0.9919 -0.5225
12236TIP3    H258200   6.259   1.699  15.212 -0.2087  0.3304  1.7030
12237TIP3   OH258201   2.334   6.202  13.027 -0.4561  0.0940  0.1568
12237TIP3    H158202   2.371   6.117  13.049 -1.0678 -0.6290 -1.4173
12237TIP3    H258203   2.297   6.190  12.939 -3.8002  0.9237  1.3018
12238TIP3   OH258204   6.457   1.432   1.466  0.0032  0.2800 -0.4549
12238TIP3    H158205   6.466   1.527   1.463  0.8438  0.1964 -0.9958
12238TIP3    H258206   6.373   1.417   1.509  1.1511  1.1969  2.3385
12239TIP3   OH258207   6.391   2.036   4.085 -0.1733 -0.0127 -0.0323
12239TIP3    H158208   6.326   2.105   4.071 -0.5972 -0.7746 -2.2344
12239TIP3    H258209   6.367   1.967   4.024  2.2199 -0.6888 -0.3335
12240TIP3   OH258210   1.245   1.292  15.725 -0.0044  0.2422 -0.1406
12240TIP3    H158211   1.277   1.258  15.809  0.2860  0.3549 -0.2072
12240TIP3    H258212   1.213   1.215  15.678 -3.1517  0.4658  1.3365
12241TIP3   OH258213   4.551   5.465  12.278  0.3503  0.0160 -0.1452
12241TIP3    H158214   4.592   5.474  12.364  1.5435  0.6761 -0.7612
12241TIP3    H258215   4.457   5.458  12.297  0.6478 -0.5755  1.2424
12242TIP3   OH258216   2.893   2.349   6.001 -0.4745  0.0001  0.1098
12242TIP3    H158217   2.927   2.259   6.008  0.9779  0.6418  2.1721
12242TIP3    H258218   2.828   2.355   6.071 -2.1206  0.0061 -1.3298
12243TIP3   OH258219   5.026   3.709  13.976 -0.3764 -0.5061 -0.7900
12243TIP3    H158220   4.948   3.657  13.959 -1.1240  0.4657 -0.4614
12243TIP3    H258221   5.046   3.692  14.068 -0.8013 -0.0062 -0.5971
12244TIP3   OH258222   3.801   6.246   5.156  0.3401 -0.0864 -0.0196
12244TIP3    H158223   3.844   6.309   5.098 -1.1978  2.6083  1.5535
12244TIP3    H258224   3.872   6.195   5.193  1.8145  1.5162 -0.5108
12245TIP3   OH258225   1.505   2.515   3.345  0.0953  0.1835  0.3696
12245TIP3    H158226   1.533   2.573   3.415  1.4896 -2.1541  1.8791
12245TIP3    H258227   1.564   2.534   3.273  0.8882  0.2762  1.0300
12246TIP3   OH258228   5.576   5.978   5.248 -0.3145  0.0261  0.6200
12246TIP3    H158229   5.646   6.038   5.272  0.3006 -0.3232 -0.2597
12246TIP3    H258230   5.503   6.002   5.305  0.4005  0.6311  1.2954
12247TIP3   OH258231   1.532   6.258  11.741  0.2255  0.3603  0.1026
12247TIP3    H158232   1.488   6.174  11.753  0.3761  0.3153  0.3329
12247TIP3    H258233   1.554   6.260  11.647  1.5157 -0.5013  0.3671
12248TIP3   OH258234   3.792   6.661  11.470 -0.2092  0.2698  0.2545
12248TIP3    H158235   3.744   6.743  11.477  0.0210  0.4916 -0.7054
12248TIP3    H258236   3.827   6.660  11.382 -1.8393 -1.7474 -0.4819
12249TIP3   OH258237   3.143   1.899  13.944 -0.1984  0.4699 -0.0246
12249TIP3    H158238   3.107   1.905  13.855 -0.9308  2.2327  0.3524
12249TIP3    H258239   3.189   1.982  13.957  0.2619  0.0544  1.1121
12250TIP3   OH258240   2.971   5.223  13.434 -0.2804  0.1239 -0.1026
12250TIP3    H158241   2.973   5.128  13.446 -0.5351  0.3247  1.8396
12250TIP3    H258242   2.947   5.258  13.520 -2.7358  1.8407 -1.3749
12251TIP3   OH258243   0.121   4.035   3.722  0.1859  0.4870 -0.1135
12251TIP3    H158244   0.030   4.066   3.724  0.2182  0.5502  0.6314
12251TIP3    H258245   0.164   4.092   3.658  0.1780  1.8382  1.0249
12252TIP3   OH258246   1.553   2.515   3.978 -0.2849 -0.1005 -0.2855
12252TIP3    H158247   1.605   2.434   3.982  0.4157  0.3637  0.1899
12252TIP3    H258248   1.610   2.578   3.933 -0.7351  0.2022 -0.4350
12253TIP3   OH258249   4.826   5.488  11.486  0.2949 -0.1270  0.3896
12253TIP3    H158250   4.836   5.448  11.400 -0.0686  1.0909 -0.2437
12253TIP3    H258251   4.841   5.417  11.548  1.4757 -0.8374 -0.6589
12254TIP3   OH258252   4.844   6.149   1.978  0.5247 -0.2084  0.2696
12254TIP3    H158253   4.755   6.178   1.996 -0.7046 -2.8646 -0.9546
12254TIP3    H258254   4.836   6.094   1.900  3.1513 -0.9679  0.4405
12255TIP3   OH258255   6.797   6.386  11.016 -0.1791 -0.0694 -0.1106
12255TIP3    H158256   6.816   6.345  11.100  0.1285  0.5255  0.1108
12255TIP3    H258257   6.743   6.321  10.970 -0.0987 -0.5222  0.4216
12256TIP3   OH258258   2.620   0.271   5.668 -0.1714  0.5227  0.1085
12256TIP3    H158259   2.704   0.227   5.673  0.6045  1.9782  0.5679
12256TIP3    H258260   2.557   0.202   5.646  1.0749 -0.6489  0.1249
12257TIP3   OH258261   5.123   3.455  16.305 -0.2783 -0.3151 -0.1180
12257TIP3    H158262   5.196   3.393  16.301 -0.6761 -0.8131  0.1884
12257TIP3    H258263   5.077   3.443  16.222 -0.2624 -0.3092 -0.1276
12258TIP3   OH258264   0.549   4.287   4.671 -0.7594 -0.5506 -0.1448
12258TIP3    H158265   0.628   4.338   4.688 -1.7686  0.6310  1.3140
12258TIP3    H258266   0.545   4.279   4.576  0.4530  0.4465 -0.2968
12259TIP3   OH258267   5.708   5.147   2.028 -0.2456  0.3803  0.2225
12259TIP3    H158268   5.667   5.117   1.947  0.0758 -0.6073  0.4086
12259TIP3    H258269   5.635   5.160   2.089 -0.6209  2.4490 -0.5970
12260TIP3   OH258270   4.339   4.614  12.415 -0.0279  0.4843  0.2710
12260TIP3    H158271   4.331   4.629  12.321 -1.1573  0.4973  0.3641
12260TIP3    H258272   4.425   4.571  12.425 -0.0491  0.1660 -0.7909
12261TIP3   OH258273   5.156   6.324  15.878 -0.4174 -0.3280  0.6429
12261TIP3    H158274   5.214   6.248  15.891 -0.0999  0.0110  1.2775
12261TIP3    H258275   5.214   6.400  15.891 -0.8559  0.0183  0.5792
12262TIP3   OH258276   3.508   0.761   0.519  0.4032  0.1283  0.4423
12262TIP3    H158277   3.448   0.836   0.512 -0.5062 -0.5188  1.0632
12262TIP3    H258278   3.486   0.705   0.445  1.0864  0.4554 -0.0239
12263TIP3   OH258279   5.142   0.315  14.970  0.1864  0.6914  0.0551
12263TIP3    H158280   5.101   0.392  14.929  0.4712  0.8579  0.0869
12263TIP3    H258281   5.137   0.332  15.064  1.7942  1.4746  0.0297
12264TIP3   OH258282   4.783   4.549   5.446  0.0574 -0.4349  0.3652
12264TIP3    H158283   4.859   4.516   5.493  0.0110 -0.3197  0.5215
12264TIP3    H258284   4.819   4.589   5.366  0.1165 -0.8388  0.1851
12265TIP3   OH258285   6.328   1.512   1.971  0.0899 -0.0682  0.0804
12265TIP3    H158286   6.318   1.434   1.916  2.3369  0.3752 -1.0732
12265TIP3    H258287   6.408   1.496   2.021  0.4723  1.3930 -0.0264
12266TIP3   OH258288   2.574   1.577   0.567 -0.4221  0.2939  0.1716
12266TIP3    H158289   2.611   1.628   0.639 -0.6217 -1.4144  1.5520
12266TIP3    H258290   2.619   1.609   0.489  0.8443  1.2130  1.2410
12267TIP3   OH258291   4.888   5.364  12.884 -0.2359 -0.7444  0.0256
12267TIP3    H158292   4.826   5.349  12.956 -2.3347 -0.1107 -1.5473
12267TIP3    H258293   4.955   5.297  12.896 -1.8426 -2.2482  1.1712
12268TIP3   OH258294   0.639   3.472  16.131  0.0843 -0.4669  0.0201
12268TIP3    H158295   0.719   3.438  16.093 -1.1729 -0.8090 -2.5220
12268TIP3    H258296   0.624   3.418  16.209  1.2051 -1.7540 -0.6223
12269TIP3   OH258297   4.484   1.886  13.402 -0.1675 -0.3227 -0.3807
12269TIP3    H158298   4.440   1.812  13.359  0.2189  0.1004 -1.5493
12269TIP3    H258299   4.573   1.855  13.416 -0.0890 -0.1909 -0.5877
12270TIP3   OH258300   5.230   2.423   6.506 -0.0724 -0.1650  0.0968
12270TIP3    H158301   5.167   2.365   6.549 -2.9913  0.4679 -2.9407
12270TIP3    H258302   5.303   2.366   6.481 -1.5065 -1.9495 -0.1981
12271TIP3   OH258303   3.472   3.218  14.556  0.0190 -0.5108  0.3297
12271TIP3    H158304   3.486   3.253  14.644  3.3146 -4.4687  1.7391
12271TIP3    H258305   3.557   3.185  14.529 -1.9593 -4.8622 -1.6683
12272TIP3   OH258306   5.025   4.077   1.681  0.1431 -0.2275 -0.4870
12272TIP3    H158307   5.064   4.155   1.719  0.4126 -0.5158 -0.1663
12272TIP3    H258308   5.086   4.052   1.611  0.0687 -0.1613 -0.5750
12273TIP3   OH258309   4.181   5.266  15.614 -0.3450  0.1328 -0.8922
12273TIP3    H158310   4.191   5.196  15.679 -0.8304  1.6897  0.9575
12273TIP3    H258311   4.261   5.318  15.623 -1.0390  1.1505 -0.5384
12274TIP3   OH258312   0.280   0.521  15.101 -0.4681  0.1114  0.5070
12274TIP3    H158313   0.236   0.449  15.146 -0.8722  0.1130  0.1206
12274TIP3    H258314   0.327   0.479  15.029 -0.0573  0.1414  0.7586
12275TIP3   OH258315   6.030   2.627   4.637  0.4205  0.8971  0.3352
12275TIP3    H158316   6.021   2.602   4.729 -0.3195 -0.0889  0.0025
12275TIP3    H258317   5.942   2.652   4.610  0.0167 -1.5455 -0.8596
12276TIP3   OH258318   0.182   4.560  14.547 -0.4228 -0.3946 -0.3463
12276TIP3    H158319   0.126   4.514  14.609 -1.0456 -0.2842 -0.8146
12276TIP3    H258320   0.179   4.506  14.468  2.6217 -2.0795  0.5396
12277TIP3   OH258321   4.086   6.533  16.879 -0.6905 -0.2612 -0.4728
12277TIP3    H158322   4.110   6.581  16.959 -3.4019  0.6747 -0.1094
12277TIP3    H258323   4.134   6.578  16.810 -0.8228  1.0799  0.2576
12278TIP3   OH258324   1.370   5.820   6.753 -0.4626  0.1272  0.1888
12278TIP3    H158325   1.291   5.795   6.704 -0.0155 -0.7193 -0.1175
12278TIP3    H258326   1.339   5.888   6.814 -0.8431  1.9043 -1.8574
12279TIP3   OH258327   4.967   0.229   3.219 -0.0148 -0.4269 -0.1950
12279TIP3    H158328   5.036   0.213   3.154  0.9682  0.3037  0.6288
12279TIP3    H258329   4.972   0.154   3.278 -1.1090 -1.2416 -1.1027
12280TIP3   OH258330   1.721   0.807   1.243 -0.2169 -0.3932 -0.2393
12280TIP3    H158331   1.800   0.763   1.210 -1.2863 -2.0369 -0.7412
12280TIP3    H258332   1.754   0.868   1.309  1.4220 -1.6284  0.1595
12281TIP3   OH258333   1.781   3.124   0.355 -0.5179  0.9693 -0.5782
12281TIP3    H158334   1.725   3.192   0.319 -0.8191  0.7079 -0.6062
12281TIP3    H258335   1.740   3.101   0.439  0.3283  1.7722  0.0789
12282TIP3   OH258336   1.056   0.313  15.978 -0.2854  0.3684 -0.5913
12282TIP3    H158337   1.116   0.279  15.912  2.2180  1.2711  1.0853
12282TIP3    H258338   1.055   0.246  16.047 -2.0091 -0.0601 -0.9738
12283TIP3   OH258339   3.308   0.874  11.162 -0.0702 -0.4400  0.9036
12283TIP3    H158340   3.240   0.807  11.154  0.6640 -1.2198  1.0126
12283TIP3    H258341   3.368   0.856  11.089 -0.9576  1.4385 -0.3817
12284TIP3   OH258342   0.038   5.104  10.719 -0.3515  0.4320 -0.1650
12284TIP3    H158343   0.121   5.110  10.766 -1.0053  0.2072  1.0437
12284TIP3    H258344   0.033   5.184  10.668  0.7927  0.2611 -0.5721
12285TIP3   OH258345   2.640   5.239   1.390  0.3239 -0.7715  0.1175
12285TIP3    H158346   2.670   5.257   1.479  1.2757 -2.9161  0.2838
12285TIP3    H258347   2.720   5.230   1.338 -0.1984 -0.4031 -0.7917
12286TIP3   OH258348   3.421   6.745  12.454 -0.1831 -0.0425 -0.1271
12286TIP3    H158349   3.498   6.764  12.507 -0.4339  0.1045  0.1893
12286TIP3    H258350   3.354   6.805  12.486  0.0682  1.0737 -1.5964
12287TIP3   OH258351   1.588   3.057  12.471  0.3282  0.3771 -0.5421
12287TIP3    H158352   1.560   2.967  12.491  0.5731  0.1241 -1.3158
12287TIP3    H258353   1.683   3.051  12.459  0.5194  0.9586  0.5478
12288TIP3   OH258354   6.379   6.573   2.623 -0.6082 -0.3468 -0.3616
12288TIP3    H158355   6.296   6.588   2.577 -1.3340 -1.4557  0.5312
12288TIP3    H258356   6.414   6.494   2.582 -0.3119 -0.2554 -0.2841
12289TIP3   OH258357   6.083   4.602  14.990 -0.4360 -0.7859 -0.1310
12289TIP3    H158358   6.064   4.570  15.078  2.3416 -1.9291  0.1474
12289TIP3    H258359   6.147   4.672  15.003 -1.9075  0.8274 -1.1462
12290TIP3   OH258360   4.270   1.255  12.928  0.2211 -0.5488  0.3192
12290TIP3    H158361   4.226   1.324  12.878 -1.2712 -0.6157  1.4357
12290TIP3    H258362   4.326   1.302  12.990 -1.3214 -0.2204  1.5583
12291TIP3   OH258363   2.457   0.001  16.705 -0.0714 -0.1980 -0.4143
12291TIP3    H158364   2.400  -0.027  16.777 -0.9309  0.7662 -0.6827
12291TIP3    H258365   2.446  -0.066  16.638 -1.6721  0.4240 -0.8397
12292TIP3   OH258366   3.815   6.521  17.106  0.1208 -0.0249 -0.0402
12292TIP3    H158367   3.850   6.469  17.179 -0.8421 -0.7768 -0.1042
12292TIP3    H258368   3.827   6.466  17.029  0.3521  0.4230 -0.3290
12293TIP3   OH258369   2.453   1.689  11.916  0.3758  0.3710 -0.8435
12293TIP3    H158370   2.367   1.718  11.946  1.0819 -0.7600  2.7074
12293TIP3    H258371   2.505   1.769  11.913 -0.9047  1.2678 -4.1564
12294TIP3   OH258372   3.642   6.495   4.570 -0.3033 -0.3977 -0.1630
12294TIP3    H158373   3.662   6.552   4.645  0.4237 -0.9023  0.0335
12294TIP3    H258374   3.674   6.544   4.494  0.5430 -0.6335  0.0281
12295TIP3   OH258375   5.458   2.031  14.344 -0.1345  0.0866 -0.2252
12295TIP3    H158376   5.397   2.101  14.318  0.0450  0.1062 -0.6097
12295TIP3    H258377   5.500   2.005  14.262 -0.1668 -0.4452 -0.0761
12296TIP3   OH258378   2.517   4.479   3.891 -0.4860  0.3194  0.0573
12296TIP3    H158379   2.503   4.410   3.956  1.7072  0.2472  0.5229
12296TIP3    H258380   2.538   4.432   3.810  1.1964  0.3982  0.4209
12297TIP3   OH258381   1.535   1.512   5.751 -0.1776 -0.1411  0.0070
12297TIP3    H158382   1.470   1.518   5.681 -0.9843 -2.0692  0.5038
12297TIP3    H258383   1.604   1.457   5.714 -0.7244 -1.3775  0.7573
12298TIP3   OH258384   0.382   0.750   5.786 -0.0943  0.0082 -0.0506
12298TIP3    H158385   0.390   0.700   5.704 -0.3862  1.6816 -1.1460
12298TIP3    H258386   0.442   0.824   5.774  0.9071 -0.4312  1.8466
12299TIP3   OH258387   2.187   4.516  15.296  0.1871 -0.2382 -0.5326
12299TIP3    H158388   2.145   4.431  15.281  0.0887 -0.2448 -0.2265
12299TIP3    H258389   2.117   4.572  15.329  0.6086 -0.5175  0.8897
12300TIP3   OH258390   2.193   3.104  15.858 -0.2037 -0.7581  0.4874
12300TIP3    H158391   2.106   3.064  15.860 -1.0652  1.0497  0.8261
12300TIP3    H258392   2.180   3.191  15.822  1.4697 -0.4218  0.5796
12301TIP3   OH258393   5.344   0.539   0.419 -0.9744  0.2232 -0.2695
12301TIP3    H158394   5.269   0.482   0.407 -0.4929 -0.2382 -1.2034
12301TIP3    H258395   5.405   0.513   0.350 -1.0072  2.2802 -1.1476
12302TIP3   OH258396   5.956   4.980  15.602  0.4197  0.0065 -0.4703
12302TIP3    H158397   5.968   5.004  15.694  3.2849 -1.8744 -0.2167
12302TIP3    H258398   5.984   5.057  15.553 -0.1934  0.6849  0.2361
12303TIP3   OH258399   5.331   3.878   4.811 -0.0282 -0.1564 -0.3057
12303TIP3    H158400   5.410   3.918   4.773  1.1500 -2.6389 -0.6963
12303TIP3    H258401   5.259   3.912   4.758  0.8940  1.3941 -0.6067
12304TIP3   OH258402   4.075   1.668   2.886  0.1682 -0.0550 -0.6688
12304TIP3    H158403   4.085   1.656   2.792 -0.7714 -1.7245 -0.6052
12304TIP3    H258404   4.162   1.653   2.922  0.6173  0.9955 -1.2900
12305TIP3   OH258405   1.612   5.628   3.762 -0.6266 -0.3314 -0.5589
12305TIP3    H158406   1.548   5.631   3.833  0.3582 -2.8379  0.5328
12305TIP3    H258407   1.662   5.709   3.771 -1.7977  0.3299  0.3276
12306TIP3   OH258408   3.400   6.173  16.049  0.3076  0.2229 -0.3362
12306TIP3    H158409   3.440   6.205  16.130  0.0419 -1.0007  0.3022
12306TIP3    H258410   3.423   6.080  16.047  1.4916  0.5018 -2.3808
12307TIP3   OH258411   0.729   4.355  13.449  0.3973  0.9440  0.1597
12307TIP3    H158412   0.688   4.271  13.432  1.8471  0.3420 -0.5935
12307TIP3    H258413   0.790   4.368  13.376 -0.5506  3.1733 -0.3346
12308TIP3   OH258414   0.862   5.199  15.796 -0.1063  0.1735 -0.2022
12308TIP3    H158415   0.895   5.270  15.851  0.8800  0.4759 -1.1439
12308TIP3    H258416   0.936   5.139  15.788 -0.1689  0.2151 -1.3053
12309TIP3   OH258417   0.770   2.950  15.890 -0.0682  0.2494  0.0016
12309TIP3    H158418   0.703   2.967  15.956  0.3941  0.1290  0.5180
12309TIP3    H258419   0.796   3.036  15.858 -0.6908  0.2798 -0.4340
12310TIP3   OH258420   3.454   6.440  15.032 -0.1153 -0.0641 -0.8277
12310TIP3    H158421   3.445   6.510  14.968 -1.4196 -0.2350 -0.8630
12310TIP3    H258422   3.510   6.375  14.989 -0.8185 -0.0845 -1.7242
12311TIP3   OH258423   3.826   6.719   3.094  0.2034 -0.2538 -0.0247
12311TIP3    H158424   3.783   6.650   3.144 -1.1419  0.2257 -0.4776
12311TIP3    H258425   3.784   6.800   3.124  2.8939  0.6081  1.7112
12312TIP3   OH258426   2.984   2.850  11.264 -0.2067  0.6888 -0.4350
12312TIP3    H158427   2.976   2.886  11.176  2.3577  2.0597 -0.1917
12312TIP3    H258428   3.014   2.760  11.251  1.9596  1.4424 -1.0042
12313TIP3   OH258429   1.458   2.101  15.730 -0.9586 -0.3290  0.2091
12313TIP3    H158430   1.381   2.047  15.748  0.4100 -1.9075  1.8846
12313TIP3    H258431   1.531   2.040  15.737  0.4393  0.9028 -2.2590
12314TIP3   OH258432   5.527   3.195  16.123  0.1019  0.2348 -0.2706
12314TIP3    H158433   5.521   3.101  16.142  0.5568  0.0002 -1.1776
12314TIP3    H258434   5.439   3.219  16.092  0.2094 -0.1043 -0.8631
12315TIP3   OH258435   3.309   1.192   1.721  0.1074  0.4142 -0.0542
12315TIP3    H158436   3.311   1.269   1.664 -1.2674  0.0957 -0.5695
12315TIP3    H258437   3.394   1.150   1.706  0.1674  0.8806 -1.1120
12316TIP3   OH258438   4.686   4.805   2.787  0.0273 -0.4748 -1.2414
12316TIP3    H158439   4.663   4.734   2.848  1.3542 -0.1534 -0.3152
12316TIP3    H258440   4.605   4.823   2.740 -1.6895  0.6564  1.8462
12317TIP3   OH258441   5.580   4.347  12.784 -0.0262 -0.5604  0.1393
12317TIP3    H158442   5.597   4.255  12.765  0.0413 -0.1591 -1.9549
12317TIP3    H258443   5.656   4.376  12.834 -0.4756 -1.8153  1.6684
12318TIP3   OH258444   0.389   1.647  12.050  0.2581 -0.8486  0.0719
12318TIP3    H158445   0.331   1.675  12.121 -0.4944 -1.5639 -0.2461
12318TIP3    H258446   0.421   1.729  12.012 -0.4039 -0.4465  0.3653
12319TIP3   OH258447   5.918   0.793  12.609  0.1374  0.1606  0.0256
12319TIP3    H158448   5.828   0.771  12.585 -0.0327  1.6469 -0.8322
12319TIP3    H258449   5.923   0.888  12.600  2.7172 -0.0955 -3.4491
12320TIP3   OH258450   5.194   4.354   1.077  0.1794 -0.1101 -0.0316
12320TIP3    H158451   5.205   4.271   1.122  0.0751 -0.6785 -1.0272
12320TIP3    H258452   5.117   4.393   1.118  0.7191 -0.1047  1.0102
12321TIP3   OH258453   4.698   5.933  11.196 -0.3781 -0.2205  0.0276
12321TIP3    H158454   4.632   5.975  11.251 -0.3152 -0.8573  0.6153
12321TIP3    H258455   4.703   5.987  11.117 -2.2468 -0.6437 -0.4295
12322TIP3   OH258456   4.544   1.223  14.209 -0.5124 -0.3638 -0.3480
12322TIP3    H158457   4.631   1.241  14.172 -1.0193  1.0035 -0.9431
12322TIP3    H258458   4.541   1.128  14.217  1.0719 -0.4382 -0.2407
12323TIP3   OH258459   0.317   4.256   2.110 -0.2779  0.7244 -0.2996
12323TIP3    H158460   0.311   4.251   2.014  1.3592  0.4574 -0.4146
12323TIP3    H258461   0.256   4.189   2.140  0.2166 -0.1798 -1.2152
12324TIP3   OH258462   3.861   2.573   3.653  0.3100  0.2492  0.2122
12324TIP3    H158463   3.847   2.668   3.654 -3.0666 -0.0801  2.3362
12324TIP3    H258464   3.952   2.561   3.680  0.6669  2.8499  0.4017
12325TIP3   OH258465   3.131   1.326  12.889  0.4356 -0.3568  0.4091
12325TIP3    H158466   3.090   1.386  12.951 -0.4200 -1.9318  1.4425
12325TIP3    H258467   3.076   1.248  12.892  0.0836 -0.3476 -2.7185
12326TIP3   OH258468   0.520   4.163   2.601  0.1683  0.2304  0.3214
12326TIP3    H158469   0.547   4.213   2.524 -0.3737  0.6212  0.3789
12326TIP3    H258470   0.587   4.183   2.667 -0.1780  1.0828  0.4249
12327TIP3   OH258471   2.619   6.484   2.127 -0.2700  0.0034  0.3453
12327TIP3    H158472   2.561   6.452   2.059 -0.6000  3.1333 -1.0278
12327TIP3    H258473   2.573   6.560   2.164  0.9767 -0.1685  2.4062
12328TIP3   OH258474   4.686   0.149  14.737  0.4471  0.2300  0.0168
12328TIP3    H158475   4.769   0.148  14.783 -0.5722  0.2338  1.9426
12328TIP3    H258476   4.667   0.242  14.723  0.6407  0.2363 -0.2173
12329TIP3   OH258477   3.436   4.765  16.983 -0.4405  0.0680 -0.0736
12329TIP3    H158478   3.412   4.857  16.975 -1.9221 -0.4121 -1.7681
12329TIP3    H258479   3.463   4.755  17.075 -0.2809  2.1520  0.1539
12330TIP3   OH258480   1.503   5.256   1.451  0.1652  0.0622  0.3361
12330TIP3    H158481   1.436   5.231   1.514 -0.9745  1.0967 -0.4230
12330TIP3    H258482   1.555   5.324   1.496 -0.7398  0.9106  0.1315
12331TIP3   OH258483   5.628   6.207  16.014 -0.2814  0.2594  0.4274
12331TIP3    H158484   5.581   6.280  15.973  1.1394  0.5842 -0.7134
12331TIP3    H258485   5.653   6.240  16.101  2.4382  2.1506 -0.9232
12332TIP3   OH258486   6.682   0.461  12.681  0.4101  0.5556 -0.4976
12332TIP3    H158487   6.685   0.464  12.585 -0.1964 -0.1730 -0.5484
12332TIP3    H258488   6.710   0.372  12.702  0.9995  0.8569  0.0372
12333TIP3   OH258489   4.568   0.642  12.003 -0.6436  0.3375 -0.1655
12333TIP3    H158490   4.624   0.570  12.030  1.5217  2.5190  1.6343
12333TIP3    H258491   4.612   0.680  11.927 -0.1840  1.4618  0.6452
12334TIP3   OH258492   4.605   0.021   5.401 -0.1268  0.0338 -0.5301
12334TIP3    H158493   4.537   0.030   5.335  0.6481  0.2093 -1.3254
12334TIP3    H258494   4.588   0.091   5.464 -1.8414 -1.1335  0.3706
12335TIP3   OH258495   6.783   1.244  11.586  0.2438 -0.5828  0.2821
12335TIP3    H158496   6.850   1.311  11.569  3.1749 -3.3426 -0.1736
12335TIP3    H258497   6.812   1.201  11.667 -0.7757 -2.0627 -0.0908
12336TIP3   OH258498   3.485   4.652   3.159  0.1171  0.1972 -1.0652
12336TIP3    H158499   3.428   4.582   3.126 -0.0115  0.1499 -0.7463
12336TIP3    H258500   3.476   4.647   3.254  1.6789 -0.6681 -0.9339
12337TIP3   OH258501   1.549   6.372  13.803  0.0987 -0.7509 -0.4431
12337TIP3    H158502   1.485   6.345  13.738  0.0201  1.1810 -1.2282
12337TIP3    H258503   1.498   6.388  13.882 -0.5316  1.3220 -1.2186
12338TIP3   OH258504   5.962   4.589  14.216 -0.1757 -0.2238  0.0528
12338TIP3    H158505   5.963   4.640  14.135 -1.2940 -2.0949 -1.2190
12338TIP3    H258506   6.011   4.509  14.194 -1.7511 -1.4226  0.7091
12339TIP3   OH258507   3.028   5.666  17.241  0.3684  0.4609  0.1986
12339TIP3    H158508   3.020   5.598  17.308  1.7790 -1.3220 -1.3394
12339TIP3    H258509   3.012   5.748  17.288 -0.6640 -0.8450  2.2739
12340TIP3   OH258510   1.924   3.398   1.892  0.1567  0.5273  0.3042
12340TIP3    H158511   1.927   3.491   1.870  1.6724  0.4601  0.1694
12340TIP3    H258512   1.990   3.358   1.836 -0.6638 -0.6880  0.1700
12341TIP3   OH258513   1.118   0.504   4.186 -0.8134  0.3427 -0.3980
12341TIP3    H158514   1.042   0.527   4.239  0.0111  0.2702  0.8617
12341TIP3    H258515   1.082   0.461   4.109 -1.9748 -2.0427  1.3643
12342TIP3   OH258516   6.198   6.660  14.415 -0.2653  0.5680  0.1524
12342TIP3    H158517   6.208   6.645  14.321  1.5171  0.7363  0.2861
12342TIP3    H258518   6.237   6.583  14.456  0.6717  1.3522  0.7568
12343TIP3   OH258519   5.228   1.465   0.619  0.4265 -0.1239 -0.3346
12343TIP3    H158520   5.230   1.374   0.648 -1.2712 -0.4120 -1.0606
12343TIP3    H258521   5.188   1.463   0.533 -0.5919  1.4173  0.0598
12344TIP3   OH258522   5.424   5.689  11.365  0.3725  0.0870 -0.0215
12344TIP3    H158523   5.364   5.623  11.400  0.2104 -0.0394 -0.5305
12344TIP3    H258524   5.448   5.742  11.441  2.2115 -1.8666  0.9013
12345TIP3   OH258525   5.251   6.733   6.417  0.2694  0.7688  0.2848
12345TIP3    H158526   5.158   6.752   6.413 -0.2962 -1.8973 -1.1597
12345TIP3    H258527   5.293   6.807   6.373 -1.1103  2.0149  0.9826
12346TIP3   OH258528   0.143   3.409  16.729  0.1813 -0.0066  0.1944
12346TIP3    H158529   0.192   3.472  16.677  1.3255  0.2722  1.5471
12346TIP3    H258530   0.209   3.363  16.780 -0.7680 -1.3325  0.2917
12347TIP3   OH258531   0.322   1.300   6.215  0.0958 -0.4212  0.2608
12347TIP3    H158532   0.252   1.364   6.204  0.0841 -0.5101 -0.1999
12347TIP3    H258533   0.361   1.291   6.128  0.7190 -0.3254  0.5174
12348TIP3   OH258534   4.415   2.263   2.271  0.0601  0.0501 -0.2501
12348TIP3    H158535   4.409   2.281   2.365 -0.1540  0.4876 -0.3458
12348TIP3    H258536   4.509   2.263   2.253  0.1455 -0.8929  0.1214
12349TIP3   OH258537   1.016   3.839  10.914  0.1378 -0.2095 -0.2279
12349TIP3    H158538   1.051   3.756  10.945  2.7717  1.7435  2.6260
12349TIP3    H258539   1.075   3.865  10.844 -2.4838 -1.9638 -3.3403
12350TIP3   OH258540   1.742   5.561   4.089  0.1331 -0.2203 -0.2254
12350TIP3    H158541   1.785   5.565   4.004 -2.2685 -0.6768 -1.5569
12350TIP3    H258542   1.756   5.471   4.119 -0.4769 -0.5863 -0.9974
12351TIP3   OH258543   3.986   1.137  15.939  0.5059  0.9092 -0.0037
12351TIP3    H158544   4.014   1.204  15.877 -0.4577  0.4188 -1.0220
12351TIP3    H258545   3.921   1.086  15.890 -0.3199  0.5293  1.4350
12352TIP3   OH258546   6.565   1.062   1.161 -1.0997 -0.2293  0.5224
12352TIP3    H158547   6.567   1.148   1.121  0.4899 -0.5697 -0.2244
12352TIP3    H258548   6.571   1.001   1.088  0.7430 -0.8790  1.1341
12353TIP3   OH258549   5.696   2.471   4.878 -0.3623 -0.2656  0.6451
12353TIP3    H158550   5.601   2.484   4.878 -0.3775 -0.1044  2.1238
12353TIP3    H258551   5.710   2.399   4.941  0.5407  0.3001  1.1124
12354TIP3   OH258552   2.320   0.166  11.348  0.4673  0.1772  0.4183
12354TIP3    H158553   2.249   0.229  11.337  0.4223  0.2867  1.2479
12354TIP3    H258554   2.377   0.205  11.414  0.1223 -0.8952  1.3906
12355TIP3   OH258555   4.282   0.369  15.289  0.5171 -0.3118  0.0920
12355TIP3    H158556   4.330   0.406  15.363  1.9040  0.2136 -1.0062
12355TIP3    H258557   4.311   0.278  15.285  0.7724 -0.2237 -0.0634
12356TIP3   OH258558   5.297   3.539   5.448  0.5854 -0.8137 -0.0598
12356TIP3    H158559   5.252   3.583   5.519  0.8776 -3.3407  1.8397
12356TIP3    H258560   5.387   3.529   5.478  0.4622 -2.9093 -0.2031
12357TIP3   OH258561   4.410   6.342   5.094 -0.4031 -0.7956 -0.2117
12357TIP3    H158562   4.505   6.339   5.107 -0.1066  1.6096 -1.2556
12357TIP3    H258563   4.384   6.250   5.090  2.1078 -1.5630 -1.3548
12358TIP3   OH258564   5.890   5.541  12.600 -0.4655 -0.4515 -0.5879
12358TIP3    H158565   5.900   5.607  12.531 -0.1351  1.9481  1.5874
12358TIP3    H258566   5.798   5.516  12.596 -0.4052 -0.5327 -2.0012
12359TIP3   OH258567   1.213   6.296   0.365 -0.1738 -0.2537  0.1315
12359TIP3    H158568   1.132   6.344   0.382 -0.3901 -0.9548  1.2008
12359TIP3    H258569   1.223   6.299   0.270 -2.1503 -1.1902 -0.1724
12360TIP3   OH258570   5.077   4.774  14.416 -0.2964 -0.5093  0.3959
12360TIP3    H158571   5.108   4.857  14.452 -2.2210  0.1732  0.5989
12360TIP3    H258572   4.999   4.797  14.366  1.8995 -1.5143 -3.8759
12361TIP3   OH258573   2.061   4.564   4.268 -0.0843  0.2696 -0.0613
12361TIP3    H158574   2.149   4.557   4.306  0.0892  1.9269 -0.1203
12361TIP3    H258575   2.075   4.556   4.173 -0.2211 -1.2025  0.0176
12362TIP3   OH258576   1.643   0.335  14.815 -0.1298 -0.1851 -0.2897
12362TIP3    H158577   1.588   0.411  14.799 -2.3873 -1.6649 -0.0155
12362TIP3    H258578   1.627   0.312  14.906  1.2422 -0.4737 -0.0963
12363TIP3   OH258579   4.038   2.687  16.187  0.2467  0.0109  0.0143
12363TIP3    H158580   4.073   2.604  16.155  0.7659  0.1664  0.1716
12363TIP3    H258581   4.100   2.753  16.155  0.9078  0.1537  1.5056
12364TIP3   OH258582   2.687   0.755   6.276  0.2332  0.1127 -0.2481
12364TIP3    H158583   2.708   0.816   6.205 -2.4558  0.9156 -0.4512
12364TIP3    H258584   2.703   0.805   6.355  0.1159  0.3342 -0.3632
12365TIP3   OH258585   5.946   0.226   4.327  0.0059  0.1727  0.4712
12365TIP3    H158586   5.881   0.296   4.333 -0.3924 -0.1494  0.0176
12365TIP3    H258587   5.925   0.168   4.400 -1.0469 -0.6072 -0.4205
12366TIP3   OH258588   6.202   4.831   1.836 -0.0155 -0.5734  0.4407
12366TIP3    H158589   6.192   4.856   1.744 -0.0855 -1.3717  0.2202
12366TIP3    H258590   6.240   4.908   1.878 -1.1259  0.2410 -0.0050
12367TIP3   OH258591   3.685   4.520  11.060 -0.2425  0.1777 -0.5980
12367TIP3    H158592   3.642   4.605  11.070  1.8790  1.3006 -0.4810
12367TIP3    H258593   3.660   4.491  10.972 -0.7243  1.0570 -0.7637
12368TIP3   OH258594   3.219   2.039   5.348 -0.3621 -0.0796  0.1700
12368TIP3    H158595   3.146   2.093   5.315 -1.1804 -0.3037  1.5212
12368TIP3    H258596   3.278   2.102   5.390 -0.5946 -0.0638  0.4809
12369TIP3   OH258597   4.799   4.768  14.315 -0.2294  0.4150 -0.2742
12369TIP3    H158598   4.723   4.810  14.275 -1.1780 -0.0264  0.9869
12369TIP3    H258599   4.782   4.772  14.409  0.7222 -0.7959 -0.0226
12370TIP3   OH258600   1.340   0.201  13.306 -0.2203 -0.0486 -0.2178
12370TIP3    H158601   1.425   0.242  13.320 -0.1128  0.7437 -2.7125
12370TIP3    H258602   1.277   0.269  13.327 -0.3119 -0.6696  1.7379
12371TIP3   OH258603   1.919   3.109  11.824 -0.6802  0.0517  0.5945
12371TIP3    H158604   1.831   3.082  11.796 -0.8745 -1.3634  2.3388
12371TIP3    H258605   1.974   3.096  11.747 -2.0692  1.5491 -0.7156
12372TIP3   OH258606   1.356   3.913   1.178  0.1074  0.0817  0.8616
12372TIP3    H158607   1.417   3.860   1.126  2.2893 -0.0781  3.3979
12372TIP3    H258608   1.284   3.854   1.199  0.8785 -0.8770  0.8705
12373TIP3   OH258609   0.143   2.522   5.095  0.6916  0.1697  0.3487
12373TIP3    H158610   0.112   2.535   5.006  1.6740 -1.0125 -0.1910
12373TIP3    H258611   0.177   2.433   5.097  3.2024  1.0371  1.0994
12374TIP3   OH258612   2.920   1.987   2.071  0.1037 -0.3544 -0.4169
12374TIP3    H158613   2.847   2.026   2.119  0.3287 -1.7872  1.2133
12374TIP3    H258614   2.956   2.059   2.019 -1.8543  0.6126 -0.5425
12375TIP3   OH258615   4.585   6.113  14.022 -0.1317  0.4875 -0.0042
12375TIP3    H158616   4.639   6.192  14.019 -2.3413  2.0917  0.2104
12375TIP3    H258617   4.523   6.123  13.950 -1.3829 -0.3306  0.9096
12376TIP3   OH258618   2.682   4.636   5.336 -0.0118  0.1191  0.0620
12376TIP3    H158619   2.686   4.548   5.300  0.8196 -1.0030  2.6748
12376TIP3    H258620   2.598   4.671   5.305  0.9124 -0.3635 -3.4376
12377TIP3   OH258621   3.038   3.673   5.728 -0.8950 -0.3792 -0.2436
12377TIP3    H158622   2.958   3.675   5.675 -0.6412  0.0355 -0.6157
12377TIP3    H258623   3.012   3.714   5.811 -0.9476  0.2100 -0.5420
12378TIP3   OH258624   1.284   3.385  14.055 -0.4832 -0.1551 -0.1849
12378TIP3    H158625   1.227   3.404  14.130 -0.0034 -1.5598  0.5643
12378TIP3    H258626   1.223   3.361  13.984 -0.8910  0.2115  0.0344
12379TIP3   OH258627   4.661   1.372  11.420  0.1440 -0.0325  0.4944
12379TIP3    H158628   4.629   1.395  11.333 -1.3062  0.2777  1.0769
12379TIP3    H258629   4.705   1.451  11.451  3.3936 -1.0706 -1.0852
12380TIP3   OH258630   5.810   5.391   5.732  0.0708 -0.1938  0.2832
12380TIP3    H158631   5.726   5.347   5.746  1.0470 -1.9005  1.1357
12380TIP3    H258632   5.787   5.482   5.716 -1.8256 -0.0835  3.0234
12381TIP3   OH258633   6.431   1.117  17.176 -0.2540  0.1187  0.1730
12381TIP3    H158634   6.448   1.193  17.231 -0.1664  2.4888 -2.8491
12381TIP3    H258635   6.518   1.080  17.159  0.0513  1.1088 -0.5628
12382TIP3   OH258636   3.002   4.048  14.429 -0.0336 -0.0693  0.1906
12382TIP3    H158637   2.938   4.072  14.496  0.2094  0.9930  0.0567
12382TIP3    H258638   3.008   4.125  14.373  1.3088 -0.1686  0.1621
12383TIP3   OH258639   6.082   2.087  16.125 -0.0132 -0.1784 -0.2319
12383TIP3    H158640   6.122   2.162  16.080  2.3889 -1.5300 -0.5338
12383TIP3    H258641   6.083   2.017  16.059 -1.3353 -0.7500  0.3298
12384TIP3   OH258642   3.338   2.638  12.719 -0.0292  0.6915  0.0329
12384TIP3    H158643   3.389   2.696  12.775 -1.8070  2.0899  0.3202
12384TIP3    H258644   3.366   2.661  12.630 -1.5110  2.9626  0.0557
12385TIP3   OH258645   4.064   2.992  10.265 -0.2940 -0.5048 -0.3005
12385TIP3    H158646   4.071   2.993  10.360  0.4076  1.7197 -0.3317
12385TIP3    H258647   4.044   3.082  10.241 -0.8241 -1.0872 -2.2650
12386TIP3   OH258648   0.305   3.593  15.119  0.4864 -0.2156  0.2047
12386TIP3    H158649   0.311   3.499  15.136 -1.6074 -0.6233 -1.0389
12386TIP3    H258650   0.353   3.606  15.038 -0.6288 -0.5186 -0.5169
12387TIP3   OH258651   3.369   2.701  12.441 -0.0273  0.0661 -0.4076
12387TIP3    H158652   3.323   2.753  12.375  1.4560 -0.8484 -2.2590
12387TIP3    H258653   3.362   2.611  12.410  0.8231 -0.3695  0.6176
12388TIP3   OH258654   3.568   3.239   2.044  0.4999  0.0629  0.1946
12388TIP3    H158655   3.610   3.207   2.124  0.3324  2.4098  1.3044
12388TIP3    H258656   3.618   3.317   2.020 -2.4190  2.3323  0.9467
12389TIP3   OH258657   2.234   3.677   1.033 -0.6603  0.4521  0.1008
12389TIP3    H158658   2.173   3.691   0.960 -0.3750 -2.9316 -0.9316
12389TIP3    H258659   2.320   3.674   0.992 -0.0718  2.0641  1.1305
12390TIP3   OH258660   5.670   4.853  14.753  0.0155  0.4179  0.3098
12390TIP3    H158661   5.762   4.837  14.775  0.6110  1.0073 -1.6005
12390TIP3    H258662   5.642   4.773  14.709  0.2060  0.9421 -0.8030
12391TIP3   OH258663   5.952   2.218  14.004 -0.5443  0.5527 -0.0531
12391TIP3    H158664   5.867   2.257  14.020 -1.0582 -0.0131 -1.2759
12391TIP3    H258665   5.977   2.249  13.917 -0.2507 -0.5564 -0.3843
12392TIP3   OH258666   6.026   3.193   4.107 -0.1075  0.5106  0.4674
12392TIP3    H158667   6.113   3.229   4.093 -0.3761  1.2382  0.6297
12392TIP3    H258668   6.040   3.114   4.160  0.5576 -0.0596 -0.5309
12393TIP3   OH258669   6.164   6.499   2.333  0.0982  0.2461  0.6861
12393TIP3    H158670   6.100   6.458   2.274  0.2287  2.0788 -0.7870
12393TIP3    H258671   6.110   6.536   2.403 -0.2697  0.1632  0.4512
12394TIP3   OH258672   3.208   5.262  16.568  0.0838 -0.1656 -0.1968
12394TIP3    H158673   3.279   5.293  16.512 -0.4348 -0.0232 -0.7730
12394TIP3    H258674   3.208   5.323  16.642  0.8593 -0.4387  0.0453
12395TIP3   OH258675   4.450   3.717  14.305  0.0531  0.7653 -0.0666
12395TIP3    H158676   4.512   3.768  14.254  0.0352  0.7778 -0.0758
12395TIP3    H258677   4.488   3.630  14.309  1.4404  1.3916  2.2537
12396TIP3   OH258678   2.059   4.068  11.089 -0.5368 -0.3408  0.0583
12396TIP3    H158679   2.113   4.004  11.134 -0.5411 -0.9574 -0.7853
12396TIP3    H258680   2.114   4.102  11.018  0.1168  1.9666  1.5744
12397TIP3   OH258681   3.852   0.909   1.563 -0.6741 -0.5244 -0.4039
12397TIP3    H158682   3.852   0.975   1.493  1.6441 -0.1804 -0.1620
12397TIP3    H258683   3.838   0.959   1.643 -1.7942 -0.7337 -0.4457
12398TIP3   OH258684   2.543   4.439   5.935 -0.0218  0.6173  0.5877
12398TIP3    H158685   2.480   4.403   5.998  0.2260 -1.7443 -0.3878
12398TIP3    H258686   2.492   4.455   5.856 -0.2645  3.2424  1.2129
12399TIP3   OH258687   2.192   4.060  14.546  0.4982  0.8862  0.3347
12399TIP3    H158688   2.202   3.995  14.616  0.1653  0.6432  0.1566
12399TIP3    H258689   2.270   4.048  14.491 -0.6500 -0.9652 -1.0084
12400TIP3   OH258690   0.964   5.455  15.166 -0.1343  0.2869  0.0532
12400TIP3    H158691   0.927   5.473  15.253  0.7299  0.8197  0.3266
12400TIP3    H258692   0.951   5.537  15.118  2.3105  1.1612  0.7559
12401TIP3   OH258693   5.277   1.957   3.846 -0.0874 -0.4843  0.0517
12401TIP3    H158694   5.353   1.985   3.897  0.6265  0.4011 -1.4495
12401TIP3    H258695   5.299   1.978   3.756 -1.5205 -1.5721 -0.5950
12402TIP3   OH258696   3.207   4.177  13.850 -0.2158  0.4172 -0.1222
12402TIP3    H158697   3.216   4.083  13.834  0.8034  0.7982 -2.1512
12402TIP3    H258698   3.294   4.206  13.879 -0.7831  0.6078  1.5148
12403TIP3   OH258699   2.463   0.487  13.730  0.3926  0.2145  0.0081
12403TIP3    H158700   2.383   0.519  13.771  0.7953 -2.6654  3.5600
12403TIP3    H258701   2.532   0.545  13.762 -0.0127  2.2254 -2.4456
12404TIP3   OH258702   2.478   0.104  15.732 -0.2998 -0.1020 -0.1778
12404TIP3    H158703   2.397   0.064  15.699 -1.2031  0.2371  1.5379
12404TIP3    H258704   2.535   0.107  15.655 -1.4001 -1.6134 -1.1285
12405TIP3   OH258705   4.819   1.347   1.567 -0.6777 -0.2312  0.0050
12405TIP3    H158706   4.785   1.420   1.516 -4.4556 -0.6724  1.5580
12405TIP3    H258707   4.872   1.387   1.636 -0.1475  0.7520 -0.9542
12406TIP3   OH258708   6.591   6.728   5.065  0.3938  0.1204  0.5503
12406TIP3    H158709   6.548   6.723   5.151  0.1255 -0.9292  0.3672
12406TIP3    H258710   6.652   6.654   5.064 -3.3045 -3.3458 -2.0876
12407TIP3   OH258711   1.096   6.361  12.637  0.5569 -0.3420 -0.5585
12407TIP3    H158712   1.091   6.275  12.598  0.6891 -2.0754  2.8543
12407TIP3    H258713   1.187   6.370  12.665  0.2595  0.3220  0.2616
12408TIP3   OH258714   5.323   4.887   2.931  0.2493  0.1720  0.9487
12408TIP3    H158715   5.287   4.800   2.948 -1.4063  0.6903  0.2641
12408TIP3    H258716   5.412   4.870   2.899 -0.2297 -1.2849  0.3178
12409TIP3   OH258717   5.359   0.559  15.700  0.0785 -0.1117  0.4481
12409TIP3    H158718   5.308   0.614  15.641 -1.1439 -0.6650  0.9503
12409TIP3    H258719   5.411   0.620  15.752 -0.9282  0.5511  0.7040
12410TIP3   OH258720   1.049   5.749  16.715  0.6583 -1.2260 -0.4666
12410TIP3    H158721   0.963   5.763  16.754  0.5968  0.9612 -1.2947
12410TIP3    H258722   1.065   5.655  16.728 -2.2062 -1.9134 -1.0413
12411TIP3   OH258723   0.752   5.564   2.793  0.0649  0.1210  0.4618
12411TIP3    H158724   0.827   5.549   2.850 -1.4384 -1.4619  2.1863
12411TIP3    H258725   0.683   5.594   2.853 -0.6751  1.6010 -1.0719
12412TIP3   OH258726   5.051   3.990  11.923  0.2683  0.2550 -0.2061
12412TIP3    H158727   5.020   3.900  11.931  1.7195 -0.0679  4.2446
12412TIP3    H258728   4.983   4.043  11.964  0.7032  0.8525 -0.2343
12413TIP3   OH258729   4.739   6.638   0.636 -0.2002 -0.0763  1.1937
12413TIP3    H158730   4.720   6.669   0.547 -1.8064  0.3341  1.6424
12413TIP3    H258731   4.768   6.548   0.625  0.7031  0.3256  0.1682
12414TIP3   OH258732   3.995   4.940  13.047 -0.1506 -0.9046  0.2800
12414TIP3    H158733   3.947   4.898  12.977 -0.9708  0.7550 -0.2155
12414TIP3    H258734   4.045   5.009  13.004 -0.8852  0.3302  1.3108
12415TIP3   OH258735   6.297   4.064   3.358 -0.1159 -0.2266 -0.3720
12415TIP3    H158736   6.274   4.143   3.307 -1.4657  0.5758  1.3736
12415TIP3    H258737   6.220   4.007   3.349 -0.3057 -0.1407  0.6048
12416TIP3   OH258738   6.121   4.534  13.710  0.3572  0.1187  0.9991
12416TIP3    H158739   6.135   4.600  13.777  1.6048  1.3045 -0.3644
12416TIP3    H258740   6.093   4.583  13.633  0.5349 -1.0132  0.1762
12417TIP3   OH258741   1.774   1.279   1.301 -0.1157  0.0937  0.4754
12417TIP3    H158742   1.796   1.188   1.317  0.0772 -0.3875 -2.0222
12417TIP3    H258743   1.689   1.292   1.343 -0.3110 -1.3404  0.5603
12418TIP3   OH258744   2.263   4.250   5.798  0.5649  0.0437 -0.4337
12418TIP3    H158745   2.255   4.169   5.746  2.1511 -0.8806  0.6502
12418TIP3    H258746   2.249   4.222   5.888 -0.3272  1.2843 -0.1644
12419TIP3   OH258747   5.938   6.381   0.223 -0.0673 -0.5873  0.1242
12419TIP3    H158748   5.846   6.405   0.226 -0.0407 -0.5153  0.4647
12419TIP3    H258749   5.952   6.332   0.305  0.7265  1.3491  1.2069
12420TIP3   OH258750   5.191   3.199  11.412 -0.0354 -0.2942  0.0573
12420TIP3    H158751   5.238   3.194  11.329 -2.3889 -0.4914 -1.3412
12420TIP3    H258752   5.260   3.198  11.479  1.8917 -3.6200 -1.7121
12421TIP3   OH258753   2.928   0.702  15.675  0.6521 -0.0762 -0.2938
12421TIP3    H158754   2.904   0.678  15.764 -0.2516 -0.6341 -0.6756
12421TIP3    H258755   2.850   0.745  15.639  0.1638 -1.9320 -1.5627
12422TIP3   OH258756   1.410   4.471  16.185  0.2775 -0.4756  0.1684
12422TIP3    H158757   1.378   4.386  16.216  0.7241 -0.0733  1.8127
12422TIP3    H258758   1.339   4.504  16.129 -1.8589 -0.0546  2.9114
12423TIP3   OH258759   0.256   2.553  13.668 -0.0427 -0.6235  0.1145
12423TIP3    H158760   0.223   2.640  13.644  0.2878 -0.0015  1.8165
12423TIP3    H258761   0.215   2.494  13.604 -1.3762  0.6002 -0.2181
12424TIP3   OH258762   6.224   5.998   5.298  0.8006 -0.1828  0.1828
12424TIP3    H158763   6.309   5.955   5.296 -0.7983 -3.9040 -3.5919
12424TIP3    H258764   6.163   5.933   5.333 -0.8470  1.6321  0.9340
12425TIP3   OH258765   1.724   5.849  14.591  0.5939 -0.5644 -0.1608
12425TIP3    H158766   1.629   5.860  14.583  0.4525 -1.0220  0.7667
12425TIP3    H258767   1.735   5.790  14.665  1.4510 -3.5335 -2.4531
12426TIP3   OH258768   5.919   6.167  16.174  0.0991 -0.0102  0.1012
12426TIP3    H158769   5.924   6.216  16.256 -0.6970  1.2383 -0.5428
12426TIP3    H258770   5.926   6.235  16.106  0.7805 -1.0159 -0.8605
12427TIP3   OH258771   5.030   4.259  11.717  0.3295 -0.0338  0.4617
12427TIP3    H158772   4.950   4.242  11.766  1.6438 -0.6808  2.5341
12427TIP3    H258773   5.029   4.196  11.645 -1.3578  0.5020 -0.0229
12428TIP3   OH258774   0.590   1.414  12.113  0.5339 -0.2523 -0.1920
12428TIP3    H158775   0.635   1.372  12.040 -0.9102 -1.1113 -0.6333
12428TIP3    H258776   0.526   1.472  12.071  0.4286  0.0729  0.4065
12429TIP3   OH258777   3.304   1.287   5.191 -0.3590 -0.0463  0.1468
12429TIP3    H158778   3.253   1.243   5.123  2.1085 -0.6277 -1.4428
12429TIP3    H258779   3.307   1.225   5.263 -0.0664 -0.9218 -0.6027
12430TIP3   OH258780   2.074   4.403   2.666 -0.5536 -0.2139  0.0597
12430TIP3    H158781   2.159   4.419   2.709 -0.8419 -0.1830  0.6297
12430TIP3    H258782   2.093   4.409   2.572 -0.2536  1.5220  0.1958
12431TIP3   OH258783   2.190   3.677   4.918  0.2472  0.2776  0.0004
12431TIP3    H158784   2.248   3.743   4.956  1.8299 -0.9541 -0.1198
12431TIP3    H258785   2.221   3.668   4.828  1.4852 -2.0132  0.5615
12432TIP3   OH258786   1.771   5.789  11.594  0.5381  0.0322 -0.2213
12432TIP3    H158787   1.796   5.829  11.677  0.1317 -1.0116  0.4198
12432TIP3    H258788   1.696   5.841  11.564 -0.8125 -0.9982  1.2397
12433TIP3   OH258789   6.258   2.232   0.853  0.1292  0.2848 -0.1198
12433TIP3    H158790   6.289   2.288   0.781  1.3498 -1.9917 -1.4861
12433TIP3    H258791   6.296   2.271   0.932 -0.1423  2.0877 -0.8264
12434TIP3   OH258792   5.112   6.659  15.585  0.0013  0.2613 -0.1949
12434TIP3    H158793   5.178   6.590  15.571 -0.1742 -0.1161  0.7811
12434TIP3    H258794   5.061   6.659  15.504 -0.0436 -0.8185 -0.1888
12435TIP3   OH258795   4.335   0.228  16.597 -0.1332  0.0351 -0.4481
12435TIP3    H158796   4.240   0.221  16.587 -0.2349 -2.2756  1.3403
12435TIP3    H258797   4.347   0.286  16.673 -0.1300 -0.1567 -0.3025
12436TIP3   OH258798   0.820   3.135   2.777  0.5671  0.3836 -0.3177
12436TIP3    H158799   0.754   3.190   2.736 -0.1669  0.3927  0.8372
12436TIP3    H258800   0.824   3.057   2.723 -0.8182  0.1299 -0.0810
12437TIP3   OH258801   6.483   4.748   3.232 -0.1877 -0.6796  0.0359
12437TIP3    H158802   6.489   4.814   3.163 -1.0648 -1.0347 -0.3956
12437TIP3    H258803   6.539   4.676   3.202  1.4533  0.1749  0.9050
12438TIP3   OH258804   3.024   0.563   0.322  0.2167 -0.9327  0.5065
12438TIP3    H158805   3.098   0.625   0.319  1.2504 -2.1552 -0.9613
12438TIP3    H258806   2.958   0.601   0.264 -0.0149 -0.2119  1.2241
12439TIP3   OH258807   3.943   1.617   4.262 -0.1659 -0.1959 -0.1030
12439TIP3    H158808   4.027   1.659   4.282 -1.2452  1.5707  1.0342
12439TIP3    H258809   3.881   1.658   4.322 -2.2939  0.2107 -2.4179
12440TIP3   OH258810   2.978   1.867  14.169  0.5192  0.2897  0.6409
12440TIP3    H158811   3.026   1.891  14.090 -1.9231 -1.8412 -1.6705
12440TIP3    H258812   2.903   1.926  14.170  0.8340  0.6902  1.7393
12441TIP3   OH258813   2.731   2.621   1.933  0.1296 -0.7676  0.6338
12441TIP3    H158814   2.732   2.526   1.920 -0.8176 -0.5508 -1.6094
12441TIP3    H258815   2.813   2.651   1.894  0.1518 -0.6153  0.7982
12442TIP3   OH258816   2.815   2.850   0.812 -0.6476 -0.8138  0.1588
12442TIP3    H158817   2.835   2.794   0.736 -1.4963 -0.4243 -0.3695
12442TIP3    H258818   2.849   2.801   0.887 -0.0447 -1.3420 -0.4390
12443TIP3   OH258819   2.017   1.182  16.627  0.7652  0.4352  0.0920
12443TIP3    H158820   1.969   1.247  16.678  0.8261  0.8818 -0.4120
12443TIP3    H258821   2.096   1.166  16.678  0.9128  1.0136  0.0573
12444TIP3   OH258822   6.453   5.003   5.803 -0.1891 -0.1210 -0.4037
12444TIP3    H158823   6.452   5.098   5.807 -1.4523 -0.0204 -1.9518
12444TIP3    H258824   6.533   4.977   5.850 -1.8660  1.3991  3.7191
12445TIP3   OH258825   2.428   6.755   0.707  0.7489 -0.4869  0.2013
12445TIP3    H158826   2.462   6.832   0.662 -1.6560  0.4818 -0.1131
12445TIP3    H258827   2.422   6.780   0.799  0.7658 -0.6051  0.2352
12446TIP3   OH258828   1.119   2.097  14.198  0.2360  0.8770 -0.0139
12446TIP3    H158829   1.149   2.128  14.113 -0.0498 -0.0928 -0.4743
12446TIP3    H258830   1.025   2.115  14.197  0.4875  2.4784  0.8123
12447TIP3   OH258831   0.443   6.802   4.018 -0.0555 -0.4368  0.0982
12447TIP3    H158832   0.444   6.760   4.103 -0.7360  0.1472  0.4082
12447TIP3    H258833   0.385   6.747   3.964  0.2666 -0.7299  0.0489
12448TIP3   OH258834   5.611   3.085   2.492 -0.1131  0.2303  0.7348
12448TIP3    H158835   5.563   3.167   2.501  0.2421  0.4950  0.2374
12448TIP3    H258836   5.677   3.089   2.562  1.5594  1.5384 -0.8134
12449TIP3   OH258837   3.295   0.378  14.087  0.1271  0.3895  0.1869
12449TIP3    H158838   3.341   0.296  14.068  0.3819  0.2207  1.4753
12449TIP3    H258839   3.299   0.387  14.182  1.5694  2.7546 -0.0268
12450TIP3   OH258840   6.430   4.659   6.178 -0.3642  0.0203 -0.1741
12450TIP3    H158841   6.448   4.587   6.239 -0.5642 -1.3414 -1.6466
12450TIP3    H258842   6.507   4.716   6.185 -0.6986  0.3076  1.8318
12451TIP3   OH258843   1.019   6.695   5.413  0.0518 -0.3835 -0.3800
12451TIP3    H158844   1.087   6.663   5.354 -0.3438 -1.0960 -0.4537
12451TIP3    H258845   1.006   6.625   5.476  0.7410  0.5143  0.8136
12452TIP3   OH258846   5.526   1.120  16.537  0.1767  0.3557  0.7166
12452TIP3    H158847   5.444   1.143  16.581 -1.1820 -0.7263 -1.1253
12452TIP3    H258848   5.549   1.034  16.573 -0.0288  0.2192  0.5221
12453TIP3   OH258849   2.158   0.354   0.698 -0.6073 -0.5206  0.3357
12453TIP3    H158850   2.083   0.321   0.748 -0.0410  1.1646  2.4369
12453TIP3    H258851   2.230   0.297   0.724 -0.8339 -1.3019 -0.6660
12454TIP3   OH258852   6.026   0.276   6.109  0.7421  0.4689  0.0693
12454TIP3    H158853   6.077   0.257   6.187 -0.4528 -0.0171  0.7635
12454TIP3    H258854   6.086   0.260   6.036  2.5284  2.8507  0.8737
12455TIP3   OH258855   4.062   1.928  13.293  0.1703  0.4604 -0.3927
12455TIP3    H158856   4.114   1.851  13.268 -0.9852 -0.1298 -1.1196
12455TIP3    H258857   4.120   1.980  13.348  0.7756 -1.2735  0.6873
12456TIP3   OH258858   5.554   0.119   4.769  0.2304 -0.4344  0.5998
12456TIP3    H158859   5.524   0.185   4.706  1.3335  0.2817  0.7941
12456TIP3    H258860   5.508   0.039   4.744 -2.0166  0.6354  1.0457
12457TIP3   OH258861   4.789   0.806   0.168 -0.2517  0.1477  0.2836
12457TIP3    H158862   4.787   0.791   0.263 -0.4220  4.6977  1.2105
12457TIP3    H258863   4.708   0.854   0.150  0.6268  0.9254 -1.8380
12458TIP3   OH258864   0.936   2.550  14.503 -0.6878  0.6858  0.0366
12458TIP3    H158865   0.881   2.503  14.441 -2.3836  2.6569 -0.0786
12458TIP3    H258866   1.026   2.535  14.473 -1.1884 -1.6734 -0.4696
12459TIP3   OH258867   0.635   1.503   3.161  0.4002 -0.2920 -0.2653
12459TIP3    H158868   0.585   1.585   3.164  1.3687  0.2765  0.9466
12459TIP3    H258869   0.572   1.438   3.129  0.2026  1.3319 -3.7255
12460TIP3   OH258870   3.263   4.416   1.737  0.0359 -0.1317  0.1118
12460TIP3    H158871   3.299   4.464   1.812  0.4574  1.1174 -0.8436
12460TIP3    H258872   3.318   4.442   1.663 -0.2045 -1.5414 -0.6014
12461TIP3   OH258873   3.106   2.215  16.664 -0.3597  0.4006  0.4026
12461TIP3    H158874   3.161   2.216  16.585  0.8134  0.4134  1.1884
12461TIP3    H258875   3.166   2.238  16.735 -1.2782 -0.1080  1.3754
12462TIP3   OH258876   5.466   6.656  13.720 -0.6298 -0.1276 -0.4368
12462TIP3    H158877   5.424   6.712  13.655  1.7768  0.5799 -1.4832
12462TIP3    H258878   5.533   6.608  13.671  0.0208 -0.9517  1.1831
12463TIP3   OH258879   1.358   0.705   6.529  0.3622  0.4269 -0.1325
12463TIP3    H158880   1.430   0.642   6.531  1.2161  1.3310 -1.2824
12463TIP3    H258881   1.329   0.706   6.438 -0.1932  1.1072  0.0393
12464TIP3   OH258882   6.238   4.086  16.330 -0.4403 -0.0649  0.7915
12464TIP3    H158883   6.306   4.092  16.396 -0.5494 -2.4832  1.2066
12464TIP3    H258884   6.282   4.048  16.253 -0.6043  1.4993 -0.1115
12465TIP3   OH258885   6.446   0.421  15.196 -0.1669  0.6462 -0.5830
12465TIP3    H158886   6.422   0.364  15.123  1.1695  0.7939 -1.1609
12465TIP3    H258887   6.504   0.368  15.251 -0.8467  0.6680  0.1941
12466TIP3   OH258888   6.593   6.519  13.292  0.1348  0.2928  0.6695
12466TIP3    H158889   6.624   6.571  13.217 -0.5176  2.8304  2.0321
12466TIP3    H258890   6.503   6.496  13.268  0.4707 -0.3570 -0.0083
12467TIP3   OH258891   0.165   2.845   4.781  0.1449  0.4043 -0.4764
12467TIP3    H158892   0.177   2.751   4.770  0.3939  0.1216  1.7210
12467TIP3    H258893   0.157   2.879   4.692  0.2983 -1.6482 -1.3274
12468TIP3   OH258894   2.188   2.945   2.848  0.1396  1.1631  0.3744
12468TIP3    H158895   2.129   2.896   2.905 -0.7921  1.4135 -0.3480
12468TIP3    H258896   2.270   2.897   2.851 -1.1863 -1.4609 -1.5797
12469TIP3   OH258897   3.607   1.588  13.678 -0.5023 -0.4166 -0.2075
12469TIP3    H158898   3.513   1.601  13.689 -0.5208 -0.8704  0.2061
12469TIP3    H258899   3.639   1.566  13.766  0.0132 -0.1214 -0.3152
12470TIP3   OH258900   0.745   2.507   1.014  0.6233 -0.2171 -0.2820
12470TIP3    H158901   0.693   2.515   0.934  4.3297  0.7920 -2.8488
12470TIP3    H258902   0.694   2.553   1.081 -1.8462  0.4425 -2.4808
12471TIP3   OH258903   4.209   1.817  16.062 -0.4763 -0.0724 -1.0482
12471TIP3    H158904   4.218   1.818  16.158  2.6395  1.3573 -1.2327
12471TIP3    H258905   4.184   1.727  16.042 -0.9231 -0.4854  1.0866
12472TIP3   OH258906   1.937   4.433  10.979  0.3731 -0.2089  0.3154
12472TIP3    H158907   1.941   4.385  10.897  1.0779 -0.2298  0.3628
12472TIP3    H258908   2.022   4.476  10.987 -0.4501  1.6060 -0.0561
12473TIP3   OH258909   4.981   3.947  17.049 -0.1857 -0.0933  0.0703
12473TIP3    H158910   4.886   3.947  17.064  0.0247 -3.3069  2.4056
12473TIP3    H258911   5.019   3.960  17.136  1.5211  0.1720 -0.6779
12474TIP3   OH258912   3.503   4.771  11.700  0.3852 -0.5472 -0.0874
12474TIP3    H158913   3.587   4.778  11.745 -1.1901 -0.2001  3.0918
12474TIP3    H258914   3.458   4.699  11.745 -1.7895  0.5983 -0.3193
12475TIP3   OH258915   5.291   5.112  14.836  0.3266  0.1073 -0.2919
12475TIP3    H158916   5.330   5.136  14.752  0.5040 -2.6853 -1.1190
12475TIP3    H258917   5.349   5.045  14.871 -0.2691  0.5507  1.6403
12476TIP3   OH258918   2.764   4.711   2.273 -0.3818  0.1411 -0.1127
12476TIP3    H158919   2.770   4.765   2.194 -3.4614 -2.5184 -2.4538
12476TIP3    H258920   2.708   4.761   2.332  0.9068  1.6146 -0.0785
12477TIP3   OH258921   4.135   5.752   2.625  0.2602 -0.2281  0.3522
12477TIP3    H158922   4.052   5.766   2.671 -0.5118  0.0874 -1.0821
12477TIP3    H258923   4.196   5.814   2.665 -0.6453  0.6988  0.3276
12478TIP3   OH258924   6.417   1.900  14.760  0.2772  0.5224 -0.1390
12478TIP3    H158925   6.375   1.965  14.816  0.6322  0.7569 -0.1414
12478TIP3    H258926   6.419   1.941  14.673 -1.9598 -0.5577 -0.7917
12479TIP3   OH258927   6.077   0.303  14.560  0.1834  0.3482  0.3754
12479TIP3    H158928   6.132   0.379  14.543  1.8986 -0.9836 -0.3462
12479TIP3    H258929   6.090   0.284  14.653  0.6401  0.2868  0.3013
12480TIP3   OH258930   3.358   3.889   4.680 -0.6068 -0.4085  0.0885
12480TIP3    H158931   3.291   3.956   4.688 -0.4476 -0.2888  0.4675
12480TIP3    H258932   3.358   3.845   4.765  0.2702  0.0539  0.3430
12481TIP3   OH258933   5.426   2.565   3.453 -0.1968  0.9346  0.6453
12481TIP3    H158934   5.471   2.594   3.374  1.1228 -0.7250  0.7005
12481TIP3    H258935   5.497   2.552   3.517 -0.5036 -2.6967  0.4512
12482TIP3   OH258936   2.266   6.397   4.831  0.1738  0.2772  0.1358
12482TIP3    H158937   2.235   6.315   4.794 -1.0615 -0.4666  2.6083
12482TIP3    H258938   2.358   6.402   4.805 -0.0527 -1.2212 -1.1131
12483TIP3   OH258939   2.380   4.379  11.223  0.2140 -0.3016 -0.0311
12483TIP3    H158940   2.356   4.291  11.252 -1.7288  0.4507  0.8554
12483TIP3    H258941   2.329   4.392  11.143  1.4979 -0.4306 -0.8948
12484TIP3   OH258942   6.159   0.746   6.440  0.0766 -0.3127  0.2275
12484TIP3    H158943   6.157   0.659   6.480  0.2450 -1.0207 -1.2026
12484TIP3    H258944   6.072   0.782   6.457  0.5471 -0.0296  2.2844
12485TIP3   OH258945   5.224   0.211  13.289 -0.1824 -0.0768  0.5520
12485TIP3    H158946   5.294   0.216  13.223 -0.1175 -0.7184  0.5716
12485TIP3    H258947   5.269   0.220  13.373 -0.0983 -0.6640  0.5732
12486TIP3   OH258948   0.524   6.672  16.566  0.1191 -0.0711  0.4154
12486TIP3    H158949   0.606   6.715  16.591  1.1737 -1.9319  0.2586
12486TIP3    H258950   0.546   6.580  16.554 -1.9654 -0.6055  0.1814
12487TIP3   OH258951   5.692   1.241  12.240  0.0511  0.4544  0.3977
12487TIP3    H158952   5.641   1.287  12.174  0.6388  1.4305  0.6058
12487TIP3    H258953   5.735   1.170  12.192  0.3617  1.0676 -0.2434
12488TIP3   OH258954   0.389   0.789  11.774  0.3866 -0.1329  0.2948
12488TIP3    H158955   0.451   0.751  11.713 -0.8496 -1.2879 -0.2843
12488TIP3    H258956   0.388   0.727  11.848 -0.3713 -0.3370  0.1145
12489TIP3   OH258957   6.120   3.895   5.662  0.5975  0.6641  0.3887
12489TIP3    H158958   6.137   3.923   5.752  1.4489 -1.9863  1.1727
12489TIP3    H258959   6.025   3.901   5.652  0.3516 -0.0258  1.9116
12490TIP3   OH258960   0.288   4.393  12.622 -0.0220 -0.1755  0.4160
12490TIP3    H158961   0.280   4.483  12.654 -0.9536  0.1507 -0.6842
12490TIP3    H258962   0.199   4.368  12.598  0.2525 -1.3452  0.5425
12491TIP3   OH258963   2.899   6.518   1.438  0.1254 -0.3570  0.1238
12491TIP3    H158964   2.840   6.518   1.513  2.5791 -1.5246  2.1801
12491TIP3    H258965   2.857   6.459   1.375 -2.0202  0.7013  0.4729
12492TIP3   OH258966   3.911   2.394   1.284 -0.4456  0.2610  0.3207
12492TIP3    H158967   3.842   2.391   1.218 -1.0363 -1.0344  0.9397
12492TIP3    H258968   3.872   2.439   1.359  0.0944  1.3823 -0.0475
12493TIP3   OH258969   4.969   3.385  12.417 -0.3082  0.1888 -0.1819
12493TIP3    H158970   5.007   3.448  12.355 -0.0460  0.7006  0.4765
12493TIP3    H258971   4.875   3.390  12.402 -0.3396  1.1709  0.2424
12494TIP3   OH258972   0.149   1.110   3.191 -0.4321 -0.5129  0.5008
12494TIP3    H158973   0.226   1.079   3.239 -0.1608 -1.8546 -0.7330
12494TIP3    H258974   0.075   1.062   3.228 -0.2984 -1.1397 -0.0244
12495TIP3   OH258975   0.224   0.308   4.243  0.1863  0.2704  0.5314
12495TIP3    H158976   0.143   0.339   4.201  0.5077 -0.2150 -0.4858
12495TIP3    H258977   0.292   0.364   4.208  0.6618 -1.0146 -0.7250
12496TIP3   OH258978   0.862   3.423  15.163  0.9434 -0.2525  0.8292
12496TIP3    H158979   0.892   3.512  15.142 -0.7553  0.1606  0.0460
12496TIP3    H258980   0.897   3.406  15.251  1.9903  0.8527  0.6451
12497TIP3   OH258981   1.509   2.464  12.937  0.4960  0.0431 -0.1039
12497TIP3    H158982   1.478   2.475  12.847 -2.2358  0.3439  0.7998
12497TIP3    H258983   1.510   2.369  12.951 -1.5080  0.0307  0.2609
12498TIP3   OH258984   6.812   3.812   0.089 -1.0663 -0.5739  0.4696
12498TIP3    H158985   6.763   3.730   0.080 -0.5527 -0.9720  1.2077
12498TIP3    H258986   6.901   3.790   0.061 -1.2325  0.0994 -0.6865
12499TIP3   OH258987   3.141   2.938   2.030 -0.3261  0.0548  0.4267
12499TIP3    H158988   3.181   2.957   2.114 -1.5816  1.1680  0.8099
12499TIP3    H258989   3.141   3.022   1.983  1.7453 -0.8409 -1.3386
12500TIP3   OH258990   6.555   5.899   4.722  0.3570  0.4374  0.4928
12500TIP3    H158991   6.519   5.816   4.692  0.7007  0.6774 -0.6452
12500TIP3    H258992   6.636   5.875   4.766  1.0369  0.2291 -0.8116
12501TIP3   OH258993   4.974   5.097   4.725 -0.5049  0.5587  0.0866
12501TIP3    H158994   4.940   5.137   4.645 -1.5483  1.2615  0.8466
12501TIP3    H258995   4.915   5.129   4.794 -1.0627 -1.8662  0.8305
12502TIP3   OH258996   2.467   3.938  13.600 -0.5340  0.5587 -0.1058
12502TIP3    H158997   2.402   3.883  13.645  0.7538 -0.1721  0.9499
12502TIP3    H258998   2.507   3.989  13.670  0.7007  0.2743 -0.5927
12503TIP3   OH258999   4.018   1.881  15.095 -0.1200 -0.4334  0.0450
12503TIP3    H159000   4.110   1.896  15.117  0.1782  0.5841 -1.6936
12503TIP3    H259001   3.969   1.946  15.144  0.4701  1.4183 -1.6952
12504TIP3   OH259002   1.170   3.113   4.602  0.4247 -0.5792 -0.6374
12504TIP3    H159003   1.129   3.072   4.527  0.4438 -1.7232 -0.0463
12504TIP3    H259004   1.264   3.109   4.584  0.4136 -0.5331 -0.7064
12505TIP3   OH259005   0.314   1.608  11.756  0.3092  0.4931 -0.6695
12505TIP3    H159006   0.335   1.700  11.775  2.5664  0.0712 -0.8480
12505TIP3    H259007   0.305   1.567  11.842  0.6956  0.6154 -0.5653
12506TIP3   OH259008   1.628   6.393   3.332 -0.0839 -0.4002 -0.1857
12506TIP3    H159009   1.550   6.436   3.295 -1.2553 -0.8130  1.6767
12506TIP3    H259010   1.673   6.462   3.381 -0.3900 -0.6257  0.4158
12507TIP3   OH259011   5.077   5.362   0.736  0.1928  0.0696  0.1228
12507TIP3    H159012   5.087   5.333   0.827 -0.9413  1.4956  0.7382
12507TIP3    H259013   5.140   5.434   0.727 -1.3653  1.5627  0.5751
12508TIP3   OH259014   3.020   4.634   2.096  0.1906  0.0788 -0.0998
12508TIP3    H159015   2.950   4.655   2.158  2.2621 -1.0814  2.8519
12508TIP3    H259016   3.016   4.538   2.087 -0.7349  0.2919 -2.7342
12509TIP3   OH259017   4.754   5.146  12.324 -0.0191  0.4632 -0.4696
12509TIP3    H159018   4.750   5.202  12.402  2.3072  0.0369  0.0250
12509TIP3    H259019   4.725   5.061  12.355  1.2046  0.2135  0.0643
12510TIP3   OH259020   3.399   0.312  17.276  1.4899  0.8082 -0.8428
12510TIP3    H159021   3.452   0.247  17.229  0.3624 -1.3290  0.6807
12510TIP3    H259022   3.310   0.277  17.272  1.1083  1.3740  1.4474
12511TIP3   OH259023   1.673   4.563   0.426  0.5080  0.4133  0.5822
12511TIP3    H159024   1.755   4.514   0.426  0.1870 -0.1214  0.4502
12511TIP3    H259025   1.649   4.569   0.519  0.7031  0.5902  0.6229
12512TIP3   OH259026   4.509   6.420   6.426 -0.0809  0.4553  0.1839
12512TIP3    H159027   4.426   6.424   6.475  1.9222 -0.9831  4.1082
12512TIP3    H259028   4.551   6.340   6.456  1.5368 -0.5078 -4.0094
12513TIP3   OH259029   3.757   6.546  10.890  0.0512  0.0981  0.2179
12513TIP3    H159030   3.816   6.511  10.957 -0.5390 -1.6654 -0.1569
12513TIP3    H259031   3.669   6.522  10.919 -0.2163 -0.7307 -1.1699
12514TIP3   OH259032   6.677   6.113  16.268 -0.1484 -0.1794 -0.5844
12514TIP3    H159033   6.663   6.048  16.200 -0.7667 -0.1318 -0.5101
12514TIP3    H259034   6.755   6.161  16.240  0.8590 -1.5133 -0.1877
12515TIP3   OH259035   5.987   2.615  14.868 -0.8997 -0.0692  0.0963
12515TIP3    H159036   5.936   2.638  14.791 -1.5461 -1.1566  0.1806
12515TIP3    H259037   5.946   2.662  14.940 -1.7623 -0.8919  0.1542
12516TIP3   OH259038   6.228   2.568  16.096  0.2503  0.4709  0.0119
12516TIP3    H159039   6.188   2.496  16.144 -2.3956  1.6251 -0.2577
12516TIP3    H259040   6.205   2.550  16.004  1.4277  0.5761 -0.3179
12517TIP3   OH259041   4.399   0.288   6.457  0.2683 -0.1457 -0.1220
12517TIP3    H159042   4.327   0.333   6.500 -0.2288 -0.8084 -0.2350
12517TIP3    H259043   4.409   0.332   6.373 -1.4015 -1.3303 -1.0041
12518TIP3   OH259044   3.911   2.273   4.459  0.0754 -0.2080  0.7274
12518TIP3    H159045   3.990   2.224   4.434  0.8499  0.7857  1.1532
12518TIP3    H259046   3.862   2.283   4.377 -0.3595 -2.1074  0.7144
12519TIP3   OH259047   4.783   3.119  12.265  0.2491  0.2868  0.2842
12519TIP3    H159048   4.762   3.210  12.286  1.7913  0.6280  0.5004
12519TIP3    H259049   4.847   3.126  12.194 -1.3104 -0.7125 -1.2849
12520TIP3   OH259050   1.625   4.959  12.684 -0.2256  0.2665 -0.2271
12520TIP3    H159051   1.595   4.869  12.695 -0.0154  0.2153 -0.0635
12520TIP3    H259052   1.721   4.952  12.680 -0.2542  0.3698 -1.3142
12521TIP3   OH259053   1.260   6.004  15.381 -0.1514  0.5924  0.5023
12521TIP3    H159054   1.223   5.955  15.308  2.8434 -1.0564 -0.1060
12521TIP3    H259055   1.280   6.090  15.345  1.4719 -0.2604 -0.8134
12522TIP3   OH259056   6.079   4.582   1.891  0.1253  0.1658 -0.4924
12522TIP3    H159057   6.129   4.663   1.884  1.3576 -0.0395  3.4701
12522TIP3    H259058   6.145   4.513   1.892 -0.5998 -0.5352  0.0557
12523TIP3   OH259059   1.518   6.397   1.684 -0.3159 -0.3639 -0.1695
12523TIP3    H159060   1.443   6.356   1.728 -1.5778 -2.0378 -3.5826
12523TIP3    H259061   1.581   6.326   1.672  1.0725  0.6112  0.9121
12524TIP3   OH259062   6.569   3.273   1.820  0.2252 -0.5465  0.1722
12524TIP3    H159063   6.561   3.270   1.725  0.1057  0.8965  0.1067
12524TIP3    H259064   6.533   3.359   1.844  1.2972 -0.4024  1.3976
12525TIP3   OH259065   1.931   3.651  13.895 -0.2238  0.6430  0.1286
12525TIP3    H159066   1.956   3.612  13.978  1.5623 -0.2945 -0.7802
12525TIP3    H259067   1.892   3.736  13.918 -0.2927  0.1580  1.9178
12526TIP3   OH259068   0.955   4.077  16.032  0.4138 -0.4299  0.1121
12526TIP3    H159069   0.920   4.124  15.956  0.0879  1.1289  1.1850
12526TIP3    H259070   0.934   3.985  16.015 -0.2450 -0.0371 -1.3553
12527TIP3   OH259071   3.112   2.346  12.301  0.3326 -0.6645 -0.1293
12527TIP3    H159072   3.077   2.417  12.247 -2.4771 -2.2708 -0.5958
12527TIP3    H259073   3.078   2.364  12.389  2.9376  0.6376  0.7196
12528TIP3   OH259074   4.458   5.949   3.144 -0.3385 -0.1362 -0.3207
12528TIP3    H159075   4.411   5.876   3.185 -0.3892 -0.4849 -0.9885
12528TIP3    H259076   4.467   6.014   3.214 -3.2030  0.6144 -0.5435
12529TIP3   OH259077   5.171   5.745   4.959 -0.3063 -0.3858  0.0573
12529TIP3    H159078   5.248   5.688   4.960 -0.2977 -0.4750 -1.8746
12529TIP3    H259079   5.206   5.833   4.966  0.0945 -0.3698 -1.6750
12530TIP3   OH259080   4.731   1.814  11.927  0.5763  0.3243 -0.3245
12530TIP3    H159081   4.793   1.824  11.855 -0.0448 -0.1208 -0.9453
12530TIP3    H259082   4.777   1.846  12.004  0.8667  1.9166 -1.1137
12531TIP3   OH259083   0.582   0.705  11.582 -0.2715  0.3194  0.0338
12531TIP3    H159084   0.581   0.702  11.487  3.3991 -3.7391 -0.2005
12531TIP3    H259085   0.658   0.759  11.604  2.1070 -2.8439  0.2382
12532TIP3   OH259086   6.471   6.346   3.840  0.7558  0.1696  0.5051
12532TIP3    H159087   6.508   6.391   3.916  0.0724  1.0391  0.3333
12532TIP3    H259088   6.459   6.255   3.870  0.8385  0.4205  1.3212
12533TIP3   OH259089   6.166   5.627   2.138  0.4613 -0.0187  0.4067
12533TIP3    H159090   6.077   5.618   2.173 -0.1912  1.4220 -0.7521
12533TIP3    H259091   6.212   5.681   2.202 -0.3850  1.6506 -0.3352
12534TIP3   OH259092   6.122   3.066  12.887  0.4336 -0.1256 -0.2994
12534TIP3    H159093   6.089   3.153  12.907 -0.4399 -0.9620  2.3732
12534TIP3    H259094   6.131   3.065  12.791 -1.7525  2.0969 -0.6341
12535TIP3   OH259095   0.101   3.294  15.450  0.0832 -0.3060  0.5789
12535TIP3    H159096   0.181   3.319  15.403 -0.4652 -0.6069 -0.5548
12535TIP3    H259097   0.132   3.264  15.535  1.2866 -1.3269 -0.1763
12536TIP3   OH259098   6.163   5.979   6.666  0.4874 -0.4352 -0.0274
12536TIP3    H159099   6.078   6.013   6.691  0.9488  0.2690  0.6361
12536TIP3    H259100   6.221   6.001   6.740  1.6902  0.8968 -1.3071
12537TIP3   OH259101   0.080   6.698   3.938  0.1995 -0.0896 -0.4737
12537TIP3    H159102   0.018   6.636   3.900 -0.4125 -0.2755  0.7601
12537TIP3    H259103   0.144   6.715   3.869  0.8327 -2.6750 -0.6141
12538TIP3   OH259104   0.018   4.101   1.401  0.1448  0.6702  0.6289
12538TIP3    H159105   0.087   4.042   1.371 -1.7669 -1.3288 -0.1171
12538TIP3    H259106  -0.042   4.046   1.451 -0.4374  2.5307  2.1222
12539TIP3   OH259107   2.850   5.120   5.525 -0.5893  0.2098 -0.1774
12539TIP3    H159108   2.833   5.134   5.432 -0.9147  0.6158 -0.0630
12539TIP3    H259109   2.820   5.031   5.542  0.6155 -0.3221 -0.7192
12540TIP3   OH259110   1.585   5.739   0.627  0.4175 -0.0504  0.0212
12540TIP3    H159111   1.574   5.770   0.717  2.0057  0.7971 -0.0408
12540TIP3    H259112   1.499   5.703   0.603 -0.1476  0.0871  1.7192
12541TIP3   OH259113   2.431   3.203   1.246 -0.0040  0.4741 -0.7130
12541TIP3    H159114   2.475   3.288   1.241 -0.1961  0.5427 -1.3333
12541TIP3    H259115   2.380   3.198   1.166  1.2571 -0.9216 -1.4815
12542TIP3   OH259116   5.112   6.623   6.084 -0.0012  0.0139 -0.2849
12542TIP3    H159117   5.179   6.683   6.116  0.5230  0.2812 -1.7957
12542TIP3    H259118   5.042   6.680   6.054 -0.8443 -0.2598  1.0753
12543TIP3   OH259119   4.223   0.964  11.595 -0.5034  0.6207 -0.0186
12543TIP3    H159120   4.260   1.037  11.546  1.1666 -0.4161 -0.3919
12543TIP3    H259121   4.209   0.998  11.683  1.8639  0.9845  0.2857
12544TIP3   OH259122   0.472   0.426   0.245 -0.1228 -0.8067  0.1036
12544TIP3    H159123   0.525   0.353   0.215 -2.0518 -1.7137 -1.3306
12544TIP3    H259124   0.391   0.386   0.276 -0.2232  0.5570  1.7488
12545TIP3   OH259125   5.192   5.173   2.216  0.0920 -0.4176 -0.5009
12545TIP3    H159126   5.101   5.203   2.224  0.3642  0.1774  0.6252
12545TIP3    H259127   5.238   5.247   2.177  0.4418  0.0499  0.7291
12546TIP3   OH259128   1.330   4.485  13.595 -0.1165 -0.2719  0.1112
12546TIP3    H159129   1.354   4.461  13.506  0.5209  0.5232  0.0540
12546TIP3    H259130   1.278   4.412  13.627  0.5345 -1.0413 -0.5535
12547TIP3   OH259131   1.191   3.499  16.728  0.3322 -0.0665 -0.0462
12547TIP3    H159132   1.247   3.518  16.803 -0.9271  2.2896  0.3856
12547TIP3    H259133   1.212   3.568  16.665  1.3154 -1.9647 -1.9007
12548TIP3   OH259134   3.925   5.168  14.153  0.0462  0.5864  0.0964
12548TIP3    H159135   3.960   5.257  14.157  0.9007  0.2321  0.7945
12548TIP3    H259136   3.939   5.140  14.062  0.6615  0.8182  0.1200
12549TIP3   OH259137   3.676   4.803   0.483 -0.5663  0.2231 -0.1257
12549TIP3    H159138   3.739   4.793   0.412 -1.0267  0.3902 -0.5643
12549TIP3    H259139   3.598   4.757   0.453 -0.1550 -1.3445  1.0842
12550TIP3   OH259140   4.137   0.615  11.221  0.8015 -0.0896  0.3928
12550TIP3    H159141   4.099   0.584  11.139 -0.6425 -1.8753  1.6353
12550TIP3    H259142   4.067   0.668  11.260  1.3442  0.4506  0.6397
12551TIP3   OH259143   5.147   5.479   3.120 -0.2372 -0.6542  0.0982
12551TIP3    H159144   5.228   5.482   3.069 -0.8867 -0.4410 -0.9368
12551TIP3    H259145   5.083   5.526   3.067 -1.0699 -0.8854  0.8699
12552TIP3   OH259146   6.563   6.769   1.927 -0.3125 -0.0138 -0.1665
12552TIP3    H159147   6.642   6.715   1.922 -0.0715  0.2648  0.6094
12552TIP3    H259148   6.493   6.712   1.893  0.3259 -0.0214 -1.5272
12553TIP3   OH259149   4.288   1.678   5.577  0.4883 -0.1709 -0.2905
12553TIP3    H159150   4.257   1.597   5.535  4.5822 -1.4946 -1.2178
12553TIP3    H259151   4.289   1.657   5.670  1.0478 -1.0398 -0.4796
12554TIP3   OH259152   6.342   6.505  13.751 -0.4538  0.0834 -0.5564
12554TIP3    H159153   6.387   6.582  13.786  2.4768 -0.8351 -1.9977
12554TIP3    H259154   6.366   6.503  13.658 -1.7427 -1.7022 -0.9032
12555TIP3   OH259155   2.511   0.442   0.661  0.3428  0.6826 -0.4600
12555TIP3    H159156   2.606   0.434   0.672  0.1397 -0.9250  0.4923
12555TIP3    H259157   2.494   0.536   0.668  1.7384  0.8937  0.5555
12556TIP3   OH259158   5.453   3.254  14.096 -0.2279 -0.4218  0.0030
12556TIP3    H159159   5.362   3.252  14.066  0.6110  0.6327 -2.9251
12556TIP3    H259160   5.470   3.346  14.117  0.1436 -0.6450  0.7300
12557TIP3   OH259161   0.226   0.859  12.063 -0.1009 -0.4313 -0.0750
12557TIP3    H159162   0.238   0.849  11.969  0.7281 -1.0788  0.0810
12557TIP3    H259163   0.134   0.837  12.079 -0.5772  0.8823 -0.8695
12558TIP3   OH259164   0.756   1.382   6.682  0.5545  0.0411  0.1003
12558TIP3    H159165   0.689   1.432   6.730  0.3813  1.9720 -2.0183
12558TIP3    H259166   0.715   1.362   6.598  0.7102 -3.5877  0.7111
12559TIP3   OH259167   2.413   3.743  16.081 -0.2648 -0.1112 -0.5257
12559TIP3    H159168   2.454   3.658  16.066 -0.7280 -0.2100 -1.2619
12559TIP3    H259169   2.406   3.750  16.177 -3.0027 -2.2539 -0.4548
12560TIP3   OH259170   2.058   4.955  16.081  0.2408 -0.1552  0.0328
12560TIP3    H159171   2.044   4.928  16.172  1.6553 -2.0251 -0.2144
12560TIP3    H259172   2.148   4.987  16.079  1.0138 -2.1940 -1.0593
12561TIP3   OH259173   3.607   5.484   4.819  0.3017 -0.0608  0.4277
12561TIP3    H159174   3.630   5.577   4.823 -0.9068  0.3555 -1.0994
12561TIP3    H259175   3.688   5.438   4.842  1.2294  1.3545  0.1365
12562TIP3   OH259176   0.140   0.310   0.093  0.0717  0.1929 -0.6288
12562TIP3    H159177   0.091   0.387   0.120  0.7065 -0.0980  1.5488
12562TIP3    H259178   0.153   0.321  -0.001 -1.2698  1.8926 -0.6604
12563TIP3   OH259179   1.967   5.529  15.972  0.1881 -0.1021  0.2875
12563TIP3    H159180   1.920   5.571  15.900  0.7141  0.3146  0.1804
12563TIP3    H259181   2.030   5.471  15.929 -0.8758 -1.4114  0.4381
12564TIP3   OH259182   5.282   0.532   6.195  0.3233  0.1911 -0.1506
12564TIP3    H159183   5.210   0.572   6.145  1.3854 -0.4244 -2.2930
12564TIP3    H259184   5.302   0.451   6.148  2.0535  0.0633  0.7163
12565TIP3   OH259185   3.647   4.467  14.371  0.5149  0.1643 -0.4748
12565TIP3    H159186   3.657   4.558  14.342  0.2910  1.7216  3.7207
12565TIP3    H259187   3.711   4.456  14.441  0.5385 -2.9834 -0.8257
12566TIP3   OH259188   5.851   1.266   3.540 -0.4284 -0.0434  0.0268
12566TIP3    H159189   5.798   1.335   3.501  0.3387  0.0828 -0.8170
12566TIP3    H259190   5.788   1.199   3.565 -1.0253  0.2680 -0.6027
12567TIP3   OH259191   6.313   3.162   3.894 -0.2283  0.0498  0.6407
12567TIP3    H159192   6.256   3.120   3.830  0.7498  0.4931 -0.5627
12567TIP3    H259193   6.260   3.232   3.931 -0.8894 -0.3606  0.4765
12568TIP3   OH259194   0.064   3.674   1.321  0.4088 -0.2722  0.4141
12568TIP3    H159195   0.065   3.642   1.231 -0.4593  0.8429 -0.0060
12568TIP3    H259196   0.074   3.595   1.375  0.6180 -0.9775 -0.6391
12569TIP3   OH259197   5.293   0.955   5.270  0.1675  0.0792 -0.0583
12569TIP3    H159198   5.363   0.905   5.229 -2.0420 -1.5958 -2.0538
12569TIP3    H259199   5.312   1.046   5.248  2.8153 -0.0119  1.3590
12570TIP3   OH259200   2.366   1.322  15.422 -0.2867 -0.1745 -0.0066
12570TIP3    H159201   2.392   1.330  15.514  0.6017  0.0427 -0.2578
12570TIP3    H259202   2.311   1.244  15.419  2.4844 -2.3052  0.1669
12571TIP3   OH259203   1.751   4.329  14.445  0.1452  0.0023  0.1498
12571TIP3    H159204   1.760   4.375  14.362 -0.7118 -2.1699 -1.2188
12571TIP3    H259205   1.836   4.286  14.458  0.5760  1.0286  0.8829
12572TIP3   OH259206   2.268   6.498  14.166  0.2667 -0.4090  0.4808
12572TIP3    H159207   2.360   6.482  14.183  0.0330  0.5590  2.9768
12572TIP3    H259208   2.267   6.549  14.084  2.0593  0.8025  1.1642
12573TIP3   OH259209   1.838   3.567  11.431 -0.1129 -0.0689 -0.5576
12573TIP3    H159210   1.785   3.646  11.423  0.3314  0.2497 -0.4448
12573TIP3    H259211   1.907   3.578  11.365 -0.6539 -0.8585 -1.2595
12574TIP3   OH259212   6.079   4.564  10.449  0.2716  0.6469  0.2438
12574TIP3    H159213   6.164   4.520  10.454  0.2661  0.5897 -0.1403
12574TIP3    H259214   6.024   4.516  10.510 -0.9002 -2.4940 -2.9058
12575TIP3   OH259215   0.248   5.811  15.310 -0.3747 -0.6160  0.3081
12575TIP3    H159216   0.158   5.839  15.298  0.0847  0.9393  0.3412
12575TIP3    H259217   0.289   5.880  15.362  0.8093 -1.3450  0.3898
12576TIP3   OH259218   2.918   2.361   5.082  0.1361  0.4343 -0.4383
12576TIP3    H159219   2.930   2.278   5.035  0.4163 -0.5630  1.3358
12576TIP3    H259220   3.003   2.381   5.120 -0.4749  0.2982  1.0795
12577TIP3   OH259221   1.036   3.898  15.305  0.0222  0.1831  0.1438
12577TIP3    H159222   1.122   3.857  15.320  0.6681  0.6802 -1.9373
12577TIP3    H259223   1.020   3.949  15.384  0.2128 -2.2401  1.8932
12578TIP3   OH259224   3.662   1.450  15.627  0.2726  0.2686  0.1501
12578TIP3    H159225   3.747   1.465  15.585 -0.7977  2.9598 -1.3112
12578TIP3    H259226   3.681   1.454  15.721  1.8602  0.1348 -0.1297
12579TIP3   OH259227   0.294   5.829   0.313 -0.0725  0.0833 -0.3420
12579TIP3    H159228   0.356   5.855   0.381 -1.6415  2.0768  0.4499
12579TIP3    H259229   0.216   5.883   0.330 -2.6604 -3.2943 -0.3301
12580TIP3   OH259230   1.918   6.598  12.176 -0.5509 -0.2964  0.2013
12580TIP3    H159231   1.866   6.628  12.250  0.0051  0.0442  0.4576
12580TIP3    H259232   1.855   6.556  12.117 -1.2335  0.8316  0.1214
12581TIP3   OH259233   1.112   0.452   3.447  0.2779  0.4521 -0.3953
12581TIP3    H159234   1.074   0.391   3.383  0.8212 -1.5656  1.1312
12581TIP3    H259235   1.036   0.483   3.497  0.0852  0.4626 -0.6856
12582TIP3   OH259236   4.364   1.297  13.608 -0.4108 -0.4511  0.6513
12582TIP3    H159237   4.302   1.290  13.681 -1.3373 -0.2834 -0.1009
12582TIP3    H259238   4.450   1.304  13.651 -0.8160 -1.4170  1.7024
12583TIP3   OH259239   1.060   4.096  16.276 -0.3580  0.2611  0.0412
12583TIP3    H159240   1.050   4.087  16.182  0.5896 -2.1720  0.1143
12583TIP3    H259241   0.999   4.031  16.313  0.3976  0.1028  1.0493
12584TIP3   OH259242   2.758   1.413  17.044 -0.5241  0.2722  0.2993
12584TIP3    H159243   2.819   1.453  16.982  0.9597 -1.7135  0.3565
12584TIP3    H259244   2.813   1.389  17.119 -1.0676 -2.6491 -0.1229
12585TIP3   OH259245   3.748   4.020  15.988 -0.0853 -0.3506  0.5123
12585TIP3    H159246   3.664   4.037  16.031  0.3200  0.9685  0.8269
12585TIP3    H259247   3.779   3.939  16.028 -1.2626 -0.9477  0.2846
12586TIP3   OH259248   5.698   1.587   3.969 -0.3432 -1.0313  0.0328
12586TIP3    H159249   5.705   1.499   3.932 -0.3143 -0.5192 -1.2374
12586TIP3    H259250   5.788   1.611   3.991 -0.3593 -1.3390  0.4445
12587TIP3   OH259251   0.041   2.333   1.319  0.1926 -0.4108 -0.1926
12587TIP3    H159252   0.123   2.379   1.336 -0.0326 -0.3332  0.7471
12587TIP3    H259253  -0.015   2.357   1.393 -0.1806 -1.6067 -0.0713
12588TIP3   OH259254   0.963   5.127  11.046  0.1694  0.2759  0.1128
12588TIP3    H159255   0.966   5.037  11.079 -0.6124  0.0358 -0.4143
12588TIP3    H259256   0.905   5.121  10.970  0.1904  1.2129  0.0197
12589TIP3   OH259257   5.206   5.305  17.131 -0.0661  0.0039  0.2946
12589TIP3    H159258   5.290   5.267  17.157 -0.6030 -0.5160  1.3386
12589TIP3    H259259   5.186   5.368  17.200 -0.9568 -0.5313  0.5465
12590TIP3   OH259260   3.340   4.416  14.144 -0.1913  0.3528  0.2681
12590TIP3    H159261   3.279   4.473  14.191 -1.2173 -0.9529  0.5888
12590TIP3    H259262   3.287   4.377  14.074  0.4305 -0.3452  0.1738
12591TIP3   OH259263   4.360   0.530   1.093  0.6689  0.4548  0.8389
12591TIP3    H159264   4.299   0.469   1.136 -0.1605  0.1611 -0.6781
12591TIP3    H259265   4.339   0.615   1.130 -1.9712  0.6751 -0.8875
12592TIP3   OH259266   1.709   2.041   4.769  0.4732  0.4222  0.2861
12592TIP3    H159267   1.724   2.125   4.812  1.5992  0.2899  0.1814
12592TIP3    H259268   1.641   1.999   4.821  0.1083  1.2681  0.5114
12593TIP3   OH259269   3.555   0.610  11.430  0.0461  0.6882 -0.1992
12593TIP3    H159270   3.619   0.652  11.487  0.2644 -0.3280  0.3137
12593TIP3    H259271   3.604   0.541  11.385 -0.1190  1.4511 -1.6315
12594TIP3   OH259272   6.598   4.530   0.147 -0.0042 -0.6624 -0.4152
12594TIP3    H159273   6.589   4.569   0.060 -0.0359  1.2429  0.3864
12594TIP3    H259274   6.508   4.514   0.175 -0.0716  0.0413 -0.1996
12595TIP3   OH259275   2.365   3.173   3.453 -0.0442  0.2524 -0.1693
12595TIP3    H159276   2.320   3.201   3.533 -1.5714 -2.0710 -0.1231
12595TIP3    H259277   2.409   3.091   3.477 -0.1640 -0.2544 -1.5760
12596TIP3   OH259278   4.431   0.639  10.898  0.0596 -0.5692 -0.0560
12596TIP3    H159279   4.337   0.652  10.885  0.2612  0.3699 -0.6431
12596TIP3    H259280   4.470   0.650  10.811  0.6615 -1.4694  0.0882
12597TIP3   OH259281   6.806   4.853   5.103  0.4831 -0.4672  0.1595
12597TIP3    H159282   6.822   4.834   5.011  1.7741 -2.5625  0.7402
12597TIP3    H259283   6.751   4.781   5.134  1.5410 -0.7871  1.4075
12598TIP3   OH259284   5.231   1.148   1.503  0.0578 -0.0036 -0.4626
12598TIP3    H159285   5.299   1.157   1.569 -1.2124  1.0255  0.7312
12598TIP3    H259286   5.175   1.077   1.535 -0.1141 -0.0530 -0.8576
12599TIP3   OH259287   4.952   0.007  12.362  0.5934 -0.0136 -0.0858
12599TIP3    H159288   4.865   0.016  12.401 -0.2988  0.0473 -1.9649
12599TIP3    H259289   4.985  -0.076  12.395  0.0024  0.1629  0.9776
12600TIP3   OH259290   5.869   1.751   1.035 -0.4496 -0.5951  0.4441
12600TIP3    H159291   5.947   1.700   1.014 -0.2465  0.0636 -0.4527
12600TIP3    H259292   5.873   1.764   1.130 -0.7822 -2.6568  0.7878
12601TIP3   OH259293   0.714   0.871   5.710 -0.6699  0.3692  1.0048
12601TIP3    H159294   0.771   0.802   5.675 -2.4849 -0.6314 -0.1423
12601TIP3    H259295   0.742   0.951   5.665 -0.3534 -0.1620  0.2362
12602TIP3   OH259296   5.255   6.314   5.717 -0.0271 -0.1998 -0.4179
12602TIP3    H159297   5.256   6.329   5.623  1.9255  1.1517 -0.2256
12602TIP3    H259298   5.345   6.292   5.739 -0.6367 -1.4664  1.0282
12603TIP3   OH259299   6.464   2.732  14.193  0.2704  0.6525 -0.0956
12603TIP3    H159300   6.481   2.683  14.113 -0.2289  0.4019 -0.0508
12603TIP3    H259301   6.541   2.716  14.248 -0.4023 -1.0736  0.4099
12604TIP3   OH259302   5.108   4.872  11.977  0.3225 -0.2763 -0.1780
12604TIP3    H159303   5.076   4.791  12.018 -0.8435  0.9015  1.3543
12604TIP3    H259304   5.066   4.873  11.891 -0.0404 -1.0702 -0.0198
12605TIP3   OH259305   1.586   6.103  13.411 -0.0419  0.0594  0.2211
12605TIP3    H159306   1.606   6.048  13.336 -0.0547  0.5184 -0.1220
12605TIP3    H259307   1.607   6.049  13.487  0.5103 -0.2049 -0.1169
12606TIP3   OH259308   6.538   6.067   5.824  0.0596 -0.3700  0.4856
12606TIP3    H159309   6.483   6.031   5.755  0.3600 -0.1939  0.1500
12606TIP3    H259310   6.486   6.059   5.904 -0.2370 -0.6949  0.2607
12607TIP3   OH259311   0.308   4.252  11.615 -0.0503  0.0486  0.0520
12607TIP3    H159312   0.392   4.298  11.608  0.7407 -1.2806  0.4534
12607TIP3    H259313   0.305   4.196  11.538 -0.4481 -0.1188  0.1863
12608TIP3   OH259314   3.336   1.044   1.381  0.4971  0.6355  0.1829
12608TIP3    H159315   3.282   1.123   1.384 -0.2485  0.1822 -0.8232
12608TIP3    H259316   3.425   1.076   1.368  0.1617  1.2992 -0.5324
12609TIP3   OH259317   3.566   0.650  16.848 -0.4565  0.1538 -0.2055
12609TIP3    H159318   3.555   0.730  16.900 -2.8602  1.1512 -2.1063
12609TIP3    H259319   3.650   0.663  16.803 -1.3133  2.1671 -1.3292
12610TIP3   OH259320   1.524   6.615   5.061  0.2898  0.1326 -0.4085
12610TIP3    H159321   1.504   6.634   4.969 -1.2549 -0.5176 -0.2479
12610TIP3    H259322   1.522   6.700   5.104 -0.5335  0.2768 -0.7197
12611TIP3   OH259323   2.048   5.092   5.156 -0.0681  0.2064  0.3381
12611TIP3    H159324   2.118   5.083   5.221 -2.3192 -2.0242  2.6671
12611TIP3    H259325   1.973   5.123   5.207 -1.6577 -0.6492 -1.3978
12612TIP3   OH259326   5.194   0.812   0.741 -0.4809  0.2513  0.1106
12612TIP3    H159327   5.146   0.892   0.718  0.8228  1.5356  1.5800
12612TIP3    H259328   5.225   0.778   0.657 -0.0107  2.0082 -0.4730
12613TIP3   OH259329   2.548   4.936   0.906  0.1952 -0.4757 -0.9066
12613TIP3    H159330   2.455   4.936   0.928  0.5214 -1.9437  0.7393
12613TIP3    H259331   2.552   4.901   0.817 -0.8481  0.4570 -1.3477
12614TIP3   OH259332   5.538   4.171  12.342 -0.4952  0.7454  0.2314
12614TIP3    H159333   5.465   4.230  12.322 -1.1188  0.0802  0.5110
12614TIP3    H259334   5.496   4.090  12.372  0.3595  0.3707  0.4408
12615TIP3   OH259335   2.264   3.033  14.623 -0.2346  0.0500  0.8268
12615TIP3    H159336   2.289   3.092  14.694  0.6369  0.8393 -0.1066
12615TIP3    H259337   2.338   2.972  14.615 -0.1759  0.1731  0.3900
12616TIP3   OH259338   0.527   6.176   3.855  0.5413  0.1445 -0.0212
12616TIP3    H159339   0.552   6.235   3.784  0.2669  0.9160  0.5124
12616TIP3    H259340   0.446   6.135   3.825 -0.4384  1.6414  0.4842
12617TIP3   OH259341   3.358   5.272   2.774 -0.0733 -0.9994 -0.4080
12617TIP3    H159342   3.443   5.229   2.780  0.1567 -0.7509 -1.6453
12617TIP3    H259343   3.320   5.239   2.693 -1.3909 -1.4780  0.3559
12618TIP3   OH259344   3.241   2.556  13.049 -0.1904 -0.4290  0.7876
12618TIP3    H159345   3.252   2.474  13.097 -0.8536 -1.1754 -0.2942
12618TIP3    H259346   3.220   2.529  12.960  0.2234  0.9253  0.2551
12619TIP3   OH259347   2.503   5.030   5.232  0.1942 -0.0441  0.4933
12619TIP3    H159348   2.587   5.023   5.279  0.8411  0.4101 -0.5662
12619TIP3    H259349   2.489   5.124   5.223  0.9302 -0.0916 -1.6662
12620TIP3   OH259350   0.216   3.734   6.535  0.3212  0.0457 -0.4969
12620TIP3    H159351   0.168   3.663   6.578 -2.2841  1.4902 -0.8414
12620TIP3    H259352   0.195   3.724   6.443 -1.1507  1.9505 -0.4193
12621TIP3   OH259353   2.086   1.693  14.517  0.1882  0.6486  0.2177
12621TIP3    H159354   2.163   1.724  14.470  0.3546 -1.1290 -0.7759
12621TIP3    H259355   2.121   1.643  14.591 -0.0461  1.4632  0.8871
12622TIP3   OH259356   6.291   0.512  11.687 -0.5683  0.4073  0.1957
12622TIP3    H159357   6.380   0.478  11.696 -0.9154 -0.5161  0.2374
12622TIP3    H259358   6.235   0.438  11.707 -1.3612  0.5463 -1.3526
12623TIP3   OH259359   0.840   1.927   5.202 -0.1749  0.3039  0.0178
12623TIP3    H159360   0.757   1.960   5.238 -0.5719 -1.2901  0.6344
12623TIP3    H259361   0.824   1.835   5.185  1.7562 -0.2755  1.0283
12624TIP3   OH259362   6.190   5.821  15.596 -0.2365 -0.7392 -0.0722
12624TIP3    H159363   6.156   5.853  15.680 -2.6672 -2.9441 -0.0692
12624TIP3    H259364   6.141   5.871  15.530  1.0777  0.4123 -0.2065
12625TIP3   OH259365   5.997   6.555  12.976  0.0025 -0.0969 -0.9052
12625TIP3    H159366   6.071   6.611  12.996 -0.2220 -0.1444  0.0735
12625TIP3    H259367   5.920   6.609  12.994 -0.2153 -0.0860 -1.8000
12626TIP3   OH259368   6.112   1.836  12.924 -0.1887 -0.4628 -0.1675
12626TIP3    H159369   6.045   1.901  12.904  0.6866  0.7714  0.7731
12626TIP3    H259370   6.092   1.806  13.013  0.0457 -0.6732 -0.1813
12627TIP3   OH259371   5.015   0.100   3.954 -0.8013  0.3505  0.0954
12627TIP3    H159372   4.958   0.143   3.890 -0.8897  1.2912  0.7922
12627TIP3    H259373   4.964   0.099   4.035  0.7092  2.6727  1.1804
12628TIP3   OH259374   3.178   5.641  16.995  0.3834 -0.3015  0.4883
12628TIP3    H159375   3.179   5.591  17.077 -0.7938 -0.3113  0.5129
12628TIP3    H259376   3.139   5.725  17.019  0.5251 -0.1066  0.0424
12629TIP3   OH259377   0.115   3.926  15.024  0.1147  0.5030 -0.0562
12629TIP3    H159378   0.140   4.017  15.005 -0.2340  0.8374  1.0078
12629TIP3    H259379   0.181   3.873  14.978  0.0824  1.2724 -1.0325
12630TIP3   OH259380   3.981   2.965   3.910  0.2477  0.0220 -0.2888
12630TIP3    H159381   3.973   3.047   3.959  0.9761  0.3159 -0.6452
12630TIP3    H259382   3.902   2.961   3.857 -0.6752 -0.4246  1.0768
12631TIP3   OH259383   1.692   1.380   4.113  0.0165 -0.0255  0.4476
12631TIP3    H159384   1.630   1.415   4.049  0.3759  0.9710  0.6274
12631TIP3    H259385   1.723   1.457   4.161  0.2757 -0.6799  1.3561
12632TIP3   OH259386   1.314   3.744  15.601  0.4892 -0.0398 -0.1721
12632TIP3    H159387   1.298   3.838  15.596  0.3354 -0.0668 -0.1926
12632TIP3    H259388   1.340   3.728  15.691 -1.5523 -0.2945  0.4197
12633TIP3   OH259389   3.518   6.251  17.014  0.1483 -0.2796 -0.2113
12633TIP3    H159390   3.548   6.336  17.048  0.3502 -0.0364 -0.9890
12633TIP3    H259391   3.570   6.187  17.063  1.1184  0.1030 -0.7112
12634TIP3   OH259392   3.861   6.403  15.946  0.2942  0.2039  0.2438
12634TIP3    H159393   3.941   6.352  15.938  0.6751  0.8507 -0.1460
12634TIP3    H259394   3.890   6.490  15.971 -0.2284  0.6102 -0.5204
12635TIP3   OH259395   4.391   5.732   3.857  0.0600 -0.1144  0.5598
12635TIP3    H159396   4.454   5.770   3.919 -0.7924 -0.9602  2.0101
12635TIP3    H259397   4.310   5.725   3.907 -0.8344 -0.2356 -0.8801
12636TIP3   OH259398   4.291   6.554  15.336  0.0256 -0.2255 -0.0086
12636TIP3    H159399   4.221   6.570  15.272  0.2584  1.3768  0.0857
12636TIP3    H259400   4.251   6.571  15.421  0.6038  1.1510  0.0195
12637TIP3   OH259401   5.051   6.633   2.833 -0.1838 -0.5866  0.2155
12637TIP3    H159402   4.991   6.700   2.799  0.0673 -0.8743 -0.8250
12637TIP3    H259403   5.040   6.638   2.928 -0.5614  0.5626  0.1309
12638TIP3   OH259404   0.447   2.772   2.977 -0.2183  0.1984  0.0811
12638TIP3    H159405   0.356   2.741   2.984 -0.0675 -0.1093  0.8043
12638TIP3    H259406   0.441   2.852   2.924 -0.6635 -0.8599 -1.5625
12639TIP3   OH259407   1.788   5.639   1.001 -0.2118  0.4455  0.2358
12639TIP3    H159408   1.784   5.711   1.064  0.3165  0.3362  0.4068
12639TIP3    H259409   1.697   5.620   0.979 -0.3440  1.2753  0.0566
12640TIP3   OH259410   0.232   1.046  16.727 -0.1873  0.0598  0.4823
12640TIP3    H159411   0.320   1.058  16.690  0.4502  1.1688  2.2335
12640TIP3    H259412   0.174   1.044  16.651  1.1657  1.1585 -0.6286
12641TIP3   OH259413   6.808   4.120  15.265 -0.0034 -0.1337 -0.5485
12641TIP3    H159414   6.831   4.206  15.299 -1.0704 -0.1718  0.3034
12641TIP3    H259415   6.730   4.135  15.211 -1.0152 -0.7448  0.7004
12642TIP3   OH259416   4.508   4.037   6.120 -0.3710 -0.1537  0.1820
12642TIP3    H159417   4.470   4.022   6.207  1.1121 -0.5507  0.7880
12642TIP3    H259418   4.459   4.111   6.085 -1.8197 -0.7714  0.8410
12643TIP3   OH259419   2.295   0.199   4.409 -0.1589  0.3419 -0.1314
12643TIP3    H159420   2.244   0.120   4.431 -0.0025  0.4180  0.5321
12643TIP3    H259421   2.358   0.169   4.344 -0.3277 -0.0079 -0.1369
12644TIP3   OH259422   1.756   5.049   0.373 -0.2004  0.2331 -0.1568
12644TIP3    H159423   1.701   4.972   0.362  0.9791 -0.4396 -1.9070
12644TIP3    H259424   1.695   5.123   0.373 -1.5420 -0.6656  3.3441
12645TIP3   OH259425   3.068   6.606  15.623  0.2158 -0.4093 -0.7275
12645TIP3    H159426   3.135   6.546  15.590 -0.6546 -0.5642 -2.3002
12645TIP3    H259427   3.106   6.693  15.610  0.6947 -0.5379 -0.2374
12646TIP3   OH259428   1.077   2.180  14.731  0.2824  0.1268  0.0682
12646TIP3    H159429   1.073   2.166  14.636  0.6908 -0.8978  0.1914
12646TIP3    H259430   1.059   2.094  14.769 -0.1316  0.5786  0.9310
12647TIP3   OH259431   6.782   3.151   3.775 -0.0208  0.8325 -0.2380
12647TIP3    H159432   6.844   3.123   3.842  1.7419  1.1329 -1.6466
12647TIP3    H259433   6.696   3.129   3.810  0.8463  0.8439  2.0135
12648TIP3   OH259434   4.878   4.589   1.964 -0.6427 -0.3019  0.4793
12648TIP3    H159435   4.793   4.555   1.991 -0.9421 -0.7978 -0.9751
12648TIP3    H259436   4.918   4.621   2.044 -2.9199  1.5657  0.9816
12649TIP3   OH259437   2.982   1.597  12.626  0.4633 -0.2490  0.5229
12649TIP3    H159438   2.940   1.666  12.573  0.1385 -1.3965 -0.7807
12649TIP3    H259439   2.908   1.549  12.664  0.5795 -1.6117 -0.9012
12650TIP3   OH259440   6.051   2.940   3.039 -0.4000  0.1252 -0.2312
12650TIP3    H159441   6.094   2.937   2.953 -1.1245  0.2307 -0.5988
12650TIP3    H259442   5.976   2.881   3.030 -0.8772  0.6769  0.1060
12651TIP3   OH259443   3.037   5.937   4.127 -0.1241 -0.4280 -0.6217
12651TIP3    H159444   3.095   5.989   4.183 -1.9668 -0.7857  1.8079
12651TIP3    H259445   3.095   5.873   4.085  1.5640  0.8354 -0.3232
12652TIP3   OH259446   1.952   3.709   4.073 -0.6006 -0.2105  0.2360
12652TIP3    H159447   1.993   3.795   4.081 -0.6551 -0.2068  0.4867
12652TIP3    H259448   2.010   3.659   4.015  0.4453 -0.6324  1.5964
12653TIP3   OH259449   2.605   4.032   3.367 -0.3445  0.1581 -0.2812
12653TIP3    H159450   2.565   4.068   3.288 -0.5775 -0.5716 -0.4953
12653TIP3    H259451   2.682   4.087   3.381  1.0928 -1.1664 -2.3893
12654TIP3   OH259452   6.642   4.476  14.437 -1.0749  0.1214 -0.0350
12654TIP3    H159453   6.659   4.553  14.491 -0.6638  0.4142 -0.5637
12654TIP3    H259454   6.724   4.460  14.392 -0.6458 -1.6489  1.2999
12655TIP3   OH259455   1.342   0.118   6.475  0.1789 -0.5450  0.1362
12655TIP3    H159456   1.291   0.114   6.394 -0.0676  1.7938  0.1280
12655TIP3    H259457   1.280   0.090   6.543 -0.8668  1.2123 -0.0187
12656TIP3   OH259458   2.613   2.872  16.040  0.4237  0.3476  0.3225
12656TIP3    H159459   2.579   2.832  16.120 -0.1620 -1.3632 -0.7103
12656TIP3    H259460   2.534   2.898  15.991  0.7808  1.7834  0.4719
12657TIP3   OH259461   3.017   2.643  15.171 -0.0006  0.2799 -0.1221
12657TIP3    H159462   3.002   2.716  15.111  0.1322 -1.0549 -1.8854
12657TIP3    H259463   3.108   2.654  15.200  0.1667  0.5770 -0.7339
12658TIP3   OH259464   1.194   4.091  13.808  0.3363  0.6795 -0.0054
12658TIP3    H159465   1.255   4.151  13.764  0.0457  1.5244  0.7008
12658TIP3    H259466   1.244   4.056  13.881 -0.2720  2.1115  1.1492
12659TIP3   OH259467   1.861   6.464   1.584 -0.2003  0.4632 -0.2373
12659TIP3    H159468   1.920   6.446   1.511 -0.4633  0.8672 -0.5555
12659TIP3    H259469   1.893   6.410   1.656  0.6939  0.8456 -0.3414
12660TIP3   OH259470   6.492   2.594  11.626 -0.8677  0.2965 -0.3794
12660TIP3    H159471   6.499   2.653  11.702 -0.5467  2.0338 -1.6956
12660TIP3    H259472   6.582   2.572  11.604 -0.9828 -0.6301  0.0343
12661TIP3   OH259473   0.891   3.427   2.211 -0.3798  0.4516 -0.1014
12661TIP3    H159474   0.825   3.475   2.261 -1.3729 -2.0669  1.1269
12661TIP3    H259475   0.842   3.387   2.139  0.3526  0.8372 -0.8359
12662TIP3   OH259476   3.929   6.472  12.111 -0.1730 -0.1612 -0.2137
12662TIP3    H159477   3.957   6.563  12.113  0.5813 -0.3896  0.0720
12662TIP3    H259478   3.847   6.470  12.159 -0.5147  0.4674 -0.7562
12663TIP3   OH259479   2.462   2.321   0.801  0.2838 -0.4754  0.3352
12663TIP3    H159480   2.456   2.317   0.705  0.2201 -0.7706  0.3522
12663TIP3    H259481   2.414   2.244   0.831 -0.8775  0.3527  0.6455
12664TIP3   OH259482   2.561   4.565  13.350  0.0767 -0.0673 -0.5278
12664TIP3    H159483   2.500   4.545  13.279  0.8179  0.5875 -1.3533
12664TIP3    H259484   2.517   4.531  13.429 -1.9504  1.5302 -0.9082
12665TIP3   OH259485   0.849   3.942   2.724 -0.3673 -0.0071  0.2798
12665TIP3    H159486   0.804   3.903   2.649  0.4246  0.1932 -0.3175
12665TIP3    H259487   0.783   3.995   2.767 -0.5596  0.7776 -0.9291
12666TIP3   OH259488   1.976   6.435  13.902 -0.3377  0.1593  0.0594
12666TIP3    H159489   2.036   6.444  13.975 -0.7513  0.7719  0.3333
12666TIP3    H259490   2.032   6.419  13.826  0.0354 -1.7680  0.6945
12667TIP3   OH259491   5.099   6.795  13.376 -0.2716 -0.3024  0.2987
12667TIP3    H159492   5.162   6.776  13.445 -0.5130 -0.0001  0.6083
12667TIP3    H259493   5.152   6.816  13.299  0.0001 -0.3349  0.4765
12668TIP3   OH259494   4.475   4.820  15.984 -0.1187 -0.2134 -0.3596
12668TIP3    H159495   4.520   4.840  16.066  0.3883  2.5238 -1.1938
12668TIP3    H259496   4.542   4.778  15.930 -0.7539 -3.0452  0.9109
12669TIP3   OH259497   3.010   4.348  14.567 -0.0995  0.0692 -0.5604
12669TIP3    H159498   3.055   4.268  14.593 -0.1175  0.4710  0.8214
12669TIP3    H259499   3.070   4.418  14.593 -0.3999  0.5241 -1.0916
12670TIP3   OH259500   3.633   3.210  14.029  0.1603 -0.1590 -0.0956
12670TIP3    H159501   3.565   3.252  14.082  0.4033  2.5383 -1.7480
12670TIP3    H259502   3.590   3.187  13.948  1.1446  1.7783 -1.2519
12671TIP3   OH259503   0.561   4.199  14.054 -0.0505  0.3867  0.4419
12671TIP3    H159504   0.540   4.106  14.062 -0.4298  0.4909  0.6715
12671TIP3    H259505   0.499   4.233  13.990  0.8582  0.2435 -0.5494
12672TIP3   OH259506   5.919   4.058  17.030  0.0435 -0.0979 -0.7191
12672TIP3    H159507   5.868   4.100  16.960  0.0898  0.2178 -0.5631
12672TIP3    H259508   5.876   3.974  17.043 -0.1226 -0.0512 -0.9531
12673TIP3   OH259509   4.504   1.826   3.566  0.4697 -0.5867 -0.7773
12673TIP3    H159510   4.492   1.920   3.556  0.6619 -0.7036 -2.3994
12673TIP3    H259511   4.529   1.796   3.479  0.8857 -2.0729 -0.1746
12674TIP3   OH259512   2.988   0.385  11.460 -0.3561  0.0594 -0.0775
12674TIP3    H159513   3.045   0.309  11.455  0.1758  0.4678 -0.3454
12674TIP3    H259514   2.955   0.396  11.370 -2.5159 -1.3977  0.4465
12675TIP3   OH259515   0.397   6.391  10.375  0.3506 -0.2475 -0.0738
12675TIP3    H159516   0.315   6.353  10.346 -0.4778  1.3604  0.0383
12675TIP3    H259517   0.421   6.342  10.453 -0.4057 -0.8412 -0.2134
12676TIP3   OH259518   6.698   6.777  15.785 -0.1135 -0.1119 -0.0202
12676TIP3    H159519   6.695   6.699  15.840  0.7580  0.1174  0.3725
12676TIP3    H259520   6.790   6.785  15.760 -0.6193 -0.7324 -2.2988
12677TIP3   OH259521   0.719   5.907   5.756 -0.4090  0.2101 -0.3615
12677TIP3    H159522   0.668   5.868   5.827  0.3180 -2.8257 -1.3381
12677TIP3    H259523   0.810   5.883   5.777  0.1265  1.6997 -0.9036
12678TIP3   OH259524   1.666   4.476  11.715  0.1753 -0.0418 -0.0383
12678TIP3    H159525   1.585   4.526  11.706  0.5974  0.3577 -2.1456
12678TIP3    H259526   1.639   4.385  11.707 -0.1244  0.0631 -0.2432
12679TIP3   OH259527   4.533   0.653   4.639 -0.3678  0.2256  0.2034
12679TIP3    H159528   4.555   0.633   4.548 -1.1311 -1.8658  0.4267
12679TIP3    H259529   4.616   0.646   4.686 -0.3943 -1.4253  0.0665
12680TIP3   OH259530   0.303   4.002  16.248  0.6883 -0.6935  0.0142
12680TIP3    H159531   0.230   4.008  16.186  1.0057 -1.6850 -0.4678
12680TIP3    H259532   0.359   3.933  16.213  1.9603  0.1758  0.2823
12681TIP3   OH259533   1.390   3.461   1.834 -0.6684 -0.0780  0.0293
12681TIP3    H159534   1.368   3.378   1.875  0.5388  0.7269  2.4808
12681TIP3    H259535   1.484   3.457   1.819 -0.6639  0.6947 -0.2050
12682TIP3   OH259536   1.121   0.545   5.551  0.5041 -0.1314  0.8182
12682TIP3    H159537   1.091   0.493   5.477 -0.5549  1.1711  0.2885
12682TIP3    H259538   1.110   0.636   5.522 -0.3628  0.4181  2.7178
12683TIP3   OH259539   4.724   3.020  14.253 -0.2061  0.0565  0.3082
12683TIP3    H159540   4.802   2.964  14.253  0.8412  1.4381  0.7893
12683TIP3    H259541   4.758   3.106  14.226 -1.5897  0.6713  0.4740
12684TIP3   OH259542   6.097   1.622   1.112  0.9581  0.1296  0.1300
12684TIP3    H159543   6.119   1.655   1.200 -1.9306 -0.6496  1.2713
12684TIP3    H259544   6.060   1.535   1.128 -1.3621  0.7110 -1.5886
12685TIP3   OH259545   5.533   3.169  17.046 -0.1362 -0.1723 -0.1333
12685TIP3    H159546   5.489   3.151  17.130 -0.7839  0.3554 -0.3509
12685TIP3    H259547   5.560   3.083  17.015 -0.0299 -0.3911  0.5429
12686TIP3   OH259548   0.556   2.093   3.786  0.4650  0.3215  0.6286
12686TIP3    H159549   0.615   2.027   3.821  0.9594  1.1311  1.3578
12686TIP3    H259550   0.577   2.098   3.693 -0.6948 -1.6865  0.2129
12687TIP3   OH259551   2.028   2.263   3.073 -0.4887  0.2834 -0.3762
12687TIP3    H159552   1.944   2.300   3.100 -0.8604 -1.1186  0.4516
12687TIP3    H259553   2.011   2.170   3.061  0.3589  0.3564 -2.7204
12688TIP3   OH259554   1.500   4.531   4.196  0.1628  0.3266 -0.3461
12688TIP3    H159555   1.513   4.561   4.287 -1.4476  0.7088 -0.2066
12688TIP3    H259556   1.588   4.511   4.165  0.8995  1.4545  0.8769
12689TIP3   OH259557   2.708   0.038   0.470 -0.2007 -0.1150  0.0743
12689TIP3    H159558   2.661  -0.046   0.478 -0.5385  0.0546 -0.0859
12689TIP3    H259559   2.640   0.104   0.484 -0.2864  0.1575 -1.4424
12690TIP3   OH259560   6.181   4.798   4.245  0.2396  0.6160 -0.3859
12690TIP3    H159561   6.155   4.863   4.179 -0.9929 -0.4599 -1.0092
12690TIP3    H259562   6.108   4.736   4.247  0.7616  0.0146  1.2077
12691TIP3   OH259563   3.494   5.703  12.156  0.3238 -0.7351 -0.0731
12691TIP3    H159564   3.503   5.795  12.183  3.5205 -0.6645 -0.9962
12691TIP3    H259565   3.506   5.704  12.061  0.5853 -2.1365 -0.0805
12692TIP3   OH259566   4.841   1.433  16.804  0.2727  0.1463  0.7811
12692TIP3    H159567   4.834   1.525  16.829  1.5496  0.6580 -0.6133
12692TIP3    H259568   4.842   1.434  16.708 -0.9438 -1.4399  0.7131
12693TIP3   OH259569   3.389   4.152  11.074  0.0192  0.6335 -0.2335
12693TIP3    H159570   3.422   4.184  10.990  0.4229 -0.6570 -0.5981
12693TIP3    H259571   3.443   4.075  11.093 -1.1373 -0.0484  0.3993
12694TIP3   OH259572   3.798   0.299   2.418 -1.1265  0.2171  0.5392
12694TIP3    H159573   3.799   0.294   2.322 -0.3290  0.8927  0.4893
12694TIP3    H259574   3.890   0.287   2.443 -1.3327  0.0351  1.2149
12695TIP3   OH259575   3.788   3.084   3.000 -0.3189  0.0135 -0.3972
12695TIP3    H159576   3.773   3.097   2.906  1.0203 -1.0038 -0.7968
12695TIP3    H259577   3.781   2.990   3.013 -1.7934  0.2444  0.8173
12696TIP3   OH259578   5.550   4.342  15.700 -0.3986  0.0337 -0.1433
12696TIP3    H159579   5.624   4.283  15.713 -0.7730 -0.3480  0.3187
12696TIP3    H259580   5.562   4.378  15.612 -0.7235 -1.5680 -0.8817
12697TIP3   OH259581   4.467   5.080   1.980  0.8029  0.0233  0.4865
12697TIP3    H159582   4.486   5.026   1.903  1.2654  0.5066  0.2604
12697TIP3    H259583   4.387   5.042   2.016 -0.6479  1.0746 -1.4439
12698TIP3   OH259584   4.767   0.667   6.002  0.4990 -0.2984  0.7600
12698TIP3    H159585   4.714   0.666   6.082 -0.3843  0.5061  0.2063
12698TIP3    H259586   4.765   0.759   5.974  2.2972 -0.2143  0.7746
12699TIP3   OH259587   6.071   1.269  11.002 -0.5031  0.4579 -0.4016
12699TIP3    H159588   6.065   1.347  10.947  1.2479  2.2871  1.8061
12699TIP3    H259589   5.989   1.269  11.052  0.2944  2.0440  0.9633
12700TIP3   OH259590   3.019   5.950  16.058 -0.7084 -0.5547 -0.2909
12700TIP3    H159591   3.034   5.868  16.010  1.3401 -0.8069  0.6477
12700TIP3    H259592   2.934   5.938  16.100 -1.6481 -1.1100 -2.2392
12701TIP3   OH259593   5.749   4.841  12.822  0.5770 -0.5222 -0.1476
12701TIP3    H159594   5.658   4.824  12.800  0.4248  0.8180 -0.6781
12701TIP3    H259595   5.747   4.868  12.914  0.6987 -2.3128  0.4003
12702TIP3   OH259596   0.519   5.279   3.167 -0.3925 -0.5332  0.0163
12702TIP3    H159597   0.591   5.339   3.183 -1.0752  0.1257  0.6851
12702TIP3    H259598   0.454   5.331   3.120 -1.7999 -0.1556  2.2790
12703TIP3   OH259599   5.843   4.211  11.238 -0.0377 -0.2385  0.3921
12703TIP3    H159600   5.843   4.294  11.286 -1.5251 -1.0783  1.9379
12703TIP3    H259601   5.905   4.225  11.166  1.6425  1.3694  2.0342
12704TIP3   OH259602   6.006   4.887   0.363 -0.3387 -0.0905  0.0171
12704TIP3    H159603   5.994   4.912   0.271 -0.5280 -0.9811 -0.2097
12704TIP3    H259604   5.918   4.891   0.401 -0.4565 -0.9147 -0.1569
12705TIP3   OH259605   3.540   1.058  15.914 -0.4721 -0.3551 -0.0805
12705TIP3    H159606   3.515   1.047  15.822  1.2617  0.0270 -0.6441
12705TIP3    H259607   3.505   1.144  15.938 -0.4268 -0.1861 -0.5897
12706TIP3   OH259608   3.614   3.755   2.427  0.0784  0.1542  0.3002
12706TIP3    H159609   3.576   3.789   2.508 -0.0583  0.3698  0.1464
12706TIP3    H259610   3.708   3.761   2.440  0.1178  2.4168 -0.4445
12707TIP3   OH259611   6.382   6.797  13.842  0.5718  0.2708 -0.3113
12707TIP3    H159612   6.287   6.808  13.846  0.1493 -2.0979 -1.8599
12707TIP3    H259613   6.405   6.756  13.925  0.2850  0.9103  0.0936
12708TIP3   OH259614   2.552   4.273   2.196 -0.0695  0.5137  0.0140
12708TIP3    H159615   2.459   4.251   2.202 -0.1560  1.0799  1.2117
12708TIP3    H259616   2.574   4.305   2.284  0.4066  3.6718 -1.1134
12709TIP3   OH259617   2.676   2.045  11.850  0.2642  0.1678 -0.1170
12709TIP3    H159618   2.590   2.028  11.888 -0.1849  1.2496 -0.6095
12709TIP3    H259619   2.709   1.958  11.828 -0.3149 -0.3254  0.8934
12710TIP3   OH259620   3.441   6.703   5.716  0.5806  0.5369 -0.4969
12710TIP3    H159621   3.443   6.799   5.711 -0.3315  0.5927  0.0233
12710TIP3    H259622   3.516   6.675   5.664  1.3111  1.5611 -0.0385
12711TIP3   OH259623   3.431   2.548  10.286  0.4261  0.0564  0.2505
12711TIP3    H159624   3.366   2.547  10.215  0.2080 -0.4971  0.4472
12711TIP3    H259625   3.389   2.597  10.356 -0.5224 -1.7754  1.0297
12712TIP3   OH259626   3.556   6.270   0.490 -0.2780 -0.0814  0.1107
12712TIP3    H159627   3.505   6.207   0.542  0.6596 -2.4133 -1.5861
12712TIP3    H259628   3.632   6.291   0.545 -0.8207 -0.0806  0.8754
12713TIP3   OH259629   6.734   5.534   4.528 -0.1750  0.0549  0.4311
12713TIP3    H159630   6.658   5.517   4.472  0.3732 -0.4629 -0.1675
12713TIP3    H259631   6.803   5.477   4.494  0.3819  0.2509  1.1955
12714TIP3   OH259632   5.675   6.488   1.008  0.0303  0.1949  0.0457
12714TIP3    H159633   5.759   6.453   0.978 -0.6619 -1.3905 -0.1296
12714TIP3    H259634   5.673   6.578   0.974  2.1080  0.6332  0.9759
12715TIP3   OH259635   5.416   6.092   1.408  0.0939  0.5999  0.0911
12715TIP3    H159636   5.328   6.069   1.439  0.1244 -1.8326 -1.3800
12715TIP3    H259637   5.429   6.038   1.330  2.3976  1.9087 -0.5232
12716TIP3   OH259638   3.319   0.957   0.463 -0.1239  0.0684 -0.0399
12716TIP3    H159639   3.244   0.968   0.522 -0.7906  0.1690 -0.8805
12716TIP3    H259640   3.333   1.044   0.426 -0.1082 -0.1291 -0.4963
12717TIP3   OH259641   0.191   3.670   5.592 -0.7067 -0.4667  0.4297
12717TIP3    H159642   0.229   3.700   5.675  1.6326  0.0815 -0.7780
12717TIP3    H259643   0.161   3.750   5.549 -0.6006 -0.5924  0.1198
12718TIP3   OH259644   4.671   4.217   3.060  0.1859 -0.6719 -1.1762
12718TIP3    H159645   4.605   4.167   3.108 -1.5519  0.5124 -2.2488
12718TIP3    H259646   4.629   4.240   2.978  1.6667  0.8187 -1.5608
12719TIP3   OH259647   1.119   3.486  12.002  0.3487  0.5669  0.2394
12719TIP3    H159648   1.184   3.532  12.056 -0.5342  0.9935  0.9480
12719TIP3    H259649   1.125   3.395  12.030  0.9642  0.5139 -0.0321
12720TIP3   OH259650   6.657   6.178  12.752  0.2143  0.4632 -0.4943
12720TIP3    H159651   6.613   6.260  12.775  0.0486  0.2040  0.1231
12720TIP3    H259652   6.750   6.196  12.764  0.1017  0.1503  1.0227
12721TIP3   OH259653   0.308   2.220   6.443  0.1682  0.2171 -0.0990
12721TIP3    H159654   0.335   2.132   6.417  2.1277  1.0600 -1.1092
12721TIP3    H259655   0.268   2.257   6.364 -1.9288 -0.1927  0.7125
12722TIP3   OH259656   1.872   5.836   5.602 -0.5125  0.3314  0.4762
12722TIP3    H159657   1.797   5.852   5.545  0.6110 -1.4705 -1.6264
12722TIP3    H259658   1.833   5.815   5.687 -2.2688  1.6386  0.0650
12723TIP3   OH259659   2.158   3.824   1.751  0.7306  0.0477 -0.6511
12723TIP3    H159660   2.119   3.907   1.722 -0.6034 -0.4395 -0.3015
12723TIP3    H259661   2.252   3.844   1.760  0.4594  1.4783 -0.7057
12724TIP3   OH259662   0.484   2.551  12.732  0.2210  0.0178 -0.1111
12724TIP3    H159663   0.565   2.595  12.756  1.1978  0.2422 -3.2764
12724TIP3    H259664   0.421   2.622  12.720  0.1363  0.0293  0.4101
12725TIP3   OH259665   3.908   3.681   0.696  0.6954  0.0234 -0.2972
12725TIP3    H159666   3.814   3.663   0.696  0.5974  0.4702  0.3636
12725TIP3    H259667   3.949   3.595   0.690  0.2532 -0.4271  2.0986
12726TIP3   OH259668   3.545   1.187  11.430  0.0315  0.6298 -0.1022
12726TIP3    H159669   3.498   1.235  11.362 -1.5046  0.1621  0.6009
12726TIP3    H259670   3.638   1.203  11.411 -0.3864  3.4159 -0.2362
12727TIP3   OH259671   6.134   2.201  14.533 -0.1381 -0.4721  0.1590
12727TIP3    H159672   6.128   2.267  14.602  1.1570  0.1471 -0.2904
12727TIP3    H259673   6.209   2.228  14.480  0.4976 -2.3604  0.0188
12728TIP3   OH259674   6.331   6.512   3.668  0.3545  0.2227 -0.0857
12728TIP3    H159675   6.384   6.460   3.728  3.0991 -0.5617 -2.9514
12728TIP3    H259676   6.366   6.601   3.676 -1.2169  0.7730  1.4139
12729TIP3   OH259677   0.466   0.318   2.592 -0.3775 -0.0555 -0.5070
12729TIP3    H159678   0.472   0.356   2.679 -2.0550  0.3543 -0.5511
12729TIP3    H259679   0.471   0.223   2.607 -1.0654 -0.0045  0.0819
12730TIP3   OH259680   5.162   2.477  12.698 -0.0119  0.0617 -0.4856
12730TIP3    H159681   5.197   2.524  12.622  0.5620 -0.4365 -0.5326
12730TIP3    H259682   5.132   2.393  12.662  0.0560 -0.0845 -0.1997
12731TIP3   OH259683   4.534   5.228   1.714 -0.3753 -0.3795 -0.5639
12731TIP3    H159684   4.517   5.226   1.809  1.3676  0.9062 -0.1656
12731TIP3    H259685   4.608   5.169   1.702  1.8973  2.2554 -0.4531
12732TIP3   OH259686   1.508   5.533  12.313 -0.1315 -0.0281 -0.3595
12732TIP3    H159687   1.443   5.551  12.382  0.8618 -1.3316  0.9805
12732TIP3    H259688   1.504   5.610  12.256 -0.1262  1.7108  1.8446
12733TIP3   OH259689   1.625   0.380  15.694  0.1567 -0.5723 -0.6030
12733TIP3    H159690   1.537   0.360  15.663 -0.7078 -0.7178  1.7593
12733TIP3    H259691   1.655   0.299  15.735  0.9606 -0.1963 -0.4371
12734TIP3   OH259692   3.756   0.941  14.111 -0.0510  0.8700  0.5872
12734TIP3    H159693   3.685   0.879  14.096 -0.8345  1.4792  1.6900
12734TIP3    H259694   3.746   1.007  14.042  0.5412  0.0270 -0.3393
12735TIP3   OH259695   5.542   3.226   6.181 -0.0401  0.4438  0.7983
12735TIP3    H159696   5.456   3.189   6.162  0.0733 -0.3847  1.8029
12735TIP3    H259697   5.527   3.321   6.185 -0.6884  0.3864 -0.0584
12736TIP3   OH259698   4.808   6.259  14.885  0.2060  0.3612  0.4304
12736TIP3    H159699   4.715   6.242  14.899  0.2413 -0.6862 -0.4390
12736TIP3    H259700   4.837   6.188  14.827  1.2017  1.5343 -0.5569
12737TIP3   OH259701   4.469   3.462   4.461  0.3832  0.6289 -0.5661
12737TIP3    H159702   4.439   3.476   4.371 -0.6667  0.4283 -0.2523
12737TIP3    H259703   4.483   3.367   4.467 -0.8149  0.4620 -0.1446
12738TIP3   OH259704   3.420   0.149  15.458 -0.0698 -0.7828 -0.9865
12738TIP3    H159705   3.488   0.191  15.405 -1.1189  0.7012 -1.2101
12738TIP3    H259706   3.368   0.221  15.493  0.3606 -1.7324  1.8140
12739TIP3   OH259707   3.582   1.804   0.423  0.4147 -0.2388 -0.0908
12739TIP3    H159708   3.652   1.860   0.456  1.4330 -1.6183  0.1673
12739TIP3    H259709   3.505   1.829   0.474  0.1288  2.7006 -1.7345
12740TIP3   OH259710   1.475   2.900   3.678 -0.3888 -0.1262  0.2423
12740TIP3    H159711   1.556   2.915   3.629  0.7145 -0.0471  2.0369
12740TIP3    H259712   1.432   2.985   3.679 -0.2083 -0.0251 -0.1849
12741TIP3   OH259713   5.989   3.260  16.884 -0.7852 -0.6918 -0.3034
12741TIP3    H159714   5.896   3.277  16.903 -0.3836  1.4124  0.0248
12741TIP3    H259715   6.020   3.341  16.843  0.9806 -1.2576 -0.1579
12742TIP3   OH259716   3.133   5.854   1.927 -0.7053  0.2154 -0.5053
12742TIP3    H159717   3.153   5.841   2.020 -1.4100  3.1142  0.1457
12742TIP3    H259718   3.188   5.790   1.882  1.8680  0.6143  1.7581
12743TIP3   OH259719   6.613   5.917  16.080  0.4292  0.0452  0.2419
12743TIP3    H159720   6.652   5.944  15.996  1.3387  0.7744  0.8805
12743TIP3    H259721   6.531   5.875  16.055  0.7306  0.1576 -1.0294
12744TIP3   OH259722   3.713   6.542  13.158 -0.0131 -0.2649 -0.0217
12744TIP3    H159723   3.789   6.560  13.213  0.7270  1.5151 -1.5252
12744TIP3    H259724   3.749   6.517  13.073 -1.1072 -0.3563 -0.4866
12745TIP3   OH259725   5.679   3.946   0.199  0.4568 -0.5693  0.7110
12745TIP3    H159726   5.758   3.901   0.229 -0.5643 -2.1775  1.1857
12745TIP3    H259727   5.619   3.874   0.175 -0.8911  0.5881  0.4777
12746TIP3   OH259728   0.516   2.931  11.020 -0.1894 -0.6766 -0.4101
12746TIP3    H159729   0.471   2.997  10.968 -2.3387 -0.3307  1.7252
12746TIP3    H259730   0.601   2.971  11.041 -1.6685  1.8447  1.3972
12747TIP3   OH259731   1.111   5.290  13.564 -0.3353  0.8155 -0.6627
12747TIP3    H159732   1.065   5.248  13.636 -0.5035 -0.3061 -1.4077
12747TIP3    H259733   1.203   5.274  13.580  0.0281  4.0355  1.4569
12748TIP3   OH259734   5.771   1.270   1.093 -0.2947  0.4515 -0.3298
12748TIP3    H159735   5.698   1.303   1.040 -1.2218 -1.5236 -0.4058
12748TIP3    H259736   5.729   1.228   1.168  0.8238  0.2483  0.2012
12749TIP3   OH259737   2.054   6.575  16.999  0.3792 -0.6361  0.0707
12749TIP3    H159738   1.960   6.574  17.016  0.1113 -1.5791 -1.3222
12749TIP3    H259739   2.076   6.483  16.983  1.1046 -0.1691 -1.7645
12750TIP3   OH259740   5.744   6.323   2.027 -0.0334  0.3960  0.3214
12750TIP3    H159741   5.777   6.369   1.950 -1.2218 -2.1426 -1.8893
12750TIP3    H259742   5.652   6.351   2.034 -0.5082 -0.8692 -0.4986
12751TIP3   OH259743   6.738   0.412  16.063  0.0255 -0.1127  0.3000
12751TIP3    H159744   6.712   0.346  15.998  0.9504 -0.7848  0.5984
12751TIP3    H259745   6.725   0.496  16.018  2.1992 -0.5985 -1.3790
12752TIP3   OH259746   1.850   6.778  15.984 -0.8490 -0.2865 -0.2458
12752TIP3    H159747   1.830   6.684  15.974 -2.2497 -0.3054  1.9209
12752TIP3    H259748   1.765   6.819  16.000 -0.1455  1.1991 -0.1299
12753TIP3   OH259749   5.102   2.647   4.613  0.3131 -0.6173  0.2942
12753TIP3    H159750   5.109   2.718   4.549  0.0682  0.3437  1.2969
12753TIP3    H259751   5.149   2.574   4.574  1.1981  0.3296 -0.4593
12754TIP3   OH259752   1.356   1.565   6.250  0.4317  0.9667 -0.2246
12754TIP3    H159753   1.395   1.528   6.171  0.1143  2.2003 -0.9969
12754TIP3    H259754   1.321   1.650   6.221 -2.6735  0.0347  0.4089
12755TIP3   OH259755   2.920   1.028  12.161  0.3402  0.4284 -0.0817
12755TIP3    H159756   2.871   1.078  12.096  1.8997 -0.2060 -1.8464
12755TIP3    H259757   2.865   1.029  12.239 -1.1338  2.1189 -1.0662
12756TIP3   OH259758   2.480   4.871   3.496 -0.5273  0.1173  0.4664
12756TIP3    H159759   2.491   4.856   3.402 -0.8919  0.5761  0.3513
12756TIP3    H259760   2.392   4.839   3.515 -0.5263  0.2070  0.6190
12757TIP3   OH259761   4.704   3.821   3.980 -0.4777  0.7338  0.2816
12757TIP3    H159762   4.697   3.802   3.887  0.2919 -0.2576  0.4165
12757TIP3    H259763   4.661   3.906   3.990 -0.3066  0.9930 -1.0197
12758TIP3   OH259764   0.531   3.157  13.353 -0.1512  0.0759  0.2427
12758TIP3    H159765   0.559   3.196  13.436  1.0358  0.4692 -0.3127
12758TIP3    H259766   0.543   3.062  13.366  0.6289  0.1766  0.3246
12759TIP3   OH259767   5.529   0.651   4.716  0.4950 -0.7883  0.0458
12759TIP3    H159768   5.507   0.635   4.625  0.1369 -0.3002  0.0408
12759TIP3    H259769   5.555   0.743   4.719  0.6714 -0.8453  0.4042
12760TIP3   OH259770   6.578   3.699   3.090  0.6028 -0.1473 -0.3979
12760TIP3    H159771   6.536   3.693   3.177  2.4162 -1.5655  0.4451
12760TIP3    H259772   6.578   3.792   3.070  0.0789  0.2133  1.1136
12761TIP3   OH259773   2.145   4.605   5.404 -0.0844 -0.3685  0.1756
12761TIP3    H159774   2.091   4.599   5.483  0.7253 -1.0134  0.7000
12761TIP3    H259775   2.234   4.614   5.438  0.1444  0.7573 -0.6728
12762TIP3   OH259776   4.959   5.977   2.489 -0.8036 -0.2509  0.1535
12762TIP3    H159777   5.033   5.920   2.472 -0.4372 -0.0735  1.0696
12762TIP3    H259778   4.909   5.979   2.407 -1.1084 -2.2949  0.2501
12763TIP3   OH259779   6.193   6.457   4.781 -0.2042 -0.0765  0.6995
12763TIP3    H159780   6.211   6.363   4.780  0.3589  0.0316  0.5214
12763TIP3    H259781   6.229   6.487   4.865 -3.5382 -0.6126  2.5081
12764TIP3   OH259782   3.465   3.930  16.828  0.2529  0.5447 -0.3723
12764TIP3    H159783   3.435   4.005  16.881  1.1722 -0.8003  2.2274
12764TIP3    H259784   3.556   3.951  16.807  0.3398  0.4205 -0.1251
12765TIP3   OH259785   5.664   2.461   5.911 -0.0974  0.0875  0.0366
12765TIP3    H159786   5.642   2.477   5.819  1.8647  2.5720 -0.0949
12765TIP3    H259787   5.647   2.545   5.954  1.0986 -0.3790  1.4895
12766TIP3   OH259788   2.202   5.368  11.385  0.1602  0.3610 -0.0510
12766TIP3    H159789   2.169   5.451  11.419  2.1439  1.3206 -0.2978
12766TIP3    H259790   2.212   5.382  11.291 -0.1689 -0.4100 -0.2075
12767TIP3   OH259791   3.410   5.408   4.339  0.0513  0.8111 -0.3564
12767TIP3    H159792   3.504   5.396   4.331  0.2489  2.8416 -2.0995
12767TIP3    H259793   3.398   5.447   4.426  0.8181  0.6488 -0.1745
12768TIP3   OH259794   0.455   3.237  15.875  0.6375 -0.1646 -0.2332
12768TIP3    H159795   0.427   3.329  15.877  0.5896 -0.1863  0.0886
12768TIP3    H259796   0.383   3.189  15.917  0.4048 -0.4165 -0.9098
12769TIP3   OH259797   2.770   2.391  13.523 -0.0349  0.0306  0.1929
12769TIP3    H159798   2.745   2.474  13.483 -0.9511 -0.9337 -1.3158
12769TIP3    H259799   2.854   2.368  13.482  0.2007  0.1828  0.5825
12770TIP3   OH259800   1.882   4.888   3.988  0.2524  0.2626  0.1664
12770TIP3    H159801   1.818   4.851   4.049 -2.3077  2.2450 -1.1232
12770TIP3    H259802   1.945   4.934   4.044 -1.8027  1.7178  1.4234
12771TIP3   OH259803   1.994   4.420  15.556 -0.3548 -0.0695  0.2528
12771TIP3    H159804   2.015   4.327  15.555  0.6129  0.1248  0.9255
12771TIP3    H259805   1.984   4.443  15.464 -1.2280 -0.9675  0.1154
12772TIP3   OH259806   2.513   4.617  11.916 -0.4544 -0.3469 -0.2042
12772TIP3    H159807   2.506   4.691  11.855  0.8344  0.7435  0.9229
12772TIP3    H259808   2.532   4.542  11.859 -0.8831  0.3404 -1.2912
12773TIP3   OH259809   4.369   5.402  13.461  0.4183 -0.1221  0.5918
12773TIP3    H159810   4.302   5.440  13.404 -0.2264  0.2458  1.5727
12773TIP3    H259811   4.446   5.457  13.446  0.7224 -0.9207 -0.9977
12774TIP3   OH259812   1.725   1.453  11.334  1.2376 -0.0718 -0.0963
12774TIP3    H159813   1.678   1.534  11.354  2.1105  0.4083  0.0499
12774TIP3    H259814   1.776   1.474  11.255 -0.6640 -1.3453 -1.7488
12775TIP3   OH259815   0.278   4.461   6.354  0.4377  0.1876  0.0254
12775TIP3    H159816   0.247   4.418   6.435  0.5440 -1.6960 -0.8723
12775TIP3    H259817   0.314   4.544   6.383  0.1411 -0.2848  1.8771
12776TIP3   OH259818   4.537   3.210   5.388  0.4077 -0.4456 -0.0816
12776TIP3    H159819   4.476   3.250   5.450  1.1083  0.1565  0.2424
12776TIP3    H259820   4.536   3.117   5.410  0.6483 -0.2387  0.8474
12777TIP3   OH259821   5.358   5.532   4.971  0.6038  0.2910 -0.0015
12777TIP3    H159822   5.431   5.475   4.949  0.0902 -0.2327 -0.3923
12777TIP3    H259823   5.396   5.602   5.024  1.2717 -0.3074  0.3132
12778TIP3   OH259824   5.692   0.601   1.478  0.1524 -0.1755 -0.3915
12778TIP3    H159825   5.761   0.576   1.540  0.1410  1.9883  0.6068
12778TIP3    H259826   5.734   0.665   1.420 -0.7441  0.4026 -0.4170
12779TIP3   OH259827   5.592   1.786  14.193 -0.0687  0.0069 -0.1371
12779TIP3    H159828   5.616   1.725  14.263  0.0824 -2.1709 -1.9928
12779TIP3    H259829   5.669   1.842  14.183 -0.2727  0.6989  1.7180
12780TIP3   OH259830   6.123   0.038   5.228 -0.2769 -0.0750  0.4215
12780TIP3    H159831   6.140  -0.053   5.203 -0.1535  0.1809 -0.4670
12780TIP3    H259832   6.055   0.067   5.168 -0.2282  0.4615  0.6189
12781TIP3   OH259833   5.299   5.753   2.645  0.1229 -0.3899 -0.2253
12781TIP3    H159834   5.284   5.797   2.562  1.6499  0.2304 -0.2142
12781TIP3    H259835   5.394   5.741   2.649  0.2822  0.9135  2.0423
12782TIP3   OH259836   2.127   5.723   2.745  0.0505  0.2660 -0.0342
12782TIP3    H159837   2.125   5.804   2.795 -0.5142  0.1443  0.1481
12782TIP3    H259838   2.052   5.673   2.777 -1.0947  0.7107 -1.8620
12783TIP3   OH259839   1.643   3.221  16.569  0.6129  0.5873 -0.5677
12783TIP3    H159840   1.717   3.281  16.559  0.2747  0.8998 -1.3680
12783TIP3    H259841   1.664   3.147  16.512  0.3074  0.6835 -0.8080
12784TIP3   OH259842   0.936   3.801   4.714 -0.1503 -0.5598 -0.3957
12784TIP3    H159843   1.019   3.819   4.669 -1.7159  2.6947 -2.4138
12784TIP3    H259844   0.960   3.794   4.806  2.3817  0.5448 -0.8703
12785TIP3   OH259845   4.830   5.965   4.882 -0.2350  0.2348  0.3297
12785TIP3    H159846   4.836   6.023   4.806  1.1520  1.7406  1.5142
12785TIP3    H259847   4.909   5.984   4.933 -1.4500 -0.2127  2.5031
12786TIP3   OH259848   0.664   0.440   5.172 -0.1316  0.3415 -0.2823
12786TIP3    H159849   0.682   0.385   5.248  0.2222  1.0960  0.1839
12786TIP3    H259850   0.580   0.407   5.138 -0.1515 -0.1806  0.2599
12787TIP3   OH259851   2.355   6.800   1.803  0.1445  0.1980 -1.1066
12787TIP3    H159852   2.369   6.894   1.817  1.7885 -0.0692 -0.6313
12787TIP3    H259853   2.260   6.789   1.806 -0.2360  2.1170 -3.1885
12788TIP3   OH259854   6.478   6.667  12.817 -0.3262  0.3505  0.2236
12788TIP3    H159855   6.552   6.659  12.877 -0.3818  1.1545  0.4079
12788TIP3    H259856   6.495   6.747  12.768 -1.2688  0.7691  0.5546
12789TIP3   OH259857   3.394   0.384   6.389  0.3080  0.2094 -0.9515
12789TIP3    H159858   3.400   0.295   6.356  0.7253 -0.2070  0.1945
12789TIP3    H259859   3.321   0.382   6.451  0.0956  0.7491 -1.1779
12790TIP3   OH259860   0.365   6.132  15.106  0.8281  0.6060 -0.2529
12790TIP3    H159861   0.419   6.133  15.028  1.5816  0.8671  0.2609
12790TIP3    H259862   0.293   6.073  15.085  1.1368  0.5141 -1.0650
12791TIP3   OH259863   3.989   2.874  11.549 -0.5016 -0.1535 -0.2597
12791TIP3    H159864   3.914   2.853  11.493  0.4509  0.4111 -1.7929
12791TIP3    H259865   3.950   2.924  11.621 -1.4500  1.5255 -1.8463
12792TIP3   OH259866   1.033   2.717  15.268  0.1570 -0.4937  0.2043
12792TIP3    H159867   0.975   2.641  15.269 -0.9416  0.2904 -0.7661
12792TIP3    H259868   0.980   2.787  15.229  2.1946 -0.1151 -2.1521
12793TIP3   OH259869   1.653   4.556  16.114 -0.3462 -0.5824 -0.3024
12793TIP3    H159870   1.559   4.543  16.128  0.0605 -1.0368  2.5653
12793TIP3    H259871   1.666   4.650  16.123 -0.7307 -0.2549 -2.6255
12794TIP3   OH259872   1.376   2.982   1.897  0.5014 -0.2914 -0.6379
12794TIP3    H159873   1.457   2.934   1.916  0.3359 -1.1607 -2.0435
12794TIP3    H259874   1.306   2.921   1.921  0.2689 -0.0263 -0.6448
12795TIP3   OH259875   4.088   6.813   3.647 -0.2203  0.1579 -0.5047
12795TIP3    H159876   4.108   6.844   3.558  2.1999  0.5418  0.1021
12795TIP3    H259877   4.103   6.718   3.642 -0.3758  0.1371 -0.5803
12796TIP3   OH259878   1.174   4.070  17.225  0.2858 -0.6145 -0.4307
12796TIP3    H159879   1.096   4.014  17.225 -0.1108 -0.0794 -0.1978
12796TIP3    H259880   1.201   4.071  17.317 -0.0238 -0.0048 -0.3431
12797TIP3   OH259881   4.749   0.082   1.050  0.1124 -0.1996  0.4251
12797TIP3    H159882   4.799   0.000   1.053  1.0142  0.3688  1.7686
12797TIP3    H259883   4.679   0.070   1.113  1.1479  0.5865  1.7854
12798TIP3   OH259884   1.457   4.316  12.326 -0.2314  0.7904 -0.2007
12798TIP3    H159885   1.548   4.315  12.296 -0.0782 -2.9029 -0.0146
12798TIP3    H259886   1.426   4.404  12.305  3.1253  1.9297 -0.9754
12799TIP3   OH259887   4.661   5.993   3.591 -0.0923 -0.4789 -0.5933
12799TIP3    H159888   4.705   5.908   3.583  0.7858 -0.0323 -0.5542
12799TIP3    H259889   4.601   5.996   3.517  1.0824 -0.4295 -1.5694
12800TIP3   OH259890   5.191   5.428  14.149 -0.0379 -0.4074  0.1368
12800TIP3    H159891   5.219   5.346  14.192 -0.6834 -0.1501  1.0808
12800TIP3    H259892   5.240   5.429  14.067  1.6797 -0.6539  1.0963
12801TIP3   OH259893   6.663   4.895   0.778  0.1616 -0.0503 -0.3157
12801TIP3    H159894   6.588   4.917   0.834  0.8924  1.7491 -0.0020
12801TIP3    H259895   6.627   4.891   0.690 -1.1174 -3.3982  0.1897
12802TIP3   OH259896   1.656   2.526  10.983  0.1992  0.6899  0.2872
12802TIP3    H159897   1.725   2.511  11.047  1.2351  1.3863 -0.6360
12802TIP3    H259898   1.695   2.584  10.917 -0.8217  0.0060 -0.9861
12803TIP3   OH259899   6.054   3.499   5.751  0.7207 -0.3695 -0.0116
12803TIP3    H159900   6.109   3.533   5.821  0.7035  0.4232 -0.3631
12803TIP3    H259901   6.095   3.531   5.670  0.0702 -0.2383 -0.3008
12804TIP3   OH259902   3.031   5.409   0.166  0.5130  0.5217 -0.5156
12804TIP3    H159903   3.070   5.349   0.230 -0.3187  0.8122  0.2898
12804TIP3    H259904   3.086   5.401   0.088  1.4748  0.0641  0.1937
12805TIP3   OH259905   1.874   2.691   1.960 -0.3695  0.1642  0.0471
12805TIP3    H159906   1.837   2.750   2.027 -1.0770 -0.2404  0.0247
12805TIP3    H259907   1.921   2.749   1.900  0.2793  0.5358  0.8922
12806TIP3   OH259908   0.790   1.469  17.002 -0.5594 -0.3613 -0.0591
12806TIP3    H159909   0.848   1.440  17.073  1.2505  0.9140 -0.9170
12806TIP3    H259910   0.711   1.416  17.012  0.2662 -1.3396  1.9219
12807TIP3   OH259911   5.665   4.468   1.388 -0.0366  0.2128 -0.1008
12807TIP3    H159912   5.628   4.423   1.312 -0.1420 -0.4823  0.3551
12807TIP3    H259913   5.683   4.557   1.356  0.3242 -0.1849 -1.0589
12808TIP3   OH259914   2.440   2.353  11.458 -0.2901  0.5824  0.3738
12808TIP3    H159915   2.416   2.429  11.403  0.8214  1.5570  1.1889
12808TIP3    H259916   2.358   2.306  11.469 -1.0674  1.7831  0.0121
12809TIP3   OH259917   5.624   5.323  13.769  0.4295  0.6316  0.4427
12809TIP3    H159918   5.533   5.351  13.779  0.6830  1.1199  1.5364
12809TIP3    H259919   5.665   5.394  13.719 -0.0905 -0.2639 -1.3405
12810TIP3   OH259920   3.239   0.128   5.379 -0.3117  0.4993 -0.2231
12810TIP3    H159921   3.187   0.050   5.393  0.2306  0.1882  0.0566
12810TIP3    H259922   3.192   0.175   5.309 -0.1148 -0.5410 -1.0713
12811TIP3   OH259923   2.050   0.775   2.683  0.4759 -0.1519  0.0764
12811TIP3    H159924   1.979   0.732   2.634 -0.8087  1.2036  0.6657
12811TIP3    H259925   2.064   0.718   2.758 -1.0921  0.3212  0.7648
12812TIP3   OH259926   0.520   4.283  11.309  0.2539  0.1667  0.1513
12812TIP3    H159927   0.459   4.275  11.236  1.4870  2.5513 -1.2911
12812TIP3    H259928   0.499   4.368  11.348  1.3364  0.1142  0.8940
12813TIP3   OH259929   1.105   3.505   0.583  0.3340  0.0509 -0.3480
12813TIP3    H159930   1.108   3.409   0.578 -0.0506  0.0494 -0.6143
12813TIP3    H259931   1.188   3.529   0.624 -0.3129 -0.4903  1.3389
12814TIP3   OH259932   3.541   4.214  13.426 -0.3833 -0.1001 -0.4979
12814TIP3    H159933   3.628   4.182  13.400  1.0488  3.8008 -1.1772
12814TIP3    H259934   3.536   4.193  13.520  2.4077  1.5288  0.1504
12815TIP3   OH259935   3.397   1.860  12.114 -0.6480 -0.7188 -0.1266
12815TIP3    H159936   3.320   1.812  12.081 -2.1583  1.1151  0.5538
12815TIP3    H259937   3.360   1.937  12.157  1.3609 -1.3008  2.9906
12816TIP3   OH259938   5.633   1.208   1.316 -0.0079 -0.2004 -0.0859
12816TIP3    H159939   5.675   1.129   1.349  0.1871  0.4491  1.2842
12816TIP3    H259940   5.673   1.280   1.366  1.1400  0.9882 -2.5287
12817TIP3   OH259941   3.519   0.930   0.185 -0.1359 -0.4120  1.1946
12817TIP3    H159942   3.546   0.992   0.253  1.4079  0.5614 -0.1960
12817TIP3    H259943   3.602   0.894   0.153 -0.7054  0.0068 -0.8865
12818TIP3   OH259944   1.791   6.041   3.352 -0.0804 -0.0371 -0.6048
12818TIP3    H159945   1.788   6.102   3.426  3.1057  1.4464 -1.4705
12818TIP3    H259946   1.705   6.046   3.312 -1.0917  0.9929  1.5646
12819TIP3   OH259947   5.421   1.403   5.707  1.0495  0.1796 -0.2638
12819TIP3    H159948   5.365   1.459   5.653 -0.3628 -0.4758  0.4849
12819TIP3    H259949   5.425   1.320   5.659  1.8768  0.4045 -0.6018
12820TIP3   OH259950   4.668   2.199  13.759  0.4130  0.1502 -0.2222
12820TIP3    H159951   4.738   2.263  13.747  1.2531 -0.8409 -0.8145
12820TIP3    H259952   4.646   2.204  13.852  1.6747  0.1018  0.0990
12821TIP3   OH259953   2.914   2.138   3.417 -0.2581  0.5667  0.3390
12821TIP3    H159954   2.968   2.209   3.450  0.8716 -0.7124  1.3652
12821TIP3    H259955   2.976   2.081   3.370 -1.2075  0.4680 -0.8282
12822TIP3   OH259956   4.697   0.667  15.820  1.0193  0.1186 -0.0814
12822TIP3    H159957   4.704   0.581  15.862  0.2465 -0.1730 -0.5254
12822TIP3    H259958   4.787   0.688  15.794  1.2931 -0.3157  0.4916
12823TIP3   OH259959   5.701   1.615  15.517  0.0140  0.0911 -0.4882
12823TIP3    H159960   5.636   1.561  15.474  0.7417 -0.0686 -1.4178
12823TIP3    H259961   5.751   1.656  15.446  0.8971  0.2435  0.1874
12824TIP3   OH259962   3.525   0.703   2.952  0.1712  0.2281 -0.2498
12824TIP3    H159963   3.469   0.671   3.022  1.1418 -0.8045  0.0874
12824TIP3    H259964   3.488   0.664   2.872  0.3674 -0.4102 -0.0358
12825TIP3   OH259965   6.770   1.157   4.167  0.1627  0.6483  0.1219
12825TIP3    H159966   6.823   1.213   4.224  0.0853 -0.3776  1.2276
12825TIP3    H259967   6.743   1.084   4.223 -0.5349 -0.0049 -1.0354
12826TIP3   OH259968   1.910   4.724   3.038  0.3647 -0.0025 -0.6335
12826TIP3    H159969   1.988   4.673   3.057 -1.0384 -1.2880  2.2842
12826TIP3    H259970   1.900   4.783   3.113  0.3751  2.7143 -2.5954
12827TIP3   OH259971   5.126   6.572  17.152  0.8362 -0.0789 -0.3077
12827TIP3    H159972   5.190   6.632  17.114  1.7665  0.0681  1.3946
12827TIP3    H259973   5.043   6.618  17.144  1.2957  0.7478 -0.4547
12828TIP3   OH259974   0.779   2.841   2.048 -0.0181 -0.8975 -0.1478
12828TIP3    H159975   0.715   2.904   2.016  0.3470  1.2774  2.9040
12828TIP3    H259976   0.728   2.768   2.081 -0.9517  0.3846  1.3742
12829TIP3   OH259977   6.462   0.148  11.996 -0.7956  0.3242 -0.3530
12829TIP3    H159978   6.496   0.187  11.915  0.2524 -2.3735 -1.3430
12829TIP3    H259979   6.484   0.211  12.065  0.1189  1.7648 -1.8960
12830TIP3   OH259980   1.682   3.519  13.382 -0.1112 -0.3466  0.3572
12830TIP3    H159981   1.668   3.467  13.462 -3.8970  0.1651  0.2281
12830TIP3    H259982   1.598   3.562  13.367  0.7827  0.4581 -3.3234
12831TIP3   OH259983   6.322   2.813   3.520  0.1952  0.8351  0.5766
12831TIP3    H159984   6.392   2.750   3.504 -1.7123 -1.6971  1.4589
12831TIP3    H259985   6.262   2.801   3.446  0.2788  2.3982  0.2246
12832TIP3   OH259986   0.158   1.949   2.593 -0.0348  0.2938 -0.1537
12832TIP3    H159987   0.211   1.871   2.612  0.2942  0.5709  0.0749
12832TIP3    H259988   0.111   1.926   2.513  0.9364  0.2898 -0.7374
12833TIP3   OH259989   2.185   6.072  15.562 -0.2861  0.2277 -0.4401
12833TIP3    H159990   2.170   6.030  15.647  0.5920 -3.0706 -1.7488
12833TIP3    H259991   2.100   6.070  15.518 -0.2436 -0.2573 -0.5056
12834TIP3   OH259992   4.374   5.291  16.409  0.2032  0.4817 -0.1721
12834TIP3    H159993   4.334   5.345  16.341 -0.6501  1.5499  1.1437
12834TIP3    H259994   4.342   5.203  16.392 -0.8120  0.9133 -0.5503
12835TIP3   OH259995   4.960   0.340  14.160 -0.1437  0.2203  0.2933
12835TIP3    H159996   5.021   0.406  14.193  2.2616 -2.4095  1.4358
12835TIP3    H259997   4.884   0.346  14.219 -0.6567  2.7667 -0.4601
12836TIP3   OH259998   1.607   1.477  12.045 -0.1154  0.1129  0.1609
12836TIP3    H159999   1.696   1.510  12.057  0.3388 -0.4740 -1.3693
12836TIP3    H260000   1.612   1.422  11.967 -2.5016  2.5826 -1.9137
12837TIP3   OH260001   2.548   5.049  11.101 -0.4656  0.1356 -0.4069
12837TIP3    H160002   2.629   5.075  11.056  0.6238 -0.6831  0.9883
12837TIP3    H260003   2.531   5.120  11.162 -0.9800  0.4505 -0.9142
12838TIP3   OH260004   4.606   2.622  13.340  0.1300 -0.2217 -0.6838
12838TIP3    H160005   4.671   2.588  13.401 -0.0940  0.6977  0.0958
12838TIP3    H260006   4.525   2.626  13.390 -0.6393 -1.6395 -1.7281
12839TIP3   OH260007   6.639   6.248  11.614 -0.2589  0.9062  0.6243
12839TIP3    H160008   6.578   6.236  11.687  0.0945  1.5704  1.0298
12839TIP3    H260009   6.724   6.258  11.656 -0.1429  1.9184  0.1476
12840TIP3   OH260010   5.676   0.442  12.984 -0.0783  0.0483 -0.3202
12840TIP3    H160011   5.729   0.510  12.943 -0.3976  1.1359  0.9864
12840TIP3    H260012   5.616   0.489  13.041 -0.9930 -1.2866 -0.1173
12841TIP3   OH260013   0.250   1.521   1.011 -0.6537 -0.1725 -0.6205
12841TIP3    H160014   0.270   1.488   0.924 -0.8196 -0.2386 -0.6346
12841TIP3    H260015   0.210   1.607   0.995  2.5484  1.4829 -0.4729
12842TIP3   OH260016   6.220   1.232  13.316  0.0511  0.3629  0.7184
12842TIP3    H160017   6.259   1.157  13.271 -1.1623  0.0971  0.0529
12842TIP3    H260018   6.190   1.289  13.246 -1.3845  0.2073  1.1716
12843TIP3   OH260019   6.174   4.413  12.096  0.0436  0.2011  0.1505
12843TIP3    H160020   6.204   4.472  12.026 -0.0155  0.2232  0.1431
12843TIP3    H260021   6.180   4.326  12.058  0.4183  0.1778  0.2661
12844TIP3   OH260022   2.037   1.660   5.831  0.0921  0.0273 -0.3640
12844TIP3    H160023   1.978   1.697   5.897 -0.8459 -0.9471 -0.6381
12844TIP3    H260024   2.083   1.589   5.876  0.2313  0.0529 -0.4645
12845TIP3   OH260025   2.684   3.999   4.314 -0.3695  0.6808  0.2650
12845TIP3    H160026   2.629   3.964   4.244  1.1312  0.6884 -0.9708
12845TIP3    H260027   2.739   3.926   4.340  0.3832  1.1814  0.1034
12846TIP3   OH260028   4.171   1.514  13.453  0.5380  0.6704 -0.1329
12846TIP3    H160029   4.191   1.439  13.396  0.0475 -0.5195  1.2030
12846TIP3    H260030   4.245   1.519  13.513 -0.6236 -0.4310  1.4564
12847TIP3   OH260031   3.079   2.858  15.002 -0.2686 -0.0982 -0.2386
12847TIP3    H160032   3.124   2.808  14.933  0.0113 -0.9557  0.5394
12847TIP3    H260033   3.130   2.938  15.011  0.5350 -0.6209 -0.0499
12848TIP3   OH260034   6.441   2.817  11.493 -0.6245  0.2172  0.0606
12848TIP3    H160035   6.522   2.818  11.442  0.0253 -0.2734  1.0691
12848TIP3    H260036   6.439   2.730  11.534 -0.4438  1.0624  1.9490
12849TIP3   OH260037   5.802   4.647  16.078 -0.4690  0.0425  0.1182
12849TIP3    H160038   5.851   4.667  16.157  1.1698  0.4230 -0.9329
12849TIP3    H260039   5.858   4.586  16.029 -1.5186 -0.3340 -0.6676
12850TIP3   OH260040   2.125   3.354  11.296  0.3353  0.2115 -0.1271
12850TIP3    H160041   2.155   3.268  11.269  0.0350  1.0306 -3.5389
12850TIP3    H260042   2.204   3.407  11.300  0.5322 -0.1817  2.0638
12851TIP3   OH260043   0.461   6.341  14.753  0.5564 -0.0808  0.5197
12851TIP3    H160044   0.532   6.400  14.778  1.8036 -0.8500 -1.0623
12851TIP3    H260045   0.460   6.343  14.658  0.6033 -2.5293  0.4084
12852TIP3   OH260046   2.085   5.050   6.287 -0.3904 -0.7221 -0.4742
12852TIP3    H160047   2.071   5.004   6.370  1.7520 -2.8991 -1.2108
12852TIP3    H260048   2.156   5.111   6.305  0.5010 -1.6303 -0.7914
12853TIP3   OH260049   0.254   3.287  14.480  0.1043 -0.1955  0.1549
12853TIP3    H160050   0.176   3.304  14.533 -0.4861 -0.1062 -0.7298
12853TIP3    H260051   0.314   3.359  14.502  0.3537 -0.7951  1.5732
12854TIP3   OH260052   2.889   5.796  16.351 -0.1968  0.0687  0.7398
12854TIP3    H160053   2.821   5.830  16.294 -0.8937  0.8560  1.9929
12854TIP3    H260054   2.916   5.714  16.310 -0.7878  0.5190 -0.6054
12855TIP3   OH260055   3.735   0.931   2.929 -0.3679  0.2738 -0.0038
12855TIP3    H160056   3.737   0.878   3.008  0.3303  1.7591  1.0120
12855TIP3    H260057   3.656   0.902   2.882 -0.4221 -1.0815  0.8857
12856TIP3   OH260058   3.250   2.115   3.629  0.3047  0.1582 -0.3313
12856TIP3    H160059   3.339   2.087   3.652 -0.1561 -0.5850  0.6524
12856TIP3    H260060   3.222   2.170   3.703  0.3165  1.2622 -1.1293
12857TIP3   OH260061   6.767   1.705  17.265 -0.1564  0.0566  0.1478
12857TIP3    H160062   6.703   1.638  17.241 -0.5481  0.2913  0.5046
12857TIP3    H260063   6.841   1.657  17.301  0.5293 -0.3168 -1.6569
12858TIP3   OH260064   4.861   0.538   5.748  0.3899  0.1383  0.0288
12858TIP3    H160065   4.807   0.603   5.793 -0.4023  1.0060 -2.0685
12858TIP3    H260066   4.950   0.573   5.752  0.2511  0.4528  0.4363
12859TIP3   OH260067   4.559   3.471   2.583  0.0747 -0.2706 -0.1907
12859TIP3    H160068   4.588   3.452   2.494 -1.4814 -1.4439 -0.5094
12859TIP3    H260069   4.561   3.387   2.628 -0.7940 -0.0281  0.3492
12860TIP3   OH260070   0.771   6.764   4.298 -0.2506  0.4908 -0.0303
12860TIP3    H160071   0.732   6.708   4.231 -0.2934 -2.2468  2.0937
12860TIP3    H260072   0.699   6.818   4.329 -0.8377 -0.0168 -0.4669
12861TIP3   OH260073   3.653   4.600   2.750  0.3987  0.0689 -0.5222
12861TIP3    H160074   3.679   4.672   2.692 -0.5568  1.2230  0.4337
12861TIP3    H260075   3.734   4.571   2.790  0.9165  0.0129 -1.5856
12862TIP3   OH260076   5.567   0.856   4.959 -0.2624  0.1208  0.1263
12862TIP3    H160077   5.640   0.916   4.975 -0.4980  0.2696  0.6511
12862TIP3    H260078   5.489   0.903   4.989 -0.4319 -0.4911  0.6827
12863TIP3   OH260079   2.589   5.929  12.079  0.0248 -0.0820 -0.0054
12863TIP3    H160080   2.505   5.972  12.097  0.1251 -0.1046  0.5274
12863TIP3    H260081   2.631   5.986  12.014  0.4058  0.9605  1.1241
12864TIP3   OH260082   3.407   0.978   4.109  0.1462 -0.0561 -0.0716
12864TIP3    H160083   3.495   0.939   4.106 -0.6827 -2.0332 -0.8557
12864TIP3    H260084   3.355   0.923   4.049 -1.6960  0.8538  0.6244
12865TIP3   OH260085   6.010   3.509  12.158 -0.0717 -0.4315 -0.2265
12865TIP3    H160086   5.953   3.585  12.173 -0.3142 -0.2626 -1.8024
12865TIP3    H260087   5.984   3.476  12.072 -2.2183 -4.3075  1.6338
12866TIP3   OH260088   3.529   2.027  15.177 -1.0069  0.1988  0.5381
12866TIP3    H160089   3.625   2.033  15.176 -1.0921  1.6860 -0.0627
12866TIP3    H260090   3.512   1.935  15.198  0.5491 -0.1372  0.4729
12867TIP3   OH260091   1.032   0.068   1.944  0.6007  0.1214  0.7199
12867TIP3    H160092   0.961   0.005   1.960 -1.3945  2.4166  1.4223
12867TIP3    H260093   1.075   0.077   2.029 -2.6958  3.6905  2.3192
12868TIP3   OH260094   4.011   1.133   2.971 -0.6621  0.2695  0.5657
12868TIP3    H160095   4.097   1.148   3.010 -0.3059 -0.4059  0.0621
12868TIP3    H260096   3.954   1.112   3.045  0.0480 -1.1842  0.7357
12869TIP3   OH260097   0.875   4.612  12.747 -0.5118 -0.5852  0.3458
12869TIP3    H160098   0.830   4.528  12.736 -0.2174 -0.6898 -0.0568
12869TIP3    H260099   0.943   4.594  12.812  0.4327 -1.0057 -0.7345
12870TIP3   OH260100   3.594   4.206  11.547 -0.2996 -0.3521 -0.1918
12870TIP3    H160101   3.686   4.179  11.539  0.0222  0.7019 -0.2324
12870TIP3    H260102   3.545   4.138  11.500  0.3184 -1.6859  1.0181
12871TIP3   OH260103   4.562   6.608  16.534 -0.1037  0.2076  0.0629
12871TIP3    H160104   4.636   6.666  16.516 -0.7094  1.7121  1.9570
12871TIP3    H260105   4.593   6.552  16.605 -0.3745  0.0253  0.0365
12872TIP3   OH260106   0.020   5.566  12.544  0.1239 -0.0535 -0.1118
12872TIP3    H160107   0.013   5.501  12.614  0.1137  0.9627  0.8672
12872TIP3    H260108  -0.054   5.625  12.559 -1.2866 -1.1278 -2.4236
12873TIP3   OH260109   1.885   3.295   0.723  0.7377  0.1369  0.0230
12873TIP3    H160110   1.837   3.350   0.661 -0.0712  0.9014  1.2895
12873TIP3    H260111   1.969   3.341   0.736  0.0186  1.2128  1.1731
12874TIP3   OH260112   1.039   5.970   3.198 -0.3887  0.2971  0.0127
12874TIP3    H160113   1.056   5.915   3.274  1.8543  0.0798 -0.5783
12874TIP3    H260114   1.022   6.057   3.234  0.2606  0.1160  0.7943
12875TIP3   OH260115   2.992   5.129  12.381  0.1912  0.0426 -0.0447
12875TIP3    H160116   3.070   5.080  12.406 -1.0248 -2.3609 -0.7355
12875TIP3    H260117   2.931   5.116  12.453 -0.9882 -1.5340 -1.2528
12876TIP3   OH260118   3.839   1.792  11.415  0.6423  0.2711  0.1996
12876TIP3    H160119   3.772   1.816  11.479 -0.2418  1.3578 -1.0871
12876TIP3    H260120   3.881   1.875  11.392 -0.3752  0.2488 -2.0302
12877TIP3   OH260121   2.491   4.392   3.641 -1.1470  0.1833 -0.5443
12877TIP3    H160122   2.481   4.304   3.606  1.7235 -1.2779  1.8001
12877TIP3    H260123   2.532   4.441   3.570  0.8376 -1.5571 -0.7151
12878TIP3   OH260124   6.717   3.350   0.437  0.5848  0.3593 -0.6549
12878TIP3    H160125   6.643   3.410   0.429  1.2528  1.3436  0.1897
12878TIP3    H260126   6.733   3.319   0.348 -0.7088  0.2721 -0.8745
12879TIP3   OH260127   5.576   3.508   5.524  0.4566  0.3596  0.4200
12879TIP3    H160128   5.668   3.528   5.539  0.0376  1.9643  1.0437
12879TIP3    H260129   5.565   3.519   5.429  0.6454  1.4750  0.5057
12880TIP3   OH260130   6.808   3.383   1.986 -0.4699  0.1574  0.2310
12880TIP3    H160131   6.753   3.404   2.062  0.8228 -3.8746  2.5641
12880TIP3    H260132   6.746   3.355   1.919 -1.5607  2.6246  0.0962
12881TIP3   OH260133   1.770   0.044   0.169  0.2821  0.0069  0.5855
12881TIP3    H160134   1.690   0.095   0.168 -1.1512 -2.1265 -0.3424
12881TIP3    H260135   1.815   0.066   0.087 -0.3493 -0.2309  0.1688
12882TIP3   OH260136   6.229   6.105   0.630 -0.7798 -0.1522  0.3193
12882TIP3    H160137   6.306   6.053   0.610  1.2765  2.6151  0.4213
12882TIP3    H260138   6.186   6.058   0.701 -0.2893 -2.7326 -0.9828
12883TIP3   OH260139   1.792   5.067  15.333  0.5117  0.0223  0.2447
12883TIP3    H160140   1.854   5.008  15.376  0.0277 -0.1266  0.7600
12883TIP3    H260141   1.706   5.027  15.349  0.2731  0.2657 -0.3850
12884TIP3   OH260142   0.301   4.937  12.355  0.1097  0.6889 -0.3730
12884TIP3    H160143   0.218   4.892  12.337  0.6276 -0.1612 -0.6762
12884TIP3    H260144   0.290   5.024  12.315 -1.2882  1.2390  1.0986
12885TIP3   OH260145   3.556   2.637   2.011  0.8176 -0.6518 -0.0273
12885TIP3    H160146   3.588   2.672   2.095 -1.2130  1.3846 -0.0001
12885TIP3    H260147   3.623   2.663   1.948  1.7097 -1.0177  0.7479
12886TIP3   OH260148   4.724   6.810  12.525  0.2709 -0.4618  0.0463
12886TIP3    H160149   4.644   6.806  12.471  1.4330 -0.7864 -1.7326
12886TIP3    H260150   4.699   6.863  12.600 -0.8205  1.9926 -1.9158
12887TIP3   OH260151   5.790   4.678  10.554  0.2733  0.0346 -0.6486
12887TIP3    H160152   5.869   4.725  10.581  0.3766 -0.4145 -0.1559
12887TIP3    H260153   5.807   4.587  10.577 -0.1017 -0.1803 -1.2017
12888TIP3   OH260154   4.459   3.459   1.749 -0.2321  0.1570  0.4893
12888TIP3    H160155   4.551   3.467   1.774 -0.1276  1.6503 -0.2878
12888TIP3    H260156   4.447   3.525   1.681 -1.3699 -1.4200 -0.9307
12889TIP3   OH260157   0.123   1.512  11.003  0.8732  0.6011 -0.3075
12889TIP3    H160158   0.206   1.527  10.958  0.2516 -0.8680 -2.0462
12889TIP3    H260159   0.070   1.588  10.981  1.1194  0.6550 -0.7254
12890TIP3   OH260160   5.654   3.548   3.873  0.1693  0.1801 -0.5576
12890TIP3    H160161   5.711   3.614   3.912 -0.5781  1.1042 -0.9866
12890TIP3    H260162   5.576   3.548   3.929  1.3855 -2.6660  1.3847
12891TIP3   OH260163   0.343   2.996  11.251 -0.4149 -0.1565  0.3617
12891TIP3    H160164   0.419   2.973  11.197  0.2850 -1.1671  1.7449
12891TIP3    H260165   0.380   3.019  11.336 -1.4061  2.5340  0.1813
12892TIP3   OH260166   5.515   3.279   5.708 -1.2628 -0.0635 -0.3071
12892TIP3    H160167   5.425   3.245   5.703 -2.3481  2.7013 -2.9000
12892TIP3    H260168   5.523   3.335   5.631  2.5170  0.3601  0.2240
12893TIP3   OH260169   1.682   2.850  11.489  0.5533 -0.0319 -0.0144
12893TIP3    H160170   1.764   2.803  11.474  1.1919  1.3411 -1.0672
12893TIP3    H260171   1.662   2.891  11.404 -0.3004  1.0683  0.6850
12894TIP3   OH260172   6.479   6.214   4.829  0.2221  0.0372  0.1793
12894TIP3    H160173   6.428   6.159   4.887 -1.4311  0.8107 -0.4606
12894TIP3    H260174   6.462   6.179   4.741  1.2719 -0.0388 -0.0119
12895TIP3   OH260175   5.925   4.871  13.549 -0.1183 -0.1260 -0.3858
12895TIP3    H160176   5.893   4.942  13.493  0.6800  1.2959  0.8963
12895TIP3    H260177   5.910   4.902  13.638  2.0232 -0.6835  0.2297
12896TIP3   OH260178   1.515   3.013  13.975  0.1046  0.2941 -0.1024
12896TIP3    H160179   1.607   2.989  13.980  0.2937  0.9932 -0.0021
12896TIP3    H260180   1.513   3.105  14.003 -0.4275  0.7303 -1.4642
12897TIP3   OH260181   2.132   6.200   1.117 -0.3226 -0.2338  0.2820
12897TIP3    H160182   2.113   6.108   1.102 -0.4681 -0.0402 -0.8003
12897TIP3    H260183   2.183   6.201   1.198 -0.7416 -1.2091  0.5729
12898TIP3   OH260184   3.955   0.310   3.200 -0.2797  0.4567 -0.1881
12898TIP3    H160185   3.981   0.335   3.288  0.9520  0.2813 -0.4709
12898TIP3    H260186   3.923   0.390   3.159 -0.7473  0.5587  0.3796
12899TIP3   OH260187   4.748   0.870   4.833 -0.7221 -0.0621  0.1077
12899TIP3    H160188   4.684   0.928   4.873 -0.9110 -0.0216 -0.2558
12899TIP3    H260189   4.748   0.892   4.740  0.6015  0.6896  0.2595
12900TIP3   OH260190   1.470   5.816  15.450 -0.2392 -0.1789 -0.6612
12900TIP3    H160191   1.438   5.900  15.418  0.3486  0.4358  0.2930
12900TIP3    H260192   1.565   5.827  15.456 -0.3209 -0.1133  1.5602
12901TIP3   OH260193   0.585   5.353   3.920 -0.4770  0.0470  0.2984
12901TIP3    H160194   0.547   5.440   3.912  0.7700  0.5284 -0.6578
12901TIP3    H260195   0.541   5.301   3.853 -0.8406  0.0675  0.5160
12902TIP3   OH260196   2.791   4.040  12.845 -0.4351 -0.0970  0.3080
12902TIP3    H160197   2.703   4.022  12.878  0.2719 -0.6714  2.0442
12902TIP3    H260198   2.832   4.093  12.913  0.7245 -0.2861 -0.2092
12903TIP3   OH260199   1.371   0.486   3.615 -0.1450  0.0535 -0.0274
12903TIP3    H160200   1.349   0.483   3.709 -2.3070 -0.4496 -0.4898
12903TIP3    H260201   1.359   0.578   3.591  0.8778  0.2724  0.2777
12904TIP3   OH260202   1.787   5.903  15.623  0.1358 -0.1527 -0.1059
12904TIP3    H160203   1.730   5.875  15.695  1.0360  0.3104  0.8072
12904TIP3    H260204   1.809   5.994  15.644 -1.0537  0.6138 -1.9312
12905TIP3   OH260205   1.787   1.355   5.742 -0.5247  0.2296 -0.0749
12905TIP3    H160206   1.876   1.366   5.708 -0.4310  1.2797  0.4669
12905TIP3    H260207   1.797   1.357   5.837 -0.7892 -2.6378  0.0883
12906TIP3   OH260208   2.502   1.489   3.542 -0.2606  0.2276  0.3338
12906TIP3    H160209   2.583   1.540   3.541 -0.7070  1.0758  2.3856
12906TIP3    H260210   2.528   1.401   3.515  1.0005  0.8826 -0.7023
12907TIP3   OH260211   6.231   0.310  13.397 -0.2417  0.3496 -0.3678
12907TIP3    H160212   6.318   0.313  13.357  0.1935  1.4521  0.5929
12907TIP3    H260213   6.247   0.322  13.491 -1.3977  0.1165 -0.1282
12908TIP3   OH260214   4.173   6.743  13.848 -0.1960  0.0227  0.2426
12908TIP3    H160215   4.081   6.727  13.826 -0.1736  2.1389 -1.8161
12908TIP3    H260216   4.171   6.823  13.901  0.5021  0.9035 -1.0049
12909TIP3   OH260217   5.113   2.443  11.982  0.0049 -0.4912 -0.3479
12909TIP3    H160218   5.100   2.388  12.060  1.5052  0.3903  0.5895
12909TIP3    H260219   5.199   2.483  11.996 -0.6822  1.4430 -1.3941
12910TIP3   OH260220   6.706   3.249  11.349  0.2880  0.2364  0.3152
12910TIP3    H160221   6.780   3.308  11.341 -0.3160  0.9301 -0.2315
12910TIP3    H260222   6.670   3.242  11.260 -0.3894  0.0360  0.5946
12911TIP3   OH260223   5.494   0.773   3.996  0.3702  0.4984  0.3335
12911TIP3    H160224   5.583   0.762   4.027  0.0614 -0.4883  0.9127
12911TIP3    H260225   5.502   0.830   3.919  1.4577  0.6239  0.5265
12912TIP3   OH260226   0.978   2.464   0.545  0.8262 -0.0741 -0.6138
12912TIP3    H160227   0.984   2.505   0.632  2.5084  1.1420 -1.2377
12912TIP3    H260228   0.910   2.398   0.554 -0.6402  1.5295  1.0299
12913TIP3   OH260229   6.551   5.786  16.637 -0.3963  0.8589 -0.4806
12913TIP3    H160230   6.573   5.812  16.548 -1.9890 -2.1575 -1.9366
12913TIP3    H260231   6.583   5.695  16.644  1.4015  1.5721  2.7649
12914TIP3   OH260232   2.384   6.358  12.316  0.1374 -0.0056 -0.4110
12914TIP3    H160233   2.445   6.430  12.329 -0.0124  0.3149 -1.4015
12914TIP3    H260234   2.299   6.401  12.305 -0.0702 -0.3788 -0.2742
12915TIP3   OH260235   1.629   5.285  14.250  0.2471 -0.5317 -0.8210
12915TIP3    H160236   1.543   5.260  14.282  1.1174 -0.2511  2.0388
12915TIP3    H260237   1.618   5.375  14.220 -0.5383 -0.6491 -0.9095
12916TIP3   OH260238   3.890   5.022   4.592  0.1396 -0.0756  0.9200
12916TIP3    H160239   3.890   5.014   4.687 -0.7375 -0.4906  0.8935
12916TIP3    H260240   3.969   5.072   4.572 -0.9337  2.2418  2.0571
12917TIP3   OH260241   2.759   4.013  11.720  0.5674 -0.0259 -0.1544
12917TIP3    H160242   2.818   4.084  11.745  0.5900 -0.5754  1.5092
12917TIP3    H260243   2.682   4.025  11.777  0.7689 -1.5690  0.4920
12918TIP3   OH260244   0.210   2.971   2.787  0.1050  0.1328  0.1621
12918TIP3    H160245   0.227   2.927   2.704  1.0617  1.2696 -0.2913
12918TIP3    H260246   0.294   2.968   2.834 -0.4314 -0.5230  1.1095
12919TIP3   OH260247   6.124   5.298  12.386 -0.1189 -0.3862  0.0390
12919TIP3    H160248   6.041   5.254  12.367  1.2895 -3.1513 -0.2765
12919TIP3    H260249   6.135   5.289  12.481  0.6944 -1.8188 -0.1677
12920TIP3   OH260250   0.979   1.920  17.181  0.5499 -0.1773 -0.5422
12920TIP3    H160251   0.919   1.871  17.238 -0.2725  1.4767  0.0935
12920TIP3    H260252   1.051   1.947  17.238  0.0786  0.8755 -0.4066
12921TIP3   OH260253   0.002   6.212  13.070  0.3600 -0.2150  0.5737
12921TIP3    H160254   0.044   6.297  13.057  0.7141 -0.5629 -0.6916
12921TIP3    H260255   0.068   6.159  13.114  0.6357 -0.2295  0.1525
12922TIP3   OH260256   1.094   5.257   5.670 -0.3438  0.3497 -0.3219
12922TIP3    H160257   1.095   5.174   5.622  0.1454 -0.7151  1.4028
12922TIP3    H260258   1.178   5.297   5.650  0.3813 -0.6653  0.5169
12923TIP3   OH260259   0.621   6.013   3.052 -0.1073 -0.2228  0.2590
12923TIP3    H160260   0.539   5.972   3.081 -0.0370  0.1530  1.0168
12923TIP3    H260261   0.594   6.096   3.013 -0.0603  0.1436  0.9811
12924TIP3   OH260262   3.667   0.775   2.212  0.6619  0.8887  0.6902
12924TIP3    H160263   3.738   0.719   2.244  0.5240  0.7061  0.6776
12924TIP3    H260264   3.682   0.859   2.256  0.7861  0.8003  0.8187
12925TIP3   OH260265   4.816   5.722   4.780  0.1577 -0.0567  0.3641
12925TIP3    H160266   4.831   5.796   4.839  0.0781 -0.2244  0.5980
12925TIP3    H260267   4.816   5.760   4.692 -0.0018  0.2392  0.4920
12926TIP3   OH260268   6.363   1.695  10.673  0.0527 -0.3657  0.4146
12926TIP3    H160269   6.327   1.679  10.760 -4.0084  1.6588 -0.6309
12926TIP3    H260270   6.349   1.789  10.658  1.3336 -0.4908 -2.1436
12927TIP3   OH260271   4.647   1.211  16.288 -0.1208 -0.2562  0.9120
12927TIP3    H160272   4.578   1.145  16.299 -4.4724  3.0241 -2.6089
12927TIP3    H260273   4.684   1.193  16.202 -0.4393  1.0710  0.4788
12928TIP3   OH260274   6.063   0.781  11.790  0.2048  0.0431 -0.3318
12928TIP3    H160275   5.973   0.765  11.760 -0.2496  1.1341  0.3585
12928TIP3    H260276   6.116   0.719  11.741 -0.7492  0.3308 -1.8089
12929TIP3   OH260277   5.906   3.760   0.829  0.0226  0.0023 -0.0487
12929TIP3    H160278   5.944   3.722   0.908 -1.2119 -0.9526  0.1157
12929TIP3    H260279   5.899   3.686   0.768 -2.0435 -0.0055  0.1283
12930TIP3   OH260280   4.189   5.162  13.294  0.3268  0.3826 -0.1297
12930TIP3    H160281   4.234   5.238  13.258  1.8211 -0.7166 -0.6633
12930TIP3    H260282   4.235   5.087  13.257 -0.1174 -0.7994  1.5979
12931TIP3   OH260283   3.342   6.159   4.960  0.5661 -0.7265  0.6202
12931TIP3    H160284   3.352   6.220   4.886  0.1507 -0.5352  0.7205
12931TIP3    H260285   3.257   6.181   4.997  1.0861 -0.3151  1.6125
12932TIP3   OH260286   0.027   6.104  14.107 -0.2755 -0.2748 -0.1780
12932TIP3    H160287  -0.043   6.161  14.139 -1.0005 -0.5928 -1.1274
12932TIP3    H260288   0.024   6.027  14.164  0.0796  0.2132  0.5102
12933TIP3   OH260289   4.592   1.412  11.723  0.3265 -0.0240 -0.1695
12933TIP3    H160290   4.528   1.451  11.783 -0.4149  1.0376 -1.6021
12933TIP3    H260291   4.558   1.430  11.636  1.3044 -1.6575 -0.9460
12934TIP3   OH260292   5.271   3.714   1.863 -0.3342 -0.2239  0.4853
12934TIP3    H160293   5.206   3.725   1.932 -1.1644 -1.7775 -0.0086
12934TIP3    H260294   5.271   3.620   1.844 -0.1847  0.1531 -1.6815
12935TIP3   OH260295   3.961   6.395   2.124  0.3333  0.3755 -0.1817
12935TIP3    H160296   3.947   6.324   2.187  2.1686  1.1124  1.1266
12935TIP3    H260297   4.007   6.354   2.051 -1.1861 -0.3372 -0.7838
12936TIP3   OH260298   4.888   4.700   3.312  1.3266  0.3675 -0.2364
12936TIP3    H160299   4.890   4.625   3.253  0.7549 -0.7106  1.0602
12936TIP3    H260300   4.969   4.692   3.363 -0.0961 -1.1955  1.9863
12937TIP3   OH260301   6.569   6.310   5.981  0.0434 -0.1757  0.1920
12937TIP3    H160302   6.556   6.259   5.901  2.7281 -2.4433  1.0091
12937TIP3    H260303   6.529   6.257   6.050  0.9588 -0.1500  0.7733
12938TIP3   OH260304   3.901   4.996  11.448  0.7510 -0.4956 -0.0545
12938TIP3    H160305   3.852   5.078  11.448  0.8309 -0.4464  0.0436
12938TIP3    H260306   3.937   4.989  11.360 -0.9752 -1.4723 -0.7256
12939TIP3   OH260307   1.373   5.481  17.115  0.1909 -0.0452  0.3017
12939TIP3    H160308   1.446   5.423  17.130  1.2880  0.7900 -1.4217
12939TIP3    H260309   1.398   5.563  17.158 -0.3820 -0.1774  0.9026
12940TIP3   OH260310   3.217   4.910  12.711 -0.1103  0.1660 -0.4960
12940TIP3    H160311   3.296   4.858  12.721 -0.4395 -0.1143  0.7503
12940TIP3    H260312   3.164   4.890  12.788 -0.1698  2.5198  0.1548
12941TIP3   OH260313   3.452   1.152   2.250  0.3060  0.3555 -0.0837
12941TIP3    H160314   3.427   1.122   2.163  0.3450  0.9846 -0.3170
12941TIP3    H260315   3.369   1.173   2.294  0.2665 -0.2877  0.1536
12942TIP3   OH260316   4.514   6.124  15.467 -0.0753  0.4954  0.1671
12942TIP3    H160317   4.488   6.063  15.399 -0.8703  0.8930  0.1087
12942TIP3    H260318   4.572   6.186  15.423 -0.1497  0.4357 -0.0138
12943TIP3   OH260319   3.561   0.688  11.149 -0.3240  0.3852 -0.3831
12943TIP3    H160320   3.522   0.602  11.134 -0.2214  0.5266 -1.5750
12943TIP3    H260321   3.552   0.703  11.243 -1.5046 -0.3636 -0.3594
12944TIP3   OH260322   3.527   4.301   5.342  0.0395 -0.0635 -0.5719
12944TIP3    H160323   3.432   4.292   5.339  0.1475 -1.3916 -0.2418
12944TIP3    H260324   3.557   4.230   5.398  1.2376  0.3379 -0.6743
12945TIP3   OH260325   5.159   6.753  11.126 -0.1093  0.1137  0.1535
12945TIP3    H160326   5.072   6.786  11.102 -1.0989 -3.2856 -1.5295
12945TIP3    H260327   5.220   6.809  11.078 -1.5692  0.3035 -1.5620
12946TIP3   OH260328   4.114   4.332  17.190  0.1068 -0.3523  0.4015
12946TIP3    H160329   4.195   4.290  17.220  0.5358 -0.3596 -0.7063
12946TIP3    H260330   4.103   4.301  17.100 -0.4595  0.6209  0.1210
12947TIP3   OH260331   0.646   3.353   0.362  0.5939  0.0405  0.1442
12947TIP3    H160332   0.582   3.285   0.341 -0.0479  0.6591  0.0517
12947TIP3    H260333   0.699   3.315   0.433  0.4648 -0.6738 -0.1312
12948TIP3   OH260334   5.676   5.529  15.134  0.6406  0.2250 -0.2836
12948TIP3    H160335   5.618   5.549  15.208  1.4577 -2.1339  1.1270
12948TIP3    H260336   5.626   5.555  15.057  0.0076  3.4303  1.0396
12949TIP3   OH260337   1.424   0.832   2.099  0.2164  0.3764  0.1869
12949TIP3    H160338   1.357   0.894   2.070 -0.5299  0.5453  2.0932
12949TIP3    H260339   1.375   0.767   2.149  1.1191 -1.2327 -0.9296
12950TIP3   OH260340   5.811   2.969  12.314  0.9495 -0.4083 -0.5755
12950TIP3    H160341   5.754   2.953  12.389  1.0470  1.1409 -0.1339
12950TIP3    H260342   5.824   2.883  12.275  0.0273 -1.0913  0.5518
12951TIP3   OH260343   4.844   5.755   2.169 -0.0587  0.2499 -0.1112
12951TIP3    H160344   4.836   5.690   2.239  0.8360 -0.0438 -0.2732
12951TIP3    H260345   4.866   5.705   2.091 -0.2020  0.6644 -0.4228
12952TIP3   OH260346   2.700   0.905  13.706 -0.2801  0.3712  0.2936
12952TIP3    H160347   2.626   0.966  13.706  0.1626  0.9450 -0.5979
12952TIP3    H260348   2.761   0.943  13.642  1.5535  0.8485  2.2226
12953TIP3   OH260349   6.489   4.338  17.181  0.0200 -0.3331  0.7352
12953TIP3    H160350   6.554   4.368  17.117  1.5110 -0.3656  2.1724
12953TIP3    H260351   6.430   4.413  17.192 -0.5641 -0.4983 -1.0049
12954TIP3   OH260352   5.637   2.251   3.099 -0.3405  0.7575  0.0911
12954TIP3    H160353   5.605   2.292   3.180 -2.5588 -0.9134  0.1682
12954TIP3    H260354   5.636   2.321   3.035  0.3730  1.8535  1.2281
12955TIP3   OH260355   0.032   5.573  14.593 -0.0345 -0.3007  0.0929
12955TIP3    H160356  -0.015   5.588  14.511  1.4901 -2.3037 -1.2183
12955TIP3    H260357  -0.019   5.505  14.638 -0.7012  0.5828  0.7254
12956TIP3   OH260358   0.488   3.189   0.652  0.1221 -0.2620 -0.2810
12956TIP3    H160359   0.468   3.281   0.635  1.2371  0.3608  1.5408
12956TIP3    H260360   0.509   3.186   0.745 -1.3259 -2.6456  0.0556
12957TIP3   OH260361   6.727   3.364  15.278  0.2069  0.4549  0.1242
12957TIP3    H160362   6.792   3.334  15.341 -1.1435  0.5731  1.6484
12957TIP3    H260363   6.718   3.458  15.295  1.1105  0.8837 -1.5112
12958TIP3   OH260364   1.280   6.368  11.808 -0.4544 -0.3561  0.3835
12958TIP3    H160365   1.246   6.287  11.847 -0.0725 -0.1819  1.0995
12958TIP3    H260366   1.375   6.354  11.801 -0.2902  0.2765  1.1484
12959TIP3   OH260367   3.698   4.817   5.846 -0.2155  0.3077 -0.0985
12959TIP3    H160368   3.726   4.754   5.912  1.2474  0.9009 -0.1165
12959TIP3    H260369   3.636   4.874   5.893 -0.9695 -0.6596  0.1101
12960TIP3   OH260370   5.328   6.085   0.296  0.3432  1.0128  0.7889
12960TIP3    H160371   5.245   6.132   0.291  0.5670  1.2611 -1.4172
12960TIP3    H260372   5.324   6.040   0.380 -3.7873 -2.1749 -0.7622
12961TIP3   OH260373   6.629   1.368   3.204 -0.2282 -0.2481 -0.6642
12961TIP3    H160374   6.600   1.457   3.185 -0.6570 -0.2981 -0.2438
12961TIP3    H260375   6.556   1.312   3.178 -0.2677 -0.4175 -0.2002
12962TIP3   OH260376   3.715   3.573  14.210 -0.2361  0.0714 -0.1137
12962TIP3    H160377   3.648   3.547  14.147 -0.9020 -0.4454  0.7927
12962TIP3    H260378   3.766   3.493  14.225 -0.3732  0.0731  0.3634
12963TIP3   OH260379   2.789   0.740   2.169 -0.6588 -0.4200  0.4456
12963TIP3    H160380   2.822   0.799   2.101  1.3135 -1.0044  0.8476
12963TIP3    H260381   2.712   0.699   2.129  0.7581 -1.1809 -1.7126
12964TIP3   OH260382   2.573   3.386  11.830 -0.3461  0.0687  0.0485
12964TIP3    H160383   2.606   3.439  11.757 -1.9559  1.4647  0.2785
12964TIP3    H260384   2.647   3.381  11.891  0.8641 -0.6950 -1.4004
12965TIP3   OH260385   5.306   1.453  16.847 -0.1282  0.8502 -0.3718
12965TIP3    H160386   5.339   1.394  16.915  1.5594  2.6697  0.4928
12965TIP3    H260387   5.385   1.485  16.803 -1.0245  1.9419 -1.2520
12966TIP3   OH260388   3.040   5.343   2.774 -0.0088 -0.0199 -0.0984
12966TIP3    H160389   3.106   5.299   2.828 -0.7236 -1.2037 -0.1447
12966TIP3    H260390   2.963   5.347   2.830 -0.0102  1.0663 -0.1583
12967TIP3   OH260391   3.088   3.236  16.461 -0.6722 -0.1377  0.1148
12967TIP3    H160392   3.147   3.209  16.391  3.0462  2.6563  1.8349
12967TIP3    H260393   3.126   3.199  16.541 -1.0495  1.9637  1.3384
12968TIP3   OH260394   3.542   6.416   5.071  0.3519 -0.6032  0.2678
12968TIP3    H160395   3.605   6.468   5.021  0.3940  0.2823  1.2206
12968TIP3    H260396   3.559   6.438   5.162 -0.2259 -1.6302  0.6430
12969TIP3   OH260397   6.573   4.970   4.572  0.1094  0.3889 -0.6620
12969TIP3    H160398   6.487   4.966   4.614 -0.0558  1.2228 -0.9014
12969TIP3    H260399   6.619   5.040   4.617  1.8221 -1.9607  1.5125
12970TIP3   OH260400   0.153   4.264  14.105 -0.5139  0.6815  0.2768
12970TIP3    H160401   0.238   4.307  14.100 -0.3282  0.2463 -0.6392
12970TIP3    H260402   0.110   4.288  14.023 -0.5281 -0.5841 -0.1049
12971TIP3   OH260403   2.211   5.360   1.401  0.1588 -0.0162  0.0720
12971TIP3    H160404   2.256   5.438   1.367 -0.6223  0.0953 -0.7769
12971TIP3    H260405   2.271   5.288   1.382  0.3784  0.2371 -0.2307
12972TIP3   OH260406   3.441   1.902  17.240 -0.9091 -0.3089 -0.2978
12972TIP3    H160407   3.402   1.926  17.323 -0.6851 -0.6714 -0.0843
12972TIP3    H260408   3.380   1.837  17.203  0.7804 -2.9414  1.2790
12973TIP3   OH260409   5.895   0.712   1.224 -0.1347 -0.2508 -1.0275
12973TIP3    H160410   5.886   0.787   1.164  0.1763  0.5530 -0.1026
12973TIP3    H260411   5.986   0.716   1.253 -1.2570  2.1416  2.9148
12974TIP3   OH260412   5.454   1.428  12.514 -0.3549  0.0988 -0.3342
12974TIP3    H160413   5.445   1.518  12.484  0.6257 -0.0546 -1.1215
12974TIP3    H260414   5.369   1.388  12.495 -0.2378  0.3994 -1.6192
12975TIP3   OH260415   6.582   0.124  13.147 -0.7130  0.3857  1.0300
12975TIP3    H160416   6.651   0.167  13.096 -1.2348 -0.7988 -0.7739
12975TIP3    H260417   6.628   0.080  13.218  0.2681  0.5032  0.4788
12976TIP3   OH260418   4.916   0.303   2.464 -0.4422  0.0857 -0.4525
12976TIP3    H160419   4.981   0.372   2.448 -2.5088  1.9710 -1.4350
12976TIP3    H260420   4.947   0.258   2.543  0.0675  3.4720  1.4855
12977TIP3   OH260421   6.338   0.719   0.987 -0.0930 -0.5976 -0.0337
12977TIP3    H160422   6.304   0.643   1.035  0.3988 -0.9661 -0.2543
12977TIP3    H260423   6.266   0.783   0.988 -0.7474 -1.3055 -0.3876
12978TIP3   OH260424   1.018   4.225  13.605  0.1183 -0.9650 -0.1077
12978TIP3    H160425   1.100   4.191  13.641  0.8631  1.4799  0.7295
12978TIP3    H260426   1.046   4.278  13.529 -0.9986 -2.3609 -1.5528
12979TIP3   OH260427   0.885   0.222  13.321 -0.6216 -0.7758 -0.2152
12979TIP3    H160428   0.866   0.315  13.331 -0.5549 -0.8175  0.2952
12979TIP3    H260429   0.951   0.219  13.252 -1.0346 -0.4902 -0.6311
12980TIP3   OH260430   1.457   3.993   5.258 -0.2708  0.6494  0.0035
12980TIP3    H160431   1.541   4.033   5.237 -0.2334 -0.1960 -1.5798
12980TIP3    H260432   1.437   4.024   5.347  1.5475  1.1149  0.2815
12981TIP3   OH260433   3.919   2.831   4.929 -0.2890  0.2202 -0.7358
12981TIP3    H160434   4.004   2.835   4.973 -0.3819 -0.5735 -0.4676
12981TIP3    H260435   3.873   2.760   4.973 -1.0651  0.5924 -0.9343
12982TIP3   OH260436   4.229   2.469  15.076  0.4959 -0.3423  0.8188
12982TIP3    H160437   4.314   2.512  15.082  0.4576 -0.1618  0.1398
12982TIP3    H260438   4.178   2.525  15.018 -0.0196 -0.5592  1.0553
12983TIP3   OH260439   2.123   5.476  15.340 -0.7298 -0.2246  0.2848
12983TIP3    H160440   2.141   5.569  15.350 -0.7782 -0.1207 -0.5502
12983TIP3    H260441   2.038   5.463  15.383 -0.9729  0.2172 -0.0624
12984TIP3   OH260442   4.397   1.341   0.123 -0.1078  0.0531  0.2830
12984TIP3    H160443   4.490   1.319   0.125 -0.0552  0.1859 -0.3734
12984TIP3    H260444   4.352   1.262   0.154  0.1240 -0.7003 -1.2065
12985TIP3   OH260445   2.230   5.296   3.557  0.4173  0.0141  0.2300
12985TIP3    H160446   2.290   5.269   3.487 -1.3183 -2.0142 -0.5694
12985TIP3    H260447   2.170   5.357   3.514 -0.3581 -0.8607  0.0634
12986TIP3   OH260448   3.011   2.674  15.715 -0.4401  0.4265 -0.6766
12986TIP3    H160449   2.965   2.756  15.730 -1.8261 -0.4687  0.2204
12986TIP3    H260450   2.950   2.606  15.746  1.1886 -0.8613 -0.1307
12987TIP3   OH260451   3.199   1.875   0.127  0.3161 -0.3934  0.0312
12987TIP3    H160452   3.164   1.892   0.215 -1.0177  1.8711 -0.8511
12987TIP3    H260453   3.242   1.790   0.135 -0.6942 -0.7723  2.5970
12988TIP3   OH260454   6.090   5.774  16.878 -0.0025 -0.2477 -0.4097
12988TIP3    H160455   6.087   5.759  16.784 -1.9488  0.9865 -0.6006
12988TIP3    H260456   6.183   5.765  16.901  0.2932 -2.3823 -2.0883
12989TIP3   OH260457   2.140   5.842   6.333  0.7074  0.8240 -0.9731
12989TIP3    H160458   2.145   5.933   6.306  0.3564  1.7647  1.8298
12989TIP3    H260459   2.228   5.807   6.316  0.6084  1.3508 -2.8817
12990TIP3   OH260460   0.387   1.817   5.661 -0.3263 -0.3820 -0.6341
12990TIP3    H160461   0.473   1.827   5.621  0.1924 -1.7830  0.0887
12990TIP3    H260462   0.399   1.842   5.752 -0.7595 -0.2835 -0.5983
12991TIP3   OH260463   2.791   4.590   0.981 -0.4129  0.2462  0.2017
12991TIP3    H160464   2.868   4.613   0.929 -1.2185  0.6086 -0.8631
12991TIP3    H260465   2.827   4.556   1.063  0.8879 -0.2259 -0.5301
12992TIP3   OH260466   5.961   3.546  16.890 -0.2130  0.3216  0.1373
12992TIP3    H160467   5.982   3.494  16.967  1.6291 -0.1569 -0.6373
12992TIP3    H260468   5.959   3.636  16.922 -2.0172 -0.0469  1.2033
12993TIP3   OH260469   1.406   2.424  12.661 -0.6094 -0.5944  0.0883
12993TIP3    H160470   1.436   2.354  12.602  0.4013  0.6013 -0.8711
12993TIP3    H260471   1.314   2.436  12.637 -0.4501 -0.7394 -0.6418
12994TIP3   OH260472   5.300   5.024  16.384 -0.1340  0.6011  0.4291
12994TIP3    H160473   5.218   4.988  16.418 -0.5125  2.4187  1.5844
12994TIP3    H260474   5.347   4.948  16.349 -1.4695 -0.7731  1.4791
12995TIP3   OH260475   5.876   3.234  15.865  0.1121  0.2618 -0.0630
12995TIP3    H160476   5.907   3.304  15.807  0.3872 -0.7861 -1.2109
12995TIP3    H260477   5.875   3.156  15.810 -1.6064 -0.3662  0.7939
12996TIP3   OH260478   1.457   5.615   2.622  0.4186 -0.4962 -0.6084
12996TIP3    H160479   1.470   5.603   2.716 -0.6894  0.3142 -0.3305
12996TIP3    H260480   1.389   5.682   2.616 -0.9528 -1.9259 -1.9561
12997TIP3   OH260481   2.427   2.246   4.069  0.1657  0.0599 -0.4626
12997TIP3    H160482   2.439   2.331   4.113  0.2892 -0.1017 -0.1785
12997TIP3    H260483   2.426   2.267   3.976  0.7809  0.3077 -0.4210
12998TIP3   OH260484   0.013   0.777  13.317 -0.3499  0.1040  0.1172
12998TIP3    H160485   0.049   0.691  13.293  1.1311  1.0392 -1.2346
12998TIP3    H260486   0.067   0.807  13.390 -1.3959 -0.4220  1.1441
12999TIP3   OH260487   6.161   2.643  16.599 -0.5281  0.2813 -0.5835
12999TIP3    H160488   6.191   2.733  16.615 -2.1296  1.0566 -1.7054
12999TIP3    H260489   6.184   2.627  16.507 -0.5515 -0.3426 -0.4804
13000TIP3   OH260490   6.520   2.060  17.236 -0.3036 -0.3112 -0.3373
13000TIP3    H160491   6.508   2.150  17.205  1.6476  0.3010  0.4958
13000TIP3    H260492   6.597   2.029  17.189 -0.8604 -1.5129 -0.4892
13001TIP3   OH260493   3.381   0.874  10.893  0.2374 -0.1057  0.2430
13001TIP3    H160494   3.394   0.941  10.826 -2.2281  1.8105  1.4827
13001TIP3    H260495   3.286   0.864  10.899  0.1406  1.1496  4.5299
13002TIP3   OH260496   0.786   3.676   4.929 -0.4351  0.0626  0.2607
13002TIP3    H160497   0.738   3.636   4.856 -0.0663 -0.1850  0.1516
13002TIP3    H260498   0.824   3.602   4.976 -1.7345  0.1263  1.4723
13003TIP3   OH260499   5.585   5.863  12.781  0.6946 -0.6435 -0.4253
13003TIP3    H160500   5.639   5.874  12.703 -1.1571 -0.4179 -1.7658
13003TIP3    H260501   5.619   5.927  12.843  0.8748  0.7394 -1.8695
13004TIP3   OH260502   6.528   3.071   0.090  0.4526 -0.1896 -0.2108
13004TIP3    H160503   6.512   3.067   0.185 -1.3799 -3.0270 -0.5185
13004TIP3    H260504   6.586   2.997   0.073  0.2881 -0.0605 -1.4027
13005TIP3   OH260505   4.485   5.774   1.332  0.0768  0.1698  0.0653
13005TIP3    H160506   4.474   5.734   1.418  0.6149  0.8841  0.4734
13005TIP3    H260507   4.525   5.705   1.278  0.5560  0.0009  0.6266
13006TIP3   OH260508   2.446   1.593  15.640  0.7841 -0.0684 -0.1756
13006TIP3    H160509   2.517   1.640  15.596  1.3722 -0.4171  0.3896
13006TIP3    H260510   2.424   1.647  15.716  0.1382  0.2564 -0.5767
13007TIP3   OH260511   2.896   3.349  13.598 -0.3152 -0.0879 -0.4476
13007TIP3    H160512   2.953   3.425  13.610 -0.8133  0.1821  0.3019
13007TIP3    H260513   2.867   3.327  13.687 -1.0780 -0.4514 -0.7794
13008TIP3   OH260514   2.597   1.590   3.903 -0.3530  0.1506 -0.9151
13008TIP3    H160515   2.689   1.614   3.892 -0.1599 -0.3213 -0.3430
13008TIP3    H260516   2.559   1.600   3.816  0.7437 -1.8330 -1.6772
13009TIP3   OH260517   2.053   1.402  15.012 -0.2936  0.4445 -0.2085
13009TIP3    H160518   2.058   1.308  15.032 -1.0896  0.5088  0.3143
13009TIP3    H260519   2.133   1.438  15.049 -0.9359  0.2848  1.4325
13010TIP3   OH260520   4.170   6.066   4.429 -0.1091 -0.6649  0.5771
13010TIP3    H160521   4.201   6.118   4.355 -0.2597 -1.9739 -0.4423
13010TIP3    H260522   4.096   6.115   4.463 -0.2895 -0.2318 -0.3903
13011TIP3   OH260523   0.398   1.018  12.195 -0.1546 -0.2114 -0.0897
13011TIP3    H160524   0.346   0.986  12.121  0.8874  0.9413 -1.3800
13011TIP3    H260525   0.458   1.082  12.156 -0.1575  1.0770  1.8948
13012TIP3   OH260526   4.631   1.861   0.856 -0.1225  0.0026  0.2365
13012TIP3    H160527   4.715   1.819   0.834 -0.3203 -0.3979  0.2303
13012TIP3    H260528   4.624   1.933   0.794  0.4414  0.3373  0.5463
13013TIP3   OH260529   1.173   1.160  13.741 -0.2218  0.0645 -0.1416
13013TIP3    H160530   1.155   1.248  13.775 -1.4655  0.1713 -1.0008
13013TIP3    H260531   1.189   1.107  13.820  0.0113  0.9459  0.4171
13014TIP3   OH260532   6.199   1.873  13.878 -0.0474 -0.3777  0.9784
13014TIP3    H160533   6.238   1.787  13.893 -1.2959 -1.4474 -1.3156
13014TIP3    H260534   6.115   1.869  13.923 -0.1353 -0.3937  0.8126
13015TIP3   OH260535   2.914   5.268  15.229  0.9161 -0.4386  0.3375
13015TIP3    H160536   2.955   5.183  15.216 -1.6030 -1.6423 -0.1647
13015TIP3    H260537   2.835   5.250  15.280 -1.2754  1.0746 -2.2375
13016TIP3   OH260538   2.984   1.912  13.687 -0.2481 -0.2309  0.1470
13016TIP3    H160539   2.921   1.850  13.723  0.3019 -1.5405 -1.0846
13016TIP3    H260540   2.992   1.889  13.594  0.8791  0.9031 -0.0790
13017TIP3   OH260541   3.518   4.098  13.659 -0.2566 -0.5276  0.4803
13017TIP3    H160542   3.601   4.054  13.675 -1.2045 -2.1295  1.2064
13017TIP3    H260543   3.486   4.120  13.747  1.8718  5.1656  0.2488
13018TIP3   OH260544   5.826   5.919  16.505 -0.0268  0.1239 -0.0606
13018TIP3    H160545   5.824   5.968  16.422  0.6427  2.5552  1.2604
13018TIP3    H260546   5.735   5.892  16.519 -0.3254  0.5127 -1.0988
13019TIP3   OH260547   1.772   6.523  17.107 -0.3716 -0.1503 -0.1588
13019TIP3    H160548   1.739   6.479  17.029  0.0616 -1.4707  0.3793
13019TIP3    H260549   1.703   6.510  17.173 -0.2871  0.0697 -0.0259
13020TIP3   OH260550   4.832   2.758  13.201 -0.8318  0.4269 -0.5342
13020TIP3    H160551   4.878   2.678  13.177 -0.8864 -0.0153  0.7684
13020TIP3    H260552   4.743   2.729  13.221 -1.3849  1.1031 -1.8686
13021TIP3   OH260553   2.381   0.208   3.643 -0.2781  0.0133  0.4902
13021TIP3    H160554   2.322   0.259   3.698 -0.8349  0.6261 -0.6549
13021TIP3    H260555   2.426   0.273   3.589  1.0387 -0.4883  0.9245
13022TIP3   OH260556   3.458   0.386   1.124 -0.0412 -0.2183  0.4342
13022TIP3    H160557   3.372   0.359   1.157 -0.0302 -1.5097 -0.5111
13022TIP3    H260558   3.518   0.317   1.153  0.6828  0.6342  1.0257
13023TIP3   OH260559   2.309   4.146  15.221 -0.0303  0.0190  0.3160
13023TIP3    H160560   2.335   4.085  15.290  0.8961 -0.2947 -0.2966
13023TIP3    H260561   2.379   4.212  15.220 -1.3167  1.4991  1.4052
13024TIP3   OH260562   2.522   6.536  13.738 -0.2938  0.0041  0.1254
13024TIP3    H160563   2.556   6.499  13.656 -2.6434  1.3647 -1.5995
13024TIP3    H260564   2.447   6.481  13.761 -1.6107  1.4548 -0.4882
13025TIP3   OH260565   0.891   5.436   0.126  0.3389  0.3421 -0.2046
13025TIP3    H160566   0.875   5.531   0.128 -0.9065  0.1882  2.8482
13025TIP3    H260567   0.950   5.421   0.200  0.1431 -1.3226 -0.3543
13026TIP3   OH260568   2.007   4.396  12.262 -0.3289  0.0454  0.3724
13026TIP3    H160569   1.993   4.307  12.295 -3.0286 -0.2649 -1.3215
13026TIP3    H260570   2.092   4.391  12.216 -1.2828 -2.2812 -1.3807
13027TIP3   OH260571   3.035   2.810  12.502  0.6994  0.1022 -0.3004
13027TIP3    H160572   2.993   2.896  12.502 -0.6048 -0.5062  0.3498
13027TIP3    H260573   3.075   2.802  12.415 -3.6113 -0.7218 -2.4649
13028TIP3   OH260574   5.269   2.443   5.686 -0.4985 -0.3005  0.0283
13028TIP3    H160575   5.211   2.368   5.703 -1.8638  0.8676  0.7605
13028TIP3    H260576   5.305   2.465   5.772  1.8740 -1.5987 -0.5509
13029TIP3   OH260577   4.318   6.466   2.901 -0.0681  0.1717 -0.8314
13029TIP3    H160578   4.277   6.550   2.880  2.4735  1.3532 -1.4266
13029TIP3    H260579   4.359   6.439   2.819  0.8542 -0.6133 -0.1245
13030TIP3   OH260580   2.734   4.610  12.126 -0.6110 -0.3505 -0.8380
13030TIP3    H160581   2.761   4.690  12.082 -1.1893 -0.5391 -1.5546
13030TIP3    H260582   2.668   4.572  12.068 -1.3195 -0.6563  0.1495
13031TIP3   OH260583   4.453   6.541  13.478  0.1891  0.4310 -0.0425
13031TIP3    H160584   4.357   6.543  13.472  0.2087  0.1053 -0.5361
13031TIP3    H260585   4.483   6.573  13.392  0.5238  0.5143  0.1044
13032TIP3   OH260586   4.623   3.680  16.618 -0.3344  0.0256  0.5946
13032TIP3    H160587   4.702   3.672  16.672 -0.4195 -0.1420  0.6947
13032TIP3    H260588   4.650   3.649  16.531  0.1964  1.6485  0.1525
13033TIP3   OH260589   3.628   1.075  13.330  0.3385 -0.7293 -0.0468
13033TIP3    H160590   3.696   1.121  13.281  0.5371 -1.1302 -0.1533
13033TIP3    H260591   3.567   1.044  13.262 -0.6070  0.6596  0.1313
13034TIP3   OH260592   5.482   5.750   0.800 -0.1811  0.2740 -0.2334
13034TIP3    H160593   5.471   5.692   0.875  0.0888  0.2175 -0.2352
13034TIP3    H260594   5.575   5.772   0.800 -0.4561  1.5171  0.3579
13035TIP3   OH260595   4.163   0.715  13.449 -0.0567  0.1317 -0.5209
13035TIP3    H160596   4.187   0.791  13.502 -1.3142 -0.9200  1.7041
13035TIP3    H260597   4.227   0.648  13.473  0.3323  0.1039 -1.5873
13036TIP3   OH260598   4.733   5.325  13.529 -0.5706 -0.0234 -0.1645
13036TIP3    H160599   4.788   5.360  13.599 -1.1990  0.8077 -0.0696
13036TIP3    H260600   4.721   5.398  13.468 -1.4475 -0.2329 -0.2593
13037TIP3   OH260601   0.756   3.670  15.803 -0.3255 -0.3659 -0.2002
13037TIP3    H160602   0.704   3.605  15.852 -1.1673 -1.1491 -2.0513
13037TIP3    H260603   0.744   3.646  15.711 -1.0869  2.7296 -1.0024
13038TIP3   OH260604   0.031   3.321   5.205 -0.0510 -0.0122 -0.4178
13038TIP3    H160605   0.070   3.395   5.251 -0.6918 -0.7449  1.3917
13038TIP3    H260606   0.101   3.256   5.199  0.5005  0.6891 -1.9725
13039TIP3   OH260607   2.795   0.881  15.279 -0.5177 -0.0349  0.0623
13039TIP3    H160608   2.728   0.935  15.237  1.9358  3.9030  0.7420
13039TIP3    H260609   2.870   0.883  15.219  1.2247  1.3385  2.1282
13040TIP3   OH260610   2.517   6.008  11.658 -0.4276  0.2597  0.1917
13040TIP3    H160611   2.611   5.996  11.644 -0.4446  0.3250  0.0123
13040TIP3    H260612   2.476   5.971  11.579 -0.5769 -0.1686  0.4668
13041TIP3   OH260613   0.433   5.089  14.587  0.0291 -0.5587 -0.3490
13041TIP3    H160614   0.402   5.137  14.664  0.8343  0.7042 -0.7840
13041TIP3    H260615   0.525   5.114  14.579  0.1706 -1.3179 -1.2599
13042TIP3   OH260616   2.819   2.127  15.125 -0.2771  0.1692  0.3463
13042TIP3    H160617   2.785   2.213  15.147  1.1115  1.0083 -0.5765
13042TIP3    H260618   2.914   2.139  15.124  0.0266 -1.7564  1.6415
13043TIP3   OH260619   5.421   6.347  11.543  0.2665  0.1770  0.7415
13043TIP3    H160620   5.439   6.327  11.635  0.7089 -1.1122  0.3948
13043TIP3    H260621   5.330   6.375  11.541  0.7522  2.0252  1.8277
13044TIP3   OH260622   5.911   3.844   0.257 -0.2100  0.8335 -0.2756
13044TIP3    H160623   5.980   3.804   0.205  0.9641  1.8539  0.4627
13044TIP3    H260624   5.921   3.806   0.344 -0.0412  1.6061  0.0475
13045TIP3   OH260625   3.494   4.532   4.467 -0.8439 -0.0198  0.5262
13045TIP3    H160626   3.413   4.491   4.438 -0.7619 -0.6366  1.1323
13045TIP3    H260627   3.487   4.534   4.563 -0.6451  0.9776  0.5282
13046TIP3   OH260628   0.617   2.274   5.901  0.2593  0.2986  0.2918
13046TIP3    H160629   0.559   2.286   5.976 -0.2717 -0.9842  0.1187
13046TIP3    H260630   0.690   2.333   5.918 -0.5119  1.0512  1.1214
13047TIP3   OH260631   0.934   1.537  11.749  0.1377  0.0504 -0.8126
13047TIP3    H160632   1.008   1.503  11.799  0.5779 -1.0122 -2.1152
13047TIP3    H260633   0.877   1.461  11.737 -0.6617  0.6219 -0.7230
13048TIP3   OH260634   5.934   5.507  15.187  0.4221  0.1831 -0.1148
13048TIP3    H160635   5.849   5.516  15.229  0.9715  1.7198  0.7585
13048TIP3    H260636   5.917   5.523  15.094 -0.7217 -2.7715 -0.5155
13049TIP3   OH260637   1.224   3.081  16.201  0.4978 -0.0874  0.1195
13049TIP3    H160638   1.230   2.987  16.181 -0.9707  0.3865 -3.1645
13049TIP3    H260639   1.314   3.107  16.219  1.5876 -1.4633 -2.7523
13050TIP3   OH260640   1.933   1.384   3.466 -0.1966  0.4063 -0.2721
13050TIP3    H160641   1.987   1.463   3.464 -0.3463  0.5273  0.2943
13050TIP3    H260642   1.947   1.344   3.381  2.1125 -0.4571  0.4445
13051TIP3   OH260643   1.945   1.462  12.981 -0.3180 -0.0009 -0.2043
13051TIP3    H160644   2.005   1.397  12.944  1.5376  0.9084  1.0636
13051TIP3    H260645   1.938   1.438  13.073  0.9776  1.9141  0.4627
13052TIP3   OH260646   2.319   4.571   0.529  0.0594 -0.1835 -0.6107
13052TIP3    H160647   2.243   4.520   0.556  1.0124 -0.3647  2.0477
13052TIP3    H260648   2.315   4.650   0.584  0.2573  1.1938 -2.4866
13053TIP3   OH260649   0.055   0.903  12.879 -0.3936 -0.5449 -0.0255
13053TIP3    H160650   0.011   0.953  12.810  1.3239  3.0991  1.2478
13053TIP3    H260651   0.146   0.900  12.852 -0.2689 -2.0602  0.5075
13054TIP3   OH260652   4.087   0.302  14.287 -0.1348 -0.2916 -0.0665
13054TIP3    H160653   4.091   0.383  14.338  0.1871  1.5826 -2.8543
13054TIP3    H260654   3.997   0.271  14.297 -1.1590  2.0577 -1.2086
13055TIP3   OH260655   3.872   2.885  12.585  0.3381  0.2250 -0.0944
13055TIP3    H160656   3.880   2.829  12.507  0.9170 -0.5291  0.4870
13055TIP3    H260657   3.782   2.917  12.582  1.2344  3.0436 -2.9455
13056TIP3   OH260658   6.497   4.745  16.244  0.5603  0.3615 -0.2613
13056TIP3    H160659   6.574   4.802  16.247  1.4084 -0.7188 -1.0386
13056TIP3    H260660   6.498   4.697  16.327  0.9050  0.1096 -0.4125
13057TIP3   OH260661   4.294   6.578   3.384 -0.8594  0.0697 -0.0819
13057TIP3    H160662   4.373   6.525   3.394 -0.8092  0.5218  3.1943
13057TIP3    H260663   4.319   6.647   3.322  1.2708  0.0810  0.7068
13058TIP3   OH260664   1.560   6.563   6.790  0.1954 -0.1516  0.6493
13058TIP3    H160665   1.628   6.525   6.735  0.0660  1.3508 -0.6452
13058TIP3    H260666   1.592   6.552   6.880  1.0674 -1.4517  0.2059
13059TIP3   OH260667   5.662   3.633  16.859 -0.3418  0.0342  0.1399
13059TIP3    H160668   5.718   3.709  16.849  1.7631 -1.4845 -0.2928
13059TIP3    H260669   5.597   3.641  16.788  0.6549  0.7544 -0.7148
13060TIP3   OH260670   6.523   0.695   3.718  0.1648 -0.0207 -0.1259
13060TIP3    H160671   6.490   0.644   3.643 -0.1975  0.9629 -0.6495
13060TIP3    H260672   6.589   0.753   3.680  0.0961  0.3707  0.3483
13061TIP3   OH260673   6.457   0.977  14.955  0.6359 -0.2084  0.5024
13061TIP3    H160674   6.377   0.934  14.984 -0.0331 -0.5102 -1.6303
13061TIP3    H260675   6.429   1.035  14.885  1.8111  2.3417  2.0054
13062TIP3   OH260676   3.111   4.723  13.777 -0.0887  0.1362 -0.0331
13062TIP3    H160677   3.112   4.641  13.826 -0.2724 -0.7519 -1.4635
13062TIP3    H260678   3.172   4.780  13.825 -1.7163  0.0295  2.3488
13063TIP3   OH260679   4.515   5.570  14.279  0.6242  0.4353 -0.4199
13063TIP3    H160680   4.427   5.558  14.244 -0.5734  1.9774  1.7936
13063TIP3    H260681   4.501   5.605  14.367  3.3785 -2.8615  1.5576
13064TIP3   OH260682   3.722   0.489  13.044 -0.3781 -0.4614 -0.3189
13064TIP3    H160683   3.783   0.429  13.087 -1.2120 -1.3239 -0.2825
13064TIP3    H260684   3.639   0.475  13.091 -0.7632  0.1910 -0.7913
13065TIP3   OH260685   1.995   3.128  16.503 -0.3210  0.5729 -0.4481
13065TIP3    H160686   1.993   3.111  16.409 -0.3860  1.4187 -0.6063
13065TIP3    H260687   2.007   3.041  16.543  1.7251  0.4074 -1.3068
13066TIP3   OH260688   5.539   6.226  13.390  0.0494 -0.0867 -0.3617
13066TIP3    H160689   5.453   6.185  13.377 -0.1634  0.8398 -2.1304
13066TIP3    H260690   5.543   6.242  13.484 -1.1035 -1.4377 -0.0349
13067TIP3   OH260691   6.778   3.645  14.071 -0.1220  0.3818  0.0718
13067TIP3    H160692   6.800   3.599  14.152 -2.2890  2.1429  1.7936
13067TIP3    H260693   6.862   3.675  14.037  1.0120 -1.7980  0.7054
13068TIP3   OH260694   5.180   5.378  12.189  0.5797 -0.1238  0.2135
13068TIP3    H160695   5.086   5.361  12.191  0.4103  0.7847  0.4182
13068TIP3    H260696   5.217   5.304  12.143 -0.3718  0.1069 -0.9532
13069TIP3   OH260697   1.357   4.376   2.996  0.6271  0.6933  0.5633
13069TIP3    H160698   1.433   4.371   3.053  0.3560  3.2887  1.2880
13069TIP3    H260699   1.285   4.402   3.055 -0.6617 -0.8431 -0.2508
13070TIP3   OH260700   4.139   1.839  14.289  0.0379  0.3033 -0.0128
13070TIP3    H160701   4.128   1.782  14.365 -0.6521 -1.6835 -1.5135
13070TIP3    H260702   4.113   1.785  14.215  0.5353  2.2196 -1.6666
13071TIP3   OH260703   6.284   1.699   0.261  0.0690 -0.1753  0.1404
13071TIP3    H160704   6.357   1.710   0.200 -0.1151 -1.5741 -0.3579
13071TIP3    H260705   6.324   1.662   0.339 -0.1539 -1.4569 -0.3268
13072TIP3   OH260706   2.131   6.611   2.747  0.0094 -0.5980 -0.4965
13072TIP3    H160707   2.169   6.566   2.822 -1.1775 -0.8649 -0.0328
13072TIP3    H260708   2.040   6.582   2.745 -0.6894  1.4032 -0.4757
13073TIP3   OH260709   5.645   0.034  11.639 -0.1528  0.6927 -0.4076
13073TIP3    H160710   5.645   0.113  11.585  0.1438  2.0198  1.4062
13073TIP3    H260711   5.595   0.059  11.717  0.4495 -0.7163  0.4688
13074TIP3   OH260712   4.961   2.412   2.873 -0.1037  0.2635  0.5132
13074TIP3    H160713   4.964   2.440   2.781 -2.6015  1.2333  0.6458
13074TIP3    H260714   5.041   2.447   2.911  0.9959 -0.1610 -1.2626
13075TIP3   OH260715   2.894   2.864  15.885  0.5672 -0.9441  0.4910
13075TIP3    H160716   2.928   2.848  15.974 -1.3839  0.7447  1.6249
13075TIP3    H260717   2.799   2.855  15.894  0.2926 -0.1226 -1.2960
13076TIP3   OH260718   1.102   5.711  13.005  0.0396 -0.0137 -0.3423
13076TIP3    H160719   1.098   5.616  13.017  1.3385 -0.2333 -1.3513
13076TIP3    H260720   1.015   5.743  13.028 -0.2892 -1.3945  0.4153
13077TIP3   OH260721   2.344   2.210   0.222  0.3161  0.0353  0.4836
13077TIP3    H160722   2.259   2.233   0.185  1.2563  2.3475 -0.4374
13077TIP3    H260723   2.338   2.116   0.239 -1.8616 -0.1801 -1.0202
13078TIP3   OH260724   6.454   4.111  13.588 -0.8613 -0.0726  0.6555
13078TIP3    H160725   6.489   4.046  13.527 -0.1920  0.4081  0.5070
13078TIP3    H260726   6.458   4.068  13.673  0.1165 -0.0305  0.6392
13079TIP3   OH260727   0.102   5.217  12.364  0.2579  0.3729  0.3493
13079TIP3    H160728   0.087   5.266  12.284 -1.2056  1.9538  1.5192
13079TIP3    H260729   0.020   5.169  12.378 -0.3715  1.8349  1.9967
13080TIP3   OH260730   6.777   2.238   1.769 -0.1049  0.0234 -0.4545
13080TIP3    H160731   6.808   2.223   1.858  1.7247  1.2388 -0.8263
13080TIP3    H260732   6.856   2.264   1.721 -1.2204  0.3032 -2.2049
13081TIP3   OH260733   6.351   2.771   2.272  0.4408 -1.0764 -0.2376
13081TIP3    H160734   6.306   2.722   2.203 -0.3077  0.1875 -0.6944
13081TIP3    H260735   6.288   2.773   2.345 -0.0913  0.2721 -0.6958
13082TIP3   OH260736   0.052   5.264   0.210  0.0805 -0.4584  0.4100
13082TIP3    H160737   0.132   5.305   0.242 -0.4117 -0.1033  1.2337
13082TIP3    H260738   0.069   5.247   0.118  0.3672  1.5022  0.0519
13083TIP3   OH260739   6.571   0.759  15.544 -0.6700  0.4458 -0.2293
13083TIP3    H160740   6.655   0.730  15.509  1.7540  3.6563  2.2307
13083TIP3    H260741   6.541   0.685  15.597 -0.2639 -1.3436 -2.3550
13084TIP3   OH260742   0.346   3.939  15.788 -0.2842 -0.4518 -0.3580
13084TIP3    H160743   0.393   3.916  15.708  0.2302 -0.9528  0.0724
13084TIP3    H260744   0.415   3.970  15.848 -0.3256 -2.0818  0.6070
13085TIP3   OH260745   5.703   2.657  15.940  0.4257  0.1517 -0.2791
13085TIP3    H160746   5.710   2.687  16.031 -2.5916 -2.7836  1.1460
13085TIP3    H260747   5.769   2.587  15.933  1.6612  1.3350 -0.8975
13086TIP3   OH260748   4.638   1.561   0.591 -0.4779  0.2769 -0.4152
13086TIP3    H160749   4.561   1.586   0.540  0.0727 -0.7163 -1.8121
13086TIP3    H260750   4.711   1.598   0.543 -0.0352  0.7793  0.6240
13087TIP3   OH260751   0.368   1.774   4.366  0.0378 -0.1666 -0.4380
13087TIP3    H160752   0.321   1.713   4.423  0.0245  0.3871  0.1500
13087TIP3    H260753   0.305   1.795   4.297 -0.7174  0.8278  0.5247
13088TIP3   OH260754   5.101   6.050  11.348  0.6502  0.5464 -0.3632
13088TIP3    H160755   5.065   6.138  11.354  0.7985  0.5174  1.3638
13088TIP3    H260756   5.133   6.030  11.436  2.8775 -0.2832 -1.2690
13089TIP3   OH260757   4.866   6.500   4.800 -0.3016 -0.4650 -0.3274
13089TIP3    H160758   4.865   6.473   4.891 -1.9816 -0.1206 -0.2123
13089TIP3    H260759   4.884   6.594   4.803 -1.1432 -0.2980 -0.2841
13090TIP3   OH260760   4.736   3.201   0.603  0.2082  0.2729  0.0935
13090TIP3    H160761   4.681   3.205   0.682 -0.3755  0.5907 -0.3250
13090TIP3    H260762   4.728   3.111   0.573  1.1735 -0.1020  0.9140
13091TIP3   OH260763   0.025   3.756   3.676  0.2258  0.5990 -0.3913
13091TIP3    H160764   0.058   3.845   3.664  0.9553  0.7725  2.3474
13091TIP3    H260765   0.100   3.700   3.659  0.6359  0.7170  0.9318
13092TIP3   OH260766   1.365   3.923  17.095 -0.1299  0.0320  0.0905
13092TIP3    H160767   1.429   3.994  17.088 -1.1672  0.8962 -0.7946
13092TIP3    H260768   1.283   3.966  17.118 -0.7380 -0.8959 -0.2963
13093TIP3   OH260769   6.629   6.222  11.340  0.3397 -0.3550 -0.1990
13093TIP3    H160770   6.643   6.243  11.432 -1.7593  5.5188 -0.7908
13093TIP3    H260771   6.714   6.191  11.308  2.1837  1.1043  2.8926
13094TIP3   OH260772   1.593   6.611   5.840  0.0024  0.1976 -0.0679
13094TIP3    H160773   1.669   6.611   5.897  0.1147 -3.4736  0.0101
13094TIP3    H260774   1.629   6.620   5.751  0.1769  1.8436  0.1493
13095TIP3   OH260775   5.927   5.983   1.296 -0.4179 -0.6477 -0.5920
13095TIP3    H160776   5.924   6.076   1.273  0.1222 -0.3508  0.4600
13095TIP3    H260777   5.867   5.941   1.234 -0.2149  0.3096 -1.4691
13096TIP3   OH260778   0.982   3.090   3.399  0.2134 -0.4212 -0.3926
13096TIP3    H160779   1.074   3.110   3.384  0.5136 -0.4631  1.1722
13096TIP3    H260780   0.973   2.997   3.378  0.4553 -0.3509 -0.8132
13097TIP3   OH260781   6.682   3.650  15.223 -0.3118  0.4759 -0.0023
13097TIP3    H160782   6.597   3.694  15.220  0.0414  1.2616  0.8782
13097TIP3    H260783   6.745   3.721  15.240  0.3736 -0.2447  0.5418
13098TIP3   OH260784   1.052   1.637   6.131  0.1217 -0.1766 -0.1673
13098TIP3    H160785   1.078   1.691   6.057  0.2851  0.7024  0.5015
13098TIP3    H260786   1.001   1.697   6.187  0.5193 -0.6429  0.7184
13099TIP3   OH260787   4.138   3.536   4.077  0.0747  0.1575  0.3423
13099TIP3    H160788   4.075   3.467   4.055  1.3066  0.0277 -3.4387
13099TIP3    H260789   4.084   3.607   4.113 -1.2369 -2.5007  4.3599
13100TIP3   OH260790   5.123   6.232  13.364  0.3202 -0.2878 -0.4342
13100TIP3    H160791   5.157   6.301  13.307 -0.5552  0.3507 -0.2078
13100TIP3    H260792   5.156   6.253  13.451 -1.4727  0.9772  0.0041
13101TIP3   OH260793   6.600   5.137  11.445  0.2792  0.1270 -0.3253
13101TIP3    H160794   6.575   5.227  11.465  2.0511  0.3573  1.0692
13101TIP3    H260795   6.600   5.133  11.349  0.9104  1.8427 -0.4335
13102TIP3   OH260796   0.366   0.039   5.061 -0.2852  0.3243 -0.0860
13102TIP3    H160797   0.347  -0.041   5.011 -5.3448 -1.0481  3.2992
13102TIP3    H260798   0.436   0.014   5.121 -0.5085 -0.9449 -0.3324
13103TIP3   OH260799   1.350   5.139  11.078 -0.1916 -0.1841 -0.2584
13103TIP3    H160800   1.297   5.213  11.110  0.7373  0.6891 -0.6820
13103TIP3    H260801   1.293   5.063  11.088 -0.5891  0.3267  1.7486
13104TIP3   OH260802   1.375   3.587   1.559  0.0112 -0.0565  0.0095
13104TIP3    H160803   1.386   3.530   1.634 -1.4190 -0.7176 -0.2317
13104TIP3    H260804   1.461   3.626   1.544  0.7964 -1.4417  0.7508
13105TIP3   OH260805   1.058   0.971  12.890  0.6827  0.2494  0.3712
13105TIP3    H160806   1.048   1.008  12.802 -0.3098  0.4699  0.5654
13105TIP3    H260807   1.063   0.876  12.875 -1.6396  0.0886  0.1855
13106TIP3   OH260808   2.052   1.342  16.100  0.1723  0.1001  0.2192
13106TIP3    H160809   2.094   1.389  16.028 -0.8429  0.2310 -0.3150
13106TIP3    H260810   2.051   1.404  16.173  0.4656  0.2663  0.0794
13107TIP3   OH260811   1.971   1.370  13.893 -0.4088  0.3462 -0.0834
13107TIP3    H160812   1.958   1.306  13.823 -1.0386  0.2340  0.1223
13107TIP3    H260813   2.054   1.346  13.933 -1.8136 -2.0849  1.7259
13108TIP3   OH260814   1.376   0.846   0.590  0.5888 -0.2005  0.2447
13108TIP3    H160815   1.281   0.832   0.596  0.6078 -0.0427  0.9958
13108TIP3    H260816   1.413   0.758   0.578  0.5125 -0.5707  2.3198
13109TIP3   OH260817   4.987   0.988   0.447  0.2879 -0.1731  0.0703
13109TIP3    H160818   5.055   0.924   0.469  1.7608  0.9059 -1.2363
13109TIP3    H260819   4.914   0.934   0.414  0.3016 -1.3639  1.8457
13110TIP3   OH260820   2.598   5.226  12.320 -0.2601  0.1591  0.0180
13110TIP3    H160821   2.567   5.225  12.410  0.6294 -0.8098  0.3426
13110TIP3    H260822   2.633   5.138  12.306 -1.6116 -0.1641 -1.7283
13111TIP3   OH260823   2.799   2.043  16.466  0.0264  0.0084  0.5369
13111TIP3    H160824   2.886   2.035  16.427  0.0339 -0.9611  0.7214
13111TIP3    H260825   2.814   2.040  16.560  0.0166  2.4183  0.6786
13112TIP3   OH260826   4.742   0.392  15.877 -0.3046 -0.4920 -0.5583
13112TIP3    H160827   4.688   0.375  15.954  1.6061  1.2535  1.3105
13112TIP3    H260828   4.812   0.326  15.882  0.4933  0.3614 -0.0447
13113TIP3   OH260829   4.627   4.729  13.187  0.0296 -0.5674  0.1695
13113TIP3    H160830   4.654   4.805  13.135 -2.7934 -0.9822 -2.1287
13113TIP3    H260831   4.588   4.766  13.266 -0.1727  0.3196 -0.3402
13114TIP3   OH260832   0.432   1.920   3.420 -0.7666 -0.7004 -0.3543
13114TIP3    H160833   0.440   1.831   3.385 -1.5002 -1.9094  2.2377
13114TIP3    H260834   0.522   1.947   3.436 -0.4805 -0.5338 -2.0734
13115TIP3   OH260835   3.412   4.108  12.283 -0.1811  0.7572  0.0168
13115TIP3    H160836   3.330   4.148  12.253 -0.7580  0.1657  0.7568
13115TIP3    H260837   3.426   4.035  12.224  1.7727  2.9474 -2.4200
13116TIP3   OH260838   0.089   0.537  15.443  0.4922 -0.3116 -0.0067
13116TIP3    H160839   0.015   0.574  15.396  0.8211  1.0499  0.4763
13116TIP3    H260840   0.159   0.601  15.431  1.1929 -0.9368  0.6298
13117TIP3   OH260841   2.738   0.233   6.390 -0.3101 -0.1475 -0.0844
13117TIP3    H160842   2.796   0.300   6.354 -0.8379  1.1541  1.3644
13117TIP3    H260843   2.721   0.262   6.480 -1.0095 -1.9502  0.4063
13118TIP3   OH260844   1.969   6.676  16.752  0.1001 -0.0250 -0.1207
13118TIP3    H160845   1.973   6.772  16.754  3.9602 -0.0226 -0.7644
13118TIP3    H260846   2.000   6.648  16.838  0.7212 -0.6777 -0.5474
13119TIP3   OH260847   2.152   4.264   3.627  0.4271  0.2032  0.3991
13119TIP3    H160848   2.177   4.298   3.542  1.0597  1.3797  1.0345
13119TIP3    H260849   2.191   4.177   3.631 -0.1086 -0.0991 -0.7348
13120TIP3   OH260850   2.327   1.941  17.024 -0.0673 -0.1425  0.3233
13120TIP3    H160851   2.388   1.868  17.022  0.3577  0.2227 -1.2295
13120TIP3    H260852   2.357   2.000  16.955 -1.6879  0.4548  0.0809
13121TIP3   OH260853   3.781   0.765   4.492 -0.7098 -0.0892 -0.1292
13121TIP3    H160854   3.738   0.729   4.415 -1.9519  0.9949  0.0166
13121TIP3    H260855   3.712   0.769   4.559 -0.1334  0.7355  0.4391
13122TIP3   OH260856   4.666   3.877   3.094 -0.6902 -0.0610  0.1786
13122TIP3    H160857   4.590   3.866   3.037 -0.0305  0.3882 -0.8082
13122TIP3    H260858   4.630   3.913   3.175 -1.2175  3.0894 -1.3282
13123TIP3   OH260859   6.142   0.884   0.992  0.3179 -0.8504  0.3410
13123TIP3    H160860   6.054   0.920   1.009  0.0943 -1.0494 -0.3979
13123TIP3    H260861   6.178   0.941   0.924 -0.3636 -2.4801 -1.4771
13124TIP3   OH260862   5.665   3.240   3.881  0.1233 -0.0218 -0.0136
13124TIP3    H160863   5.679   3.254   3.975 -4.0488  3.0367  0.4562
13124TIP3    H260864   5.696   3.322   3.840 -0.1860 -0.3785 -0.9976
13125TIP3   OH260865   0.539   1.577   0.858  0.0818 -0.0751  0.5242
13125TIP3    H160866   0.533   1.567   0.953 -1.9613 -2.9171  0.2165
13125TIP3    H260867   0.464   1.630   0.834 -0.9959 -1.6241  0.3223
13126TIP3   OH260868   3.172   2.674   1.611 -0.0901 -0.1942  0.1914
13126TIP3    H160869   3.106   2.713   1.668  0.1549  0.8285 -0.2006
13126TIP3    H260870   3.149   2.581   1.607 -1.9258  0.2451 -0.4965
13127TIP3   OH260871   1.708   5.890   6.608 -0.5383  0.0521 -0.0559
13127TIP3    H160872   1.673   5.801   6.615 -0.6414  0.1537  1.0319
13127TIP3    H260873   1.634   5.942   6.576 -0.4529 -0.2631 -0.7795
13128TIP3   OH260874   2.549   2.418   1.470 -0.1610 -0.5583  0.1363
13128TIP3    H160875   2.559   2.391   1.379  0.3479 -0.1120  0.0528
13128TIP3    H260876   2.624   2.476   1.486 -0.6260 -0.0803  0.6338
13129TIP3   OH260877   0.164   4.434  11.761  0.3048 -0.8819 -0.1246
13129TIP3    H160878   0.195   4.348  11.733 -1.2597 -1.6934  0.5079
13129TIP3    H260879   0.237   4.493  11.743  1.0870 -2.1767 -1.4024
13130TIP3   OH260880   6.452   3.017  14.178 -0.4859  0.4300 -0.2777
13130TIP3    H160881   6.416   2.929  14.186 -0.2226  0.3739  0.3920
13130TIP3    H260882   6.533   3.006  14.129 -0.6022  0.3412 -0.4512
13131TIP3   OH260883   3.153   4.919  14.957  0.2525  0.0775  0.1345
13131TIP3    H160884   3.113   4.939  14.872 -0.0676  0.1843  0.3096
13131TIP3    H260885   3.101   4.848  14.992  1.2082 -0.8941 -0.3522
13132TIP3   OH260886   6.688   2.140  16.567  0.1869 -0.3452  0.6039
13132TIP3    H160887   6.746   2.103  16.633  0.3863 -1.1715 -0.0167
13132TIP3    H260888   6.680   2.072  16.500 -1.1035 -0.0612  0.4304
13133TIP3   OH260889   4.514   3.976   2.230  0.2616  0.7134 -0.1601
13133TIP3    H160890   4.492   4.069   2.229  2.1706  1.2844  1.8000
13133TIP3    H260891   4.605   3.974   2.258  0.6656 -1.7312 -1.4218
13134TIP3   OH260892   6.605   5.470  15.024  0.2849  0.2022  0.1529
13134TIP3    H160893   6.533   5.533  15.015  0.0424  0.0540  0.9912
13134TIP3    H260894   6.683   5.519  14.999  0.1934  1.0556  1.4695
13135TIP3   OH260895   0.515   1.476  11.642  0.1690 -0.1877  0.2045
13135TIP3    H160896   0.492   1.415  11.572 -0.3702 -1.0572  1.1254
13135TIP3    H260897   0.432   1.517  11.666  0.3869  0.2648  0.1930
13136TIP3   OH260898   4.192   2.734   6.060  0.1982  0.2735 -0.7945
13136TIP3    H160899   4.281   2.760   6.036  0.2844 -0.6592 -1.5630
13136TIP3    H260900   4.162   2.803   6.120  1.5777  0.3841 -0.1888
13137TIP3   OH260901   6.347   4.483   1.621  0.2898  0.0942  0.0377
13137TIP3    H160902   6.410   4.449   1.556 -0.6701 -0.2288 -0.7439
13137TIP3    H260903   6.385   4.567   1.648 -0.5589  1.5661 -2.9543
13138TIP3   OH260904   1.375   5.470   1.830  0.3129 -0.2241 -0.0375
13138TIP3    H160905   1.378   5.416   1.751  1.1031  2.6947 -2.1695
13138TIP3    H260906   1.466   5.475   1.860 -0.0757 -1.9563  1.6391
13139TIP3   OH260907   3.219   4.376   2.461 -0.5728 -0.7161  0.1305
13139TIP3    H160908   3.134   4.341   2.436 -0.0279 -2.4273  0.4995
13139TIP3    H260909   3.261   4.399   2.378 -0.8429 -1.2440 -0.1538
13140TIP3   OH260910   2.224   2.763  13.857 -0.1384  0.2579  0.5167
13140TIP3    H160911   2.308   2.752  13.812  0.4734  0.5397  1.5759
13140TIP3    H260912   2.182   2.677  13.850  0.0185  0.2452 -0.4276
13141TIP3   OH260913   6.568   2.828  10.902  0.2027 -0.2132 -0.3396
13141TIP3    H160914   6.473   2.816  10.899  0.1543  0.2763 -1.3106
13141TIP3    H260915   6.583   2.892  10.971  0.0054 -1.6817  1.1169
13142TIP3   OH260916   2.750   2.428   5.739  0.4548 -0.2812 -0.0893
13142TIP3    H160917   2.765   2.397   5.828 -1.7766 -0.4192  0.3156
13142TIP3    H260918   2.734   2.349   5.688  1.5541 -0.1903 -0.6033
13143TIP3   OH260919   6.821   2.644   1.385 -0.1537 -0.3099 -0.0548
13143TIP3    H160920   6.844   2.737   1.386 -1.8114  0.1542 -1.1767
13143TIP3    H260921   6.741   2.638   1.437  1.2520 -1.5715  2.1342
13144TIP3   OH260922   1.890   1.736  12.953 -0.1045  0.5132  1.1722
13144TIP3    H160923   1.832   1.732  13.029 -1.0640 -1.6252  0.4086
13144TIP3    H260924   1.923   1.646  12.943 -1.0659  0.3663 -1.7062
13145TIP3   OH260925   6.667   4.660  10.560  0.1385  0.4106 -0.3496
13145TIP3    H160926   6.694   4.670  10.469  1.2377 -1.8769 -0.3556
13145TIP3    H260927   6.606   4.585  10.559  1.0462 -0.3866  0.8939
13146TIP3   OH260928   3.307   4.267   3.739  0.3750 -0.0662  0.2996
13146TIP3    H160929   3.247   4.228   3.675  1.0437  0.0415 -0.4127
13146TIP3    H260930   3.296   4.214   3.818  1.3595 -1.8380 -0.6871
13147TIP3   OH260931   2.962   5.900   5.708 -0.4582 -0.1737  0.2624
13147TIP3    H160932   2.932   5.989   5.729 -2.6548 -1.0893  1.3173
13147TIP3    H260933   2.923   5.880   5.623  1.1966  0.3346 -0.6549
13148TIP3   OH260934   2.052   3.641  14.730  0.0106 -0.0497  0.5254
13148TIP3    H160935   1.996   3.645  14.809 -3.1163  3.5630 -1.5061
13148TIP3    H260936   2.108   3.718  14.737  1.9142 -1.3810  0.5419
13149TIP3   OH260937   0.368   3.726   0.687 -0.3128  0.2553  0.4739
13149TIP3    H160938   0.422   3.694   0.615 -0.7889 -0.5100  0.4426
13149TIP3    H260939   0.428   3.775   0.744  0.2746 -0.0598  0.1213
13150TIP3   OH260940   5.400   4.937   0.869 -0.0701 -0.0794 -0.3287
13150TIP3    H160941   5.310   4.943   0.902 -0.1508  1.3856 -0.7496
13150TIP3    H260942   5.434   4.856   0.908 -1.5777 -0.6906 -0.2115
13151TIP3   OH260943   2.862   0.436   4.197 -0.2325  0.1098  0.6695
13151TIP3    H160944   2.800   0.364   4.183  0.7215 -0.8751  1.3881
13151TIP3    H260945   2.920   0.432   4.121 -0.3756  0.3374  0.5470
13152TIP3   OH260946   0.481   1.918  14.403 -0.7471 -0.2286  0.2958
13152TIP3    H160947   0.486   1.999  14.454  0.1710 -0.1933  0.1622
13152TIP3    H260948   0.465   1.947  14.313  1.5481 -0.0414 -0.1166
13153TIP3   OH260949   2.451   3.225  12.401  0.0144  0.5573  0.5458
13153TIP3    H160950   2.466   3.189  12.314 -0.6414  0.7977  0.3309
13153TIP3    H260951   2.426   3.316  12.385 -2.1513  0.0631  0.8368
13154TIP3   OH260952   1.875   5.420   1.411  0.4585  0.6386 -0.2245
13154TIP3    H160953   1.905   5.332   1.433  0.2068  0.0404 -2.1029
13154TIP3    H260954   1.918   5.477   1.474  0.7519 -0.8080  0.9190
13155TIP3   OH260955   3.614   2.858  12.628 -0.3142  0.6507 -0.6565
13155TIP3    H160956   3.595   2.768  12.600  0.2273 -0.2273  1.6160
13155TIP3    H260957   3.572   2.866  12.713  0.6405  2.1779 -0.2899
13156TIP3   OH260958   6.424   5.570   3.385 -0.5406 -0.2373 -0.1380
13156TIP3    H160959   6.368   5.496   3.360 -0.4206 -0.5147  0.3882
13156TIP3    H260960   6.372   5.618   3.450 -0.5976  0.1158 -0.4390
13157TIP3   OH260961   4.569   0.743   3.492 -0.5137  0.2128 -0.2212
13157TIP3    H160962   4.577   0.724   3.399  1.1580  1.1654 -0.3185
13157TIP3    H260963   4.658   0.767   3.519 -0.8925 -0.3263  1.6877
13158TIP3   OH260964   4.930   5.873   0.921  0.2771 -0.1120 -0.2451
13158TIP3    H160965   4.982   5.829   0.854  1.3481  2.6993 -1.4327
13158TIP3    H260966   4.980   5.860   1.002  1.1347 -0.1602 -0.7720
13159TIP3   OH260967   1.784   5.529  11.819  0.3677  0.8437  0.0560
13159TIP3    H160968   1.752   5.605  11.869  0.4732  0.0769  1.3387
13159TIP3    H260969   1.710   5.469  11.816  0.3826  0.8545 -0.6832
13160TIP3   OH260970   5.380   6.054  14.610  0.4936 -0.0032  0.6637
13160TIP3    H160971   5.299   6.049  14.561  0.4650 -0.3930  0.7469
13160TIP3    H260972   5.448   6.069  14.544  0.3804  0.0985  0.5711
13161TIP3   OH260973   6.519   4.582   0.439  0.0031 -0.8824 -0.1760
13161TIP3    H160974   6.456   4.514   0.465 -0.4990 -0.5519 -0.5136
13161TIP3    H260975   6.484   4.616   0.356  1.0601 -1.2613 -0.8058
13162TIP3   OH260976   5.996   1.598  16.217  0.2978  0.1005  0.3135
13162TIP3    H160977   6.003   1.675  16.272 -0.9969 -0.7608  1.7780
13162TIP3    H260978   5.958   1.531  16.274  0.8986 -1.4727 -1.0427
13163TIP3   OH260979   2.361   5.662  11.606  0.3817  0.0508  0.2160
13163TIP3    H160980   2.270   5.692  11.595 -0.5007 -2.5062 -0.1618
13163TIP3    H260981   2.413   5.724  11.555 -1.5188 -0.1440 -2.1595
13164TIP3   OH260982   5.628   6.425   2.795  0.4914  0.0811 -0.0621
13164TIP3    H160983   5.638   6.463   2.883 -1.0586  1.5539 -0.4720
13164TIP3    H260984   5.537   6.396   2.792  0.8872 -1.1599 -0.7698
13165TIP3   OH260985   4.051   6.565   3.016  0.0267  0.5686  0.2250
13165TIP3    H160986   3.965   6.608   3.018  0.2809  1.0764  1.9395
13165TIP3    H260987   4.078   6.562   3.108  2.5019  1.7354 -0.4030
13166TIP3   OH260988   1.004   1.992  16.790 -0.2670  0.6753 -0.0947
13166TIP3    H160989   0.974   1.907  16.823  0.3100 -0.0555 -1.3628
13166TIP3    H260990   0.927   2.048  16.796 -0.7959 -0.0703  0.3044
13167TIP3   OH260991   0.335   2.933  16.862 -0.1779 -0.1298 -0.6126
13167TIP3    H160992   0.266   2.871  16.886  0.1197  0.0114  0.6877
13167TIP3    H260993   0.290   3.017  16.858 -0.4672 -0.3129 -1.8201
13168TIP3   OH260994   6.018   5.012  15.880 -0.9375 -0.3805 -0.4392
13168TIP3    H160995   6.023   4.938  15.942  0.0497 -0.4565 -0.5946
13168TIP3    H260996   6.108   5.044  15.874 -1.0059 -0.3881 -1.8545
13169TIP3   OH260997   4.945   0.498   1.708 -0.0427 -0.3174 -0.1405
13169TIP3    H160998   4.894   0.496   1.788  1.1002 -0.7677  0.6044
13169TIP3    H260999   5.036   0.504   1.737  0.5602 -2.5222 -1.3174
13170TIP3   OH261000   1.612   1.446  10.388 -0.3148  0.5453 -0.0704
13170TIP3    H161001   1.570   1.531  10.399  0.9892  1.4322 -1.5143
13170TIP3    H261002   1.605   1.405  10.474  0.2988  2.7102  1.0952
13171TIP3   OH261003   3.433   2.125  16.978  0.1126 -0.0749  0.2872
13171TIP3    H161004   3.467   2.070  17.048  0.3743  0.5181  0.6298
13171TIP3    H261005   3.435   2.068  16.900 -1.1713 -1.0835  0.9493
13172TIP3   OH261006   0.961   4.630  13.799  0.2591 -0.6116  0.4099
13172TIP3    H161007   0.987   4.583  13.878 -1.1550 -1.7582  0.2380
13172TIP3    H261008   0.903   4.569  13.754 -1.8179  1.3806  0.2625
13173TIP3   OH261009   0.665   5.681  15.208  0.0308 -0.3776 -0.2126
13173TIP3    H161010   0.740   5.673  15.267 -1.4727 -0.6777  1.7562
13173TIP3    H261011   0.655   5.594  15.170  0.2279 -0.5181  0.0575
13174TIP3   OH261012   0.202   6.356   3.563  0.6487  0.0991 -0.2206
13174TIP3    H161013   0.242   6.287   3.509  1.3848  1.7773 -1.9251
13174TIP3    H261014   0.184   6.427   3.501 -2.7529  0.4027  0.9284
13175TIP3   OH261015   2.698   5.737  11.838  0.1852  0.1472 -0.1054
13175TIP3    H161016   2.696   5.831  11.826 -0.0223  0.1559 -0.0220
13175TIP3    H261017   2.786   5.718  11.871  1.1136  0.0016 -2.4651
13176TIP3   OH261018   1.261   6.339   4.747 -0.6446  0.3479  0.1610
13176TIP3    H161019   1.307   6.268   4.702  0.0658  1.3850 -0.8039
13176TIP3    H261020   1.265   6.315   4.840  2.3120  0.6017  0.1873
13177TIP3   OH261021   2.956   3.563  14.977 -0.3480  0.0983 -0.0248
13177TIP3    H161022   2.902   3.633  15.014 -0.2349  0.9916 -1.4958
13177TIP3    H261023   3.044   3.600  14.973 -0.0461 -0.5588  0.2546
13178TIP3   OH261024   5.821   2.100   2.688  1.0139 -0.9846  0.2269
13178TIP3    H161025   5.896   2.125   2.635  0.7998 -0.3971  0.1926
13178TIP3    H261026   5.859   2.067   2.770  1.3011 -0.3099  0.3687
13179TIP3   OH261027   2.894   4.626  16.277 -0.3188 -0.5229 -0.1921
13179TIP3    H161028   2.829   4.597  16.340  0.4229 -0.0331  0.8237
13179TIP3    H261029   2.925   4.710  16.311  1.1648 -0.9581 -0.4051
13180TIP3   OH261030   2.018   6.777   5.526 -0.4391  0.5449 -0.1240
13180TIP3    H161031   1.956   6.721   5.480  1.0377  0.9198 -2.7340
13180TIP3    H261032   2.093   6.721   5.543 -1.0436  0.3418  2.1923
13181TIP3   OH261033   5.180   6.304  12.663  0.0396 -0.2234 -0.1902
13181TIP3    H161034   5.213   6.333  12.578  1.9330 -0.2512  0.4868
13181TIP3    H261035   5.246   6.241  12.694 -0.2097  0.3505  1.6096
13182TIP3   OH261036   6.729   1.032   2.100  0.3149 -0.0418 -0.7071
13182TIP3    H161037   6.653   1.068   2.147  1.0132 -0.2806  0.6431
13182TIP3    H261038   6.693   0.960   2.049 -0.5428  0.4936 -0.8816
13183TIP3   OH261039   2.857   6.437  12.357 -0.2688  0.7317  0.0656
13183TIP3    H161040   2.762   6.446  12.368 -0.1616 -0.0611  2.0936
13183TIP3    H261041   2.892   6.524  12.378 -0.4193  0.4279  1.6912
13184TIP3   OH261042   4.643   5.521   0.450  0.4381  0.5270  0.2358
13184TIP3    H161043   4.730   5.558   0.460  0.8377 -0.2256 -0.3676
13184TIP3    H261044   4.600   5.536   0.535  1.3358  0.4281  0.7151
13185TIP3   OH261045   0.427   2.235   6.127 -0.1749 -0.7635  0.2168
13185TIP3    H161046   0.446   2.325   6.151  1.8717 -0.8382 -0.8936
13185TIP3    H261047   0.331   2.230   6.124 -0.3610  0.8677  2.0034
13186TIP3   OH261048   4.708   1.515  14.388  0.5938  0.0500  0.3214
13186TIP3    H161049   4.685   1.607  14.389 -0.8220 -0.2535  2.3824
13186TIP3    H261050   4.791   1.510  14.436  1.0705  0.3228 -0.4664
13187TIP3   OH261051   0.809   6.599   1.227  0.3006 -0.6214  0.3433
13187TIP3    H161052   0.765   6.523   1.189  0.3319 -0.6989  0.4610
13187TIP3    H261053   0.869   6.629   1.159  0.6722 -1.0207  0.4922
13188TIP3   OH261054   5.641   2.552  15.297  0.2866 -0.6627 -0.2052
13188TIP3    H161055   5.729   2.523  15.272 -0.2865 -1.6397 -1.1950
13188TIP3    H261056   5.586   2.526  15.223 -0.9932 -0.9194  0.8069
13189TIP3   OH261057   5.414   2.238  11.724  0.0852 -0.1816 -0.3565
13189TIP3    H161058   5.395   2.278  11.809 -0.0941  1.0696 -0.9597
13189TIP3    H261059   5.351   2.167  11.716  0.8079 -1.0238  1.0083
13190TIP3   OH261060   3.824   1.827  16.881  0.4148  0.2281  0.3110
13190TIP3    H161061   3.790   1.846  16.969 -2.5368 -2.2638 -0.1121
13190TIP3    H261062   3.883   1.753  16.894 -0.3598 -0.4282  0.2184
13191TIP3   OH261063   3.802   3.773  11.606 -0.3264  0.3763 -0.0804
13191TIP3    H161064   3.876   3.731  11.650 -0.6207 -0.2569 -0.1745
13191TIP3    H261065   3.729   3.712  11.619 -0.7730  0.8861 -0.1824
13192TIP3   OH261066   0.291   3.918  12.762 -0.3942 -0.0313  0.6086
13192TIP3    H161067   0.285   3.966  12.679  2.0215  0.1491  0.4415
13192TIP3    H261068   0.338   3.838  12.739  0.2432 -0.0132  1.7782
13193TIP3   OH261069   0.428   0.169   2.342 -0.1618 -0.4950  0.7436
13193TIP3    H161070   0.409   0.119   2.421 -1.7684 -1.2335 -0.0615
13193TIP3    H261071   0.448   0.104   2.276 -3.8921 -0.3713 -0.7542
13194TIP3   OH261072   5.537   1.514  15.229 -0.6229 -0.2386 -0.8363
13194TIP3    H161073   5.535   1.468  15.312 -0.7624 -0.2256 -0.8326
13194TIP3    H261074   5.579   1.453  15.168  0.6201  0.2160 -0.4724
13195TIP3   OH261075   0.927   0.892   3.875 -0.3759 -0.1512  0.0761
13195TIP3    H161076   1.021   0.876   3.882 -0.2556  0.5408  0.0522
13195TIP3    H261077   0.888   0.805   3.887  0.2804 -0.5155 -0.3303
13196TIP3   OH261078   3.361   6.574   2.450  0.0980  0.1462  0.6350
13196TIP3    H161079   3.274   6.611   2.461  1.6797  4.2153  1.1470
13196TIP3    H261080   3.393   6.558   2.538 -0.2765 -1.9782  0.4364
13197TIP3   OH261081   3.728   3.841   2.054  0.2988 -0.0731 -0.2994
13197TIP3    H161082   3.791   3.883   2.112 -0.4371  0.2250  0.3019
13197TIP3    H261083   3.696   3.766   2.104 -0.5968  0.3828 -0.1733
13198TIP3   OH261084   3.764   4.418   1.719  0.4253  0.0877 -0.6710
13198TIP3    H161085   3.700   4.348   1.707 -0.4046  0.2021  2.4133
13198TIP3    H261086   3.794   4.438   1.630 -1.5145 -2.0861 -1.9240
13199TIP3   OH261087   1.849   4.416  16.808 -0.6205  0.8524 -0.0278
13199TIP3    H161088   1.804   4.431  16.725  3.5450 -0.9333 -2.9129
13199TIP3    H261089   1.914   4.485  16.813  1.3699 -0.9243 -0.0756
13200TIP3   OH261090   1.039   2.205  11.404  0.1650  0.2417  0.2361
13200TIP3    H161091   1.080   2.124  11.435 -0.4695 -0.8380 -1.5748
13200TIP3    H261092   0.954   2.177  11.370 -0.9535  2.0145  1.4082
13201TIP3   OH261093   3.059   4.487   4.099  0.7876 -0.1182 -0.7616
13201TIP3    H161094   3.085   4.448   4.183 -1.6378  0.3347  0.2710
13201TIP3    H261095   3.037   4.412   4.044 -1.3289 -0.3917  0.3509
13202TIP3   OH261096   0.889   0.166   2.838  0.4578  0.1311 -0.0494
13202TIP3    H161097   0.855   0.145   2.924  0.3754 -0.5657 -0.2384
13202TIP3    H261098   0.949   0.239   2.852  0.3709  0.0828  0.5815
13203TIP3   OH261099   5.274   3.619  11.282  0.3942 -0.2272  0.6229
13203TIP3    H161100   5.211   3.559  11.243  0.3307 -1.0208  1.9066
13203TIP3    H261101   5.307   3.671  11.208 -0.4686 -0.9864 -0.3116
13204TIP3   OH261102   2.021   5.192  13.521 -0.2931  0.0211 -0.7238
13204TIP3    H161103   2.052   5.174  13.432  1.8055  0.6122 -0.1755
13204TIP3    H261104   2.037   5.110  13.569 -0.9366 -0.1285 -0.7591
13205TIP3   OH261105   3.972   0.627  15.819  0.0526  0.2554 -0.9894
13205TIP3    H161106   3.992   0.696  15.755 -1.5405  2.3342  0.6148
13205TIP3    H261107   3.892   0.586  15.786 -1.5152  2.1896  0.1850
13206TIP3   OH261108   1.411   0.230   3.486  0.1592 -0.5570  0.1113
13206TIP3    H161109   1.375   0.317   3.503  0.5088  0.1845 -2.4724
13206TIP3    H261110   1.343   0.170   3.518 -0.4660  0.6486  1.1682
13207TIP3   OH261111   4.570   6.632   1.534  0.3260  0.2855  0.5437
13207TIP3    H161112   4.530   6.600   1.615  0.4209 -0.4624  0.2945
13207TIP3    H261113   4.615   6.556   1.497 -2.4575 -0.3342 -1.9372
13208TIP3   OH261114   2.926   0.950  16.055 -0.5092 -0.3720 -0.1567
13208TIP3    H161115   2.951   0.953  15.962 -0.2270  1.4841 -0.0523
13208TIP3    H261116   2.905   0.858  16.071  1.0731 -1.0462 -1.6345
13209TIP3   OH261117   0.889   5.643   0.407  0.3873  0.3371  0.3196
13209TIP3    H161118   0.817   5.650   0.344  0.7437 -1.5721 -0.3648
13209TIP3    H261119   0.966   5.671   0.357  0.6298 -0.9385 -0.0648
13210TIP3   OH261120   2.830   1.404  12.740  0.0977  0.2120 -0.0942
13210TIP3    H161121   2.897   1.352  12.783 -0.2659 -1.6007 -1.5901
13210TIP3    H261122   2.752   1.394  12.795  0.4279  0.4750  0.4350
13211TIP3   OH261123   4.551   0.844   5.254  0.0044 -0.4866  0.0598
13211TIP3    H161124   4.531   0.796   5.334 -0.2301  1.0536  0.9431
13211TIP3    H261125   4.643   0.821   5.236 -0.0875 -1.2360  0.4665
13212TIP3   OH261126   3.379   3.525  12.801  0.0098 -0.1095 -0.0675
13212TIP3    H161127   3.407   3.541  12.711 -0.1563 -0.6129 -0.2096
13212TIP3    H261128   3.383   3.430  12.811  2.5123  0.0390  1.2591
13213TIP3   OH261129   0.127   6.085   2.236  0.1368  0.0228  0.1571
13213TIP3    H161130   0.147   6.069   2.329 -0.1943  0.1190  0.2447
13213TIP3    H261131   0.105   5.999   2.201 -0.3891  0.0855  0.3261
13214TIP3   OH261132   4.244   6.278  15.554  0.5830  0.3690  0.1742
13214TIP3    H161133   4.299   6.234  15.618 -2.1884 -3.0160  0.5338
13214TIP3    H261134   4.216   6.359  15.597  2.3948  0.4217  1.3292
13215TIP3   OH261135   4.016   2.804  15.133 -0.4726 -0.3017  0.1234
13215TIP3    H161136   3.932   2.829  15.171  0.4287 -0.5603  2.4332
13215TIP3    H261137   4.053   2.741  15.195  0.4312 -1.9969 -1.9820
13216TIP3   OH261138   2.450   2.477  16.502  0.1006  0.2076  0.0786
13216TIP3    H161139   2.425   2.542  16.437  1.3122 -0.2137 -0.8535
13216TIP3    H261140   2.485   2.404  16.450 -2.4150 -1.8022  0.9667
13217TIP3   OH261141   6.239   6.592   3.050  0.3376  0.3380 -0.1529
13217TIP3    H161142   6.170   6.642   3.094 -1.1146 -2.7340  1.3615
13217TIP3    H261143   6.302   6.573   3.119 -0.4214 -1.9520 -0.0043
13218TIP3   OH261144   2.421   4.512  15.464 -1.0046  0.3553 -0.0369
13218TIP3    H161145   2.468   4.429  15.454 -0.5440  0.4508  1.2507
13218TIP3    H261146   2.353   4.508  15.397 -1.8593 -1.6639  0.8882
13219TIP3   OH261147   6.454   2.370   6.212 -0.0267 -0.0687 -0.0418
13219TIP3    H161148   6.537   2.324   6.203 -0.4028 -0.9679  0.8705
13219TIP3    H261149   6.399   2.311   6.265 -1.8126 -0.2556 -1.9724
13220TIP3   OH261150   1.214   0.623   1.657  0.1453 -0.0214  0.3613
13220TIP3    H161151   1.154   0.668   1.716 -0.2626 -0.0547 -0.0249
13220TIP3    H261152   1.168   0.620   1.573  0.3895 -0.6819  0.2431
13221TIP3   OH261153   4.349   3.300   3.679 -0.3487  0.0483 -0.1331
13221TIP3    H161154   4.440   3.302   3.652  0.0421 -2.2845  0.8028
13221TIP3    H261155   4.340   3.374   3.739  1.3065 -0.4276  0.7719
13222TIP3   OH261156   4.405   1.660   0.434 -0.0825 -0.0842 -0.2002
13222TIP3    H161157   4.423   1.659   0.340  0.5922 -0.7002 -0.0748
13222TIP3    H261158   4.339   1.728   0.445 -0.4207 -0.2398 -1.1659
13223TIP3   OH261159   1.186   6.379   5.773 -0.6570  0.5666 -0.2159
13223TIP3    H161160   1.185   6.471   5.747  0.5902  0.7186  0.2223
13223TIP3    H261161   1.192   6.381   5.868  4.4645  0.2115 -0.2293
13224TIP3   OH261162   6.156   3.098   0.172  0.0653  0.4112  0.3216
13224TIP3    H161163   6.229   3.144   0.214 -0.4394 -1.2166  3.2382
13224TIP3    H261164   6.197   3.049   0.101  1.1640  2.3329 -0.4713
13225TIP3   OH261165   3.046   6.263   5.499 -0.2687  0.2293  0.0483
13225TIP3    H161166   2.951   6.252   5.510 -0.2016 -1.4442 -0.7894
13225TIP3    H261167   3.065   6.229   5.412  1.4164 -1.7412  1.0907
13226TIP3   OH261168   5.047   6.664   3.111 -0.1908 -0.8475  0.5057
13226TIP3    H161169   4.980   6.688   3.175  1.4105 -1.5212  2.5469
13226TIP3    H261170   5.022   6.576   3.081 -2.5906  0.5953 -2.2161
13227TIP3   OH261171   0.422   6.305   3.119  0.0815 -0.1338 -0.0976
13227TIP3    H161172   0.454   6.286   3.031  0.1348  0.1880 -0.1466
13227TIP3    H261173   0.475   6.379   3.149 -0.0234 -0.1595  0.1550
13228TIP3   OH261174   4.029   5.425  11.892  0.6507  0.3728  0.2114
13228TIP3    H161175   4.105   5.456  11.940  1.1779  0.9559 -0.9421
13228TIP3    H261176   4.065   5.376  11.818 -0.0996  0.3315 -0.1425
13229TIP3   OH261177   2.745   2.624  13.290  0.1959 -0.4017 -0.1274
13229TIP3    H161178   2.754   2.692  13.357 -0.5066  0.5158 -0.9355
13229TIP3    H261179   2.835   2.595  13.274  0.9698  2.5841 -2.0127
13230TIP3   OH261180   3.196   3.564   5.201  0.4666 -0.4705  0.5698
13230TIP3    H161181   3.290   3.580   5.208  0.2163  1.4863  0.0634
13230TIP3    H261182   3.168   3.542   5.289  1.2686 -0.2177  0.8900
13231TIP3   OH261183   3.531   5.352   1.886  0.0778  0.5306  0.3973
13231TIP3    H161184   3.535   5.428   1.826  1.9553  0.2940  0.1589
13231TIP3    H261185   3.526   5.391   1.973 -2.3143  0.8820  0.1686
13232TIP3   OH261186   1.642   1.373   5.154  0.7216 -1.1307  0.2566
13232TIP3    H161187   1.700   1.337   5.087 -0.2311  0.9702 -1.8396
13232TIP3    H261188   1.611   1.297   5.202  1.7190 -2.7019 -1.4629
13233TIP3   OH261189   1.065   1.134  11.783 -0.0409  0.4039  0.1563
13233TIP3    H161190   1.040   1.164  11.696 -0.3603  0.3639  0.2329
13233TIP3    H261191   1.052   1.039  11.780  0.8436  0.2761 -0.0474
13234TIP3   OH261192   0.455   5.576   3.866 -0.5101 -0.1428  0.5164
13234TIP3    H161193   0.393   5.543   3.801 -0.8970  1.4238  0.0677
13234TIP3    H261194   0.511   5.636   3.817  0.8200 -0.8471  1.1123
13235TIP3   OH261195   3.986   6.541  14.142 -0.2698 -0.0395  0.4386
13235TIP3    H161196   4.065   6.586  14.172 -0.2680  0.3267 -0.1127
13235TIP3    H261197   4.019   6.472  14.084 -0.1566 -1.7238  2.3655
13236TIP3   OH261198   0.206   5.439   3.401 -0.5736  0.1088 -0.1591
13236TIP3    H161199   0.192   5.359   3.350 -0.6733  0.1946 -0.2649
13236TIP3    H261200   0.124   5.487   3.394 -1.0084 -0.4366  1.0739
13237TIP3   OH261201   3.607   0.050  14.303 -0.0854  0.3775  0.0353
13237TIP3    H161202   3.530   0.079  14.254 -0.3523  0.3338  0.4210
13237TIP3    H261203   3.646  -0.019  14.249 -1.4082 -0.9570  0.7144
13238TIP3   OH261204   2.560   3.968  15.595  0.4219 -0.3417 -0.2417
13238TIP3    H161205   2.613   3.904  15.549  1.7376 -0.1981  1.0070
13238TIP3    H261206   2.605   4.051  15.581  0.1423 -0.1051  0.2511
13239TIP3   OH261207   1.609   2.669  16.944  0.0494 -0.0058 -0.5112
13239TIP3    H161208   1.653   2.587  16.922 -2.1836 -2.4414  3.0419
13239TIP3    H261209   1.669   2.712  17.006  0.1263 -0.2320 -0.4293
13240TIP3   OH261210   5.574   4.215   2.849 -0.0731 -0.2422  0.3113
13240TIP3    H161211   5.583   4.173   2.935 -0.0445  1.0015  0.9413
13240TIP3    H261212   5.487   4.191   2.819 -1.2291  1.5747  1.9904
13241TIP3   OH261213   6.329   6.807   2.814  0.4241 -0.4232 -0.4991
13241TIP3    H161214   6.416   6.784   2.844  2.1533  0.7356 -4.0254
13241TIP3    H261215   6.306   6.739   2.750 -0.0199  0.6961 -1.5847
13242TIP3   OH261216   1.695   2.510  10.563 -0.1494 -0.0470 -0.1510
13242TIP3    H161217   1.727   2.571  10.630 -0.5182  1.7924 -1.5690
13242TIP3    H261218   1.727   2.547  10.480  0.3070 -2.2593 -1.0243
13243TIP3   OH261219   4.991   0.474   3.358 -0.2751 -0.6572 -0.4285
13243TIP3    H161220   5.006   0.391   3.312 -0.2122 -1.9552  1.8197
13243TIP3    H261221   4.897   0.487   3.355 -0.3486 -1.1512 -0.2203
13244TIP3   OH261222   3.979   1.168   4.198 -0.6800  0.0880 -0.0807
13244TIP3    H161223   3.975   1.257   4.233 -1.8504  1.1255 -2.5778
13244TIP3    H261224   3.934   1.114   4.263 -3.1476  1.9701 -0.0965
13245TIP3   OH261225   6.350   1.990  15.771 -0.0471 -0.6171 -0.2752
13245TIP3    H161226   6.317   2.001  15.860  1.6519  0.3130  0.2738
13245TIP3    H261227   6.444   1.978  15.782  0.1656 -0.6406 -1.9548
13246TIP3   OH261228   0.171   4.580   1.827 -0.6178 -0.3073 -0.2576
13246TIP3    H161229   0.110   4.649   1.801 -0.0843  0.2626 -0.0238
13246TIP3    H261230   0.243   4.588   1.766  0.5463  0.8990  1.1914
13247TIP3   OH261231   4.761   3.465   0.699 -0.0096  0.1594 -0.0806
13247TIP3    H161232   4.801   3.540   0.654  0.9959 -0.0728  0.4092
13247TIP3    H261233   4.803   3.388   0.659  0.6481 -0.0622  1.0098
13248TIP3   OH261234   1.493   4.876  14.202  0.1740 -0.0706  0.2344
13248TIP3    H161235   1.477   4.857  14.110 -1.1881  0.7860  0.2797
13248TIP3    H261236   1.559   4.811  14.228 -0.1028 -0.9203 -1.0917
13249TIP3   OH261237   1.771   2.845   3.671 -0.7176 -0.3823 -0.2449
13249TIP3    H161238   1.815   2.777   3.620  0.3235  0.9834 -1.2462
13249TIP3    H261239   1.737   2.800   3.748 -0.1877 -2.0482 -0.9568
13250TIP3   OH261240   1.549   4.543  10.671  0.2592 -0.4141 -0.4352
13250TIP3    H161241   1.582   4.631  10.686  0.7842 -0.6438 -0.2006
13250TIP3    H261242   1.532   4.538  10.577  1.0981 -0.3561 -0.5953
13251TIP3   OH261243   3.975   3.842   4.619 -0.0593  0.0857 -1.0281
13251TIP3    H161244   4.016   3.779   4.559  1.3942 -0.0205  0.0299
13251TIP3    H261245   4.036   3.849   4.692 -1.4297  0.7931  0.1023
13252TIP3   OH261246   4.627   1.724   3.958  0.1642 -0.0491  0.4562
13252TIP3    H161247   4.656   1.791   4.020  0.3151  0.9563 -0.6659
13252TIP3    H261248   4.552   1.683   4.001 -0.6304  1.5968  0.7185
13253TIP3   OH261249   0.615   5.489   2.113  0.6572 -0.5133 -0.0086
13253TIP3    H161250   0.577   5.401   2.108 -0.0268 -0.2735  0.8067
13253TIP3    H261251   0.661   5.491   2.196 -1.3865  0.6613  1.1965
13254TIP3   OH261252   3.924   6.176   4.148 -0.0270  0.3764  0.2794
13254TIP3    H161253   4.015   6.193   4.174  0.4326 -0.3540 -0.8000
13254TIP3    H261254   3.887   6.127   4.222  0.7092 -0.0641  0.3674
13255TIP3   OH261255   1.685   4.399  14.047 -0.2756 -0.1537  0.6217
13255TIP3    H161256   1.631   4.351  14.109 -0.6999 -1.7564 -0.9171
13255TIP3    H261257   1.638   4.482  14.033 -0.5131 -0.0652  1.8945
13256TIP3   OH261258   6.292   0.880   5.544  0.0482 -0.3434  0.1379
13256TIP3    H161259   6.379   0.868   5.582 -0.0702 -0.6662  0.3163
13256TIP3    H261260   6.255   0.791   5.542 -0.3876 -0.1690  0.3338
13257TIP3   OH261261   4.264   2.292   2.497 -0.1787 -0.0131 -0.3045
13257TIP3    H161262   4.193   2.356   2.497  0.4039  0.6650 -1.4635
13257TIP3    H261263   4.240   2.230   2.566 -0.7160  1.4890  0.9239
13258TIP3   OH261264   6.222   3.759  14.000  0.3926 -0.0660 -0.5658
13258TIP3    H161265   6.306   3.755  13.954 -0.5690  1.1195 -2.5676
13258TIP3    H261266   6.156   3.751  13.930 -1.1679  1.2675  0.6741
13259TIP3   OH261267   2.131   2.118  12.659  0.3893 -0.5268  0.0173
13259TIP3    H161268   2.110   2.051  12.724 -2.5771 -0.6698 -0.9307
13259TIP3    H261269   2.120   2.201  12.705  1.9398 -0.6089  0.6065
13260TIP3   OH261270   0.714   5.832   5.503  1.2634 -0.2985 -0.0631
13260TIP3    H161271   0.707   5.844   5.598 -3.6047 -0.1143 -0.1894
13260TIP3    H261272   0.721   5.920   5.468  0.5027 -0.1622  0.1024
13261TIP3   OH261273   4.156   4.730   3.291 -0.3436  0.6641 -0.3251
13261TIP3    H161274   4.206   4.777   3.358  0.6129  0.0788 -0.6026
13261TIP3    H261275   4.075   4.780   3.282  0.5601  2.1545 -0.4969
13262TIP3   OH261276   1.447   2.450  14.571 -0.1892  0.0341  0.2345
13262TIP3    H161277   1.444   2.531  14.521  1.4498  0.2139  0.3722
13262TIP3    H261278   1.363   2.447  14.616 -1.2778  0.4066 -1.6495
13263TIP3   OH261279   6.415   2.493  12.886  0.3564  0.1977 -0.6126
13263TIP3    H161280   6.327   2.479  12.922  1.0837  1.0630  1.6356
13263TIP3    H261281   6.458   2.408  12.896 -0.3950 -0.4627 -2.4472
13264TIP3   OH261282   4.837   1.955   1.220  0.0083 -0.0601 -0.4063
13264TIP3    H161283   4.867   2.000   1.141  0.5231  0.1727 -0.0895
13264TIP3    H261284   4.795   1.875   1.188  0.2043  0.0364 -0.9166
13265TIP3   OH261285   2.227   5.267  11.640 -0.3138 -0.7616  0.2882
13265TIP3    H161286   2.271   5.300  11.561  1.5352  0.0211  1.5728
13265TIP3    H261287   2.194   5.181  11.615 -0.7710 -0.0868 -1.6520
13266TIP3   OH261288   6.586   6.275  14.175  0.1749 -0.4596  0.2635
13266TIP3    H161289   6.500   6.284  14.216  0.0583 -1.6752  0.3313
13266TIP3    H261290   6.626   6.362  14.183 -1.0435  0.1235  0.2182
13267TIP3   OH261291   3.982   4.771  13.386 -0.1501 -0.6571 -0.3552
13267TIP3    H161292   4.056   4.826  13.413 -1.1172  0.2965  0.4438
13267TIP3    H261293   3.933   4.825  13.324 -1.1333 -0.5656  0.4660
13268TIP3   OH261294   1.233   0.293  16.823 -0.0755 -0.3885  1.1191
13268TIP3    H161295   1.301   0.230  16.846  0.3085 -0.3902  0.0139
13268TIP3    H261296   1.204   0.328  16.907  2.1096  0.4843  1.5644
13269TIP3   OH261297   1.825   2.551  11.209  0.5850  0.2579  0.5225
13269TIP3    H161298   1.802   2.536  11.301 -1.2862  2.3902  0.4884
13269TIP3    H261299   1.893   2.618  11.213  2.9460 -1.9521  0.3728
13270TIP3   OH261300   1.928   3.672   1.947 -0.2562 -0.3551 -0.2221
13270TIP3    H161301   1.960   3.685   2.036 -1.5129 -1.2183  0.3740
13270TIP3    H261302   1.992   3.717   1.892  2.0153 -1.9800  0.9035
13271TIP3   OH261303   1.976   0.833   3.899 -0.4908  1.2480 -0.0364
13271TIP3    H161304   1.917   0.861   3.968 -2.2007  0.5435 -1.1446
13271TIP3    H261305   1.947   0.880   3.821 -0.2143  0.1795 -0.8142
13272TIP3   OH261306   6.137   5.408   0.390 -0.0175  0.0803  0.4817
13272TIP3    H161307   6.133   5.347   0.317  1.3166  0.0947  0.3759
13272TIP3    H261308   6.196   5.477   0.360 -1.0343  1.1271  0.8246
13273TIP3   OH261309   6.787   4.695   2.931  0.2409  0.4114 -0.0664
13273TIP3    H161310   6.855   4.750   2.969  1.7999  0.0412 -2.1509
13273TIP3    H261311   6.708   4.716   2.982  1.9864  0.3600  2.8792
13274TIP3   OH261312   1.863   1.518  17.109  0.0060 -0.0820 -0.2247
13274TIP3    H161313   1.872   1.430  17.071  0.6615  0.1230 -0.5707
13274TIP3    H261314   1.860   1.503  17.203 -3.5301 -0.7546 -0.3282
13275TIP3   OH261315   2.195   3.199  14.403 -0.2516 -0.1682 -0.0358
13275TIP3    H161316   2.116   3.164  14.360 -0.8580  0.5640  0.4474
13275TIP3    H261317   2.204   3.147  14.482  0.1064 -0.6520 -0.3898
13276TIP3   OH261318   2.623   2.940  10.889 -0.1928 -0.5092 -0.6288
13276TIP3    H161319   2.558   2.876  10.862 -0.9259 -0.1991  0.3281
13276TIP3    H261320   2.703   2.917  10.841 -0.3333 -2.3514 -0.0345
13277TIP3   OH261321   0.489   1.773  15.709 -0.4690  0.5946  0.0830
13277TIP3    H161322   0.545   1.804  15.780 -0.2148  2.1446 -0.7463
13277TIP3    H261323   0.532   1.693  15.677  1.3473  1.7730 -0.5795
13278TIP3   OH261324   2.214   1.919   2.925  0.2838 -0.1262  0.3431
13278TIP3    H161325   2.205   1.964   3.008 -1.0519 -0.4247  0.4003
13278TIP3    H261326   2.266   1.841   2.945  0.2686 -0.0151  0.8295
13279TIP3   OH261327   2.877   1.968  11.471 -0.3853  0.5935 -0.2684
13279TIP3    H161328   2.875   1.874  11.489  1.3551  0.9782  2.5761
13279TIP3    H261329   2.830   1.978  11.388 -1.6349 -2.6127 -0.0754
13280TIP3   OH261330   0.450   4.650   4.645  0.0004  0.4073  0.8101
13280TIP3    H161331   0.473   4.679   4.556 -0.6328  0.1060  0.5439
13280TIP3    H261332   0.513   4.580   4.664 -0.8810 -0.6338 -0.0408
13281TIP3   OH261333   0.270   0.948   3.420 -0.0646 -0.1506 -0.3385
13281TIP3    H161334   0.346   0.973   3.472 -0.5193 -0.3311  0.4322
13281TIP3    H261335   0.195   0.977   3.471 -0.5181  0.1865 -1.1761
13282TIP3   OH261336   1.182   4.230   5.835 -0.8411 -0.0938 -0.4631
13282TIP3    H161337   1.119   4.197   5.899 -2.5181 -1.5149 -2.6817
13282TIP3    H261338   1.252   4.165   5.835  0.1297  0.8742  1.1569
13283TIP3   OH261339   0.035   4.382  11.227 -0.3819 -0.3505 -0.2030
13283TIP3    H161340  -0.006   4.349  11.147 -3.0978 -1.8509  1.6569
13283TIP3    H261341   0.111   4.432  11.196 -0.9841 -1.3088 -3.6407
13284TIP3   OH261342   2.664   0.224  11.844  0.5395  0.6711 -0.0691
13284TIP3    H161343   2.628   0.158  11.784 -2.1061  2.8908 -1.1488
13284TIP3    H261344   2.719   0.279  11.788 -1.3417  2.3035 -0.4326
13285TIP3   OH261345   1.809   1.170   5.126  0.7708  0.3637  0.1498
13285TIP3    H161346   1.872   1.098   5.123  0.6218  0.2073  0.7058
13285TIP3    H261347   1.735   1.135   5.176  0.2499  0.5554 -0.4779
13286TIP3   OH261348   6.598   2.632  13.962 -0.2475  0.3789  1.2521
13286TIP3    H161349   6.648   2.704  14.000  0.6763  0.6722 -0.3999
13286TIP3    H261350   6.625   2.630  13.870 -0.0116 -2.2577  1.2846
13287TIP3   OH261351   6.263   6.653  12.995  0.1123  0.2850 -0.1118
13287TIP3    H161352   6.285   6.705  13.072  0.3839 -2.0996  1.5416
13287TIP3    H261353   6.333   6.671  12.933  2.5732 -1.1612  2.0170
13288TIP3   OH261354   5.571   5.370  17.102  0.1738 -0.4606  0.2979
13288TIP3    H161355   5.664   5.365  17.126 -0.1810 -2.0172  1.4963
13288TIP3    H261356   5.524   5.362  17.185 -1.0595  1.7794 -0.1029
13289TIP3   OH261357   2.245   6.316   3.176 -0.0784 -0.1676 -0.1415
13289TIP3    H161358   2.161   6.280   3.205 -0.1228 -0.5051 -0.6776
13289TIP3    H261359   2.263   6.387   3.237 -1.3940  0.7676 -0.8025
13290TIP3   OH261360   1.106   1.818   0.955  0.4597 -0.0044 -0.1688
13290TIP3    H161361   1.084   1.725   0.950 -0.7131  0.2876 -0.7727
13290TIP3    H261362   1.163   1.833   0.880  1.3847 -0.4096  0.4361
13291TIP3   OH261363   4.572   0.732  14.773 -0.1841  0.0571 -0.1499
13291TIP3    H161364   4.551   0.661  14.833 -0.6821 -0.2343 -0.6509
13291TIP3    H261365   4.652   0.771  14.808 -0.4204 -0.1592  0.6439
13292TIP3   OH261366   0.291   0.088  14.105  0.5732 -0.2644 -0.1131
13292TIP3    H161367   0.294   0.002  14.149 -0.6437 -0.8009 -1.0184
13292TIP3    H261368   0.263   0.068  14.016 -0.7891  1.1724 -0.0485
13293TIP3   OH261369   0.829   1.201  16.850 -0.6228 -0.1879 -0.4353
13293TIP3    H161370   0.829   1.290  16.886 -0.4850  0.2556 -1.5139
13293TIP3    H261371   0.921   1.179  16.840 -0.5914 -1.1946  1.5553
13294TIP3   OH261372   0.617   2.104   6.257 -0.4031 -0.2079 -0.4959
13294TIP3    H161373   0.567   2.029   6.290 -1.7966  0.2582 -1.4414
13294TIP3    H261374   0.558   2.146   6.194  1.4129  0.0308 -2.1341
13295TIP3   OH261375   1.479   5.602   5.793  0.0829 -0.2224  0.1246
13295TIP3    H161376   1.477   5.616   5.888  1.7905 -2.0822  0.4882
13295TIP3    H261377   1.504   5.511   5.782  2.2472  0.5122 -2.1012
13296TIP3   OH261378   0.810   5.825  13.873 -0.1477  0.3110 -0.3698
13296TIP3    H161379   0.756   5.851  13.948 -0.7009  0.4404 -0.8003
13296TIP3    H261380   0.751   5.835  13.798  0.2933 -0.1574 -0.7772
13297TIP3   OH261381   4.183   3.500  17.008  0.2192  0.0593 -0.5790
13297TIP3    H161382   4.274   3.470  17.007  0.5176  0.9306 -0.7541
13297TIP3    H261383   4.132   3.423  16.988  0.8341 -0.7453  0.7942
13298TIP3   OH261384   4.052   2.604   6.521  0.3868  0.1420 -0.3811
13298TIP3    H161385   3.973   2.650   6.552  0.3247 -0.8284  0.9502
13298TIP3    H261386   4.106   2.674   6.482 -0.0726  1.2181  0.8449
13299TIP3   OH261387   2.527   1.621   0.275  0.1905 -0.4213 -0.3957
13299TIP3    H161388   2.573   1.548   0.233  0.4100 -1.2683  1.2293
13299TIP3    H261389   2.531   1.692   0.211  1.9582 -1.1218 -1.1391
13300TIP3   OH261390   3.377   5.066  12.064  1.0105  0.2106  0.0168
13300TIP3    H161391   3.381   5.039  11.972  1.2800 -0.1895  0.1418
13300TIP3    H261392   3.286   5.093  12.077  0.7085 -0.6997 -0.1061
13301TIP3   OH261393   5.185   6.042   1.281  0.3781  0.3240 -0.1250
13301TIP3    H161394   5.242   6.019   1.207 -0.5974  1.0109 -1.1416
13301TIP3    H261395   5.119   5.973   1.283 -0.7267  1.2847 -1.1855
13302TIP3   OH261396   0.367   4.153  15.131 -0.2111 -0.4169 -0.1914
13302TIP3    H161397   0.422   4.210  15.185 -0.7476  1.9928 -2.0039
13302TIP3    H261398   0.429   4.111  15.071 -0.0178 -0.2118 -0.1389
13303TIP3   OH261399   6.329   4.115  17.188 -0.2112 -0.6840  0.7594
13303TIP3    H161400   6.392   4.186  17.178  0.2759 -1.0075  1.4924
13303TIP3    H261401   6.251   4.146  17.141  0.7508 -0.6350 -0.8361
13304TIP3   OH261402   4.984   0.619   0.545 -0.2394 -0.0979 -0.1979
13304TIP3    H161403   5.058   0.667   0.507 -0.3239  0.4185  0.2731
13304TIP3    H261404   4.907   0.668   0.516 -0.3799 -0.4456 -0.4176
13305TIP3   OH261405   2.789   3.083  14.092 -0.7623  0.1815 -0.5868
13305TIP3    H161406   2.697   3.096  14.069 -1.1751 -0.1642  0.7455
13305TIP3    H261407   2.789   3.079  14.188  0.4218 -1.3288 -0.6072
13306TIP3   OH261408   5.029   3.973  15.625 -0.0281 -0.1394 -0.4886
13306TIP3    H161409   4.988   3.896  15.666 -0.9494  0.1654 -0.8104
13306TIP3    H261410   4.995   3.973  15.536  0.1472  0.5168 -0.5580
13307TIP3   OH261411   4.621   1.476   1.870  0.4016  0.7528  0.1484
13307TIP3    H161412   4.666   1.398   1.838  2.3587  1.2930  1.4348
13307TIP3    H261413   4.596   1.524   1.791  0.7081 -0.3337 -0.6237
13308TIP3   OH261414   3.665   6.287  15.774 -0.1301  0.2104 -0.1020
13308TIP3    H161415   3.705   6.339  15.843  0.3601  1.8874 -1.5484
13308TIP3    H261416   3.597   6.344  15.738 -1.4229 -1.2217 -0.0127
13309TIP3   OH261417   5.934   2.711  11.134  0.2810 -0.2801 -0.0836
13309TIP3    H161418   5.891   2.778  11.081  0.4044 -0.0661  0.0801
13309TIP3    H261419   6.018   2.751  11.158  0.7899 -0.8838 -0.8122
13310TIP3   OH261420   1.199   1.565  11.114  0.2952 -0.1629  0.1019
13310TIP3    H161421   1.189   1.565  11.018 -0.0158  0.5667  0.1279
13310TIP3    H261422   1.222   1.475  11.135 -2.4449 -1.0518 -0.3679
13311TIP3   OH261423   0.468   1.114   2.059  0.1364  0.0565 -0.6892
13311TIP3    H161424   0.412   1.101   1.983 -0.4795 -3.7540  0.2230
13311TIP3    H261425   0.545   1.061   2.041  1.4147  1.5298  0.1148
13312TIP3   OH261426   1.642   5.494   1.254 -0.2441  0.1238 -0.0902
13312TIP3    H161427   1.672   5.478   1.164 -0.5776 -0.3879 -0.1161
13312TIP3    H261428   1.710   5.456   1.309 -0.1341  0.2618 -0.1331
13313TIP3   OH261429   4.324   2.962  14.948 -0.3226  0.0599  0.7223
13313TIP3    H161430   4.293   2.939  14.860 -0.4504 -0.9527  1.0133
13313TIP3    H261431   4.394   3.025  14.933  0.8070 -1.3443 -0.2208
13314TIP3   OH261432   2.541   6.647   2.514  0.1677  0.0538 -0.7580
13314TIP3    H161433   2.546   6.686   2.602  1.5001  1.4844 -1.4284
13314TIP3    H261434   2.604   6.575   2.516 -1.3264 -1.3145  0.0603
13315TIP3   OH261435   6.404   3.922  16.975  0.6145  0.4367 -0.1383
13315TIP3    H161436   6.381   3.977  17.050 -0.2393  0.5843 -0.4912
13315TIP3    H261437   6.321   3.909  16.929  0.8552 -0.9184 -0.2182
13316TIP3   OH261438   6.582   0.277   1.670  0.2562 -0.3002 -0.8423
13316TIP3    H161439   6.498   0.275   1.716  1.2894 -0.6899  1.1063
13316TIP3    H261440   6.604   0.185   1.656 -0.2196 -0.1899 -2.5356
13317TIP3   OH261441   1.290   1.063   2.065  0.4710  0.1115 -0.6191
13317TIP3    H161442   1.204   1.091   2.032  0.2607  1.0258  0.6323
13317TIP3    H261443   1.353   1.108   2.010  0.1242  1.2962 -0.0813
13318TIP3   OH261444   2.362   5.901   4.901  0.0120  0.3301  0.2377
13318TIP3    H161445   2.289   5.852   4.937 -0.1841 -0.5299 -1.2404
13318TIP3    H261446   2.369   5.979   4.956 -0.6727 -0.5862  1.6724
13319TIP3   OH261447   5.494   3.732   0.107  0.1600 -0.0266  0.1404
13319TIP3    H161448   5.561   3.664   0.102  0.3222  0.1040  0.5043
13319TIP3    H261449   5.418   3.687   0.145 -0.4373 -0.5297 -1.5546
13320TIP3   OH261450   0.885   2.830  17.139  0.0993  0.1605  0.2566
13320TIP3    H161451   0.911   2.893  17.072 -1.5795  1.0869  0.4358
13320TIP3    H261452   0.945   2.845  17.211 -0.7351  2.1124  0.5944
13321TIP3   OH261453   5.746   1.445  15.030  0.1164 -0.5611 -0.2393
13321TIP3    H161454   5.769   1.357  15.001 -0.4963 -0.4153 -1.2150
13321TIP3    H261455   5.811   1.502  14.989  1.6198 -0.6823  1.8193
13322TIP3   OH261456   4.903   3.390   0.977  0.0895  0.4066  0.0040
13322TIP3    H161457   4.821   3.430   0.946 -0.8780 -1.9683 -0.7657
13322TIP3    H261458   4.876   3.334   1.050  0.4315 -2.5508 -1.9523
13323TIP3   OH261459   3.045   5.640  15.182 -0.1673  0.3949  0.4310
13323TIP3    H161460   3.113   5.620  15.117 -1.9468 -0.7725 -1.1745
13323TIP3    H261461   3.060   5.732  15.204  1.4041  0.4007 -0.5066
13324TIP3   OH261462   1.831   6.634  11.763  0.2054 -0.1638 -0.0852
13324TIP3    H161463   1.871   6.602  11.682 -0.1395 -0.1989 -0.2423
13324TIP3    H261464   1.807   6.724  11.744  0.4747 -0.0528  0.1038
13325TIP3   OH261465   3.406   4.000  13.325  0.2174 -0.4672 -0.1565
13325TIP3    H161466   3.433   4.090  13.343 -2.4833  0.1760  1.2501
13325TIP3    H261467   3.455   3.947  13.389 -0.4552  0.4173  1.1437
13326TIP3   OH261468   0.264   6.663  14.244 -0.2830 -0.1825 -0.0925
13326TIP3    H161469   0.208   6.622  14.310  1.9199  1.5929  3.1616
13326TIP3    H261470   0.307   6.589  14.201 -1.0784 -1.4194  1.1312
13327TIP3   OH261471   1.991   3.320  16.203 -0.0744  0.3355 -0.1594
13327TIP3    H161472   1.952   3.235  16.180 -2.3504  1.0087  0.8483
13327TIP3    H261473   2.083   3.301  16.217 -0.3085 -1.7545 -1.0145
13328TIP3   OH261474   6.631   1.058  15.687  0.4324 -0.1689  0.3685
13328TIP3    H161475   6.653   1.151  15.699  1.5447 -0.5380  1.4684
13328TIP3    H261476   6.619   1.048  15.593  0.4941  1.0481  0.2099
13329TIP3   OH261477   5.447   0.695  10.970  0.3106  0.3143 -0.1747
13329TIP3    H161478   5.429   0.612  10.927  0.0767  0.4698 -0.3771
13329TIP3    H261479   5.535   0.719  10.942  0.3059  0.2259 -0.2620
13330TIP3   OH261480   1.247   1.894   2.346  0.3580 -0.0153  0.0612
13330TIP3    H161481   1.299   1.881   2.426 -0.9520  0.8499  1.0971
13330TIP3    H261482   1.191   1.816   2.342  1.8699 -1.0961 -1.2207
13331TIP3   OH261483   4.335   4.517   5.446  0.3661 -0.4874 -0.1204
13331TIP3    H161484   4.371   4.606   5.451  1.4672 -0.9691  1.3204
13331TIP3    H261485   4.410   4.460   5.466 -0.4561 -1.7128 -0.4160
13332TIP3   OH261486   4.695   1.694   2.211 -0.2409 -0.1981  0.7790
13332TIP3    H161487   4.705   1.599   2.199  0.3137 -0.1331  0.6877
13332TIP3    H261488   4.699   1.705   2.306  2.1550 -0.0375  0.7221
13333TIP3   OH261489   3.468   5.200   4.548  0.2859  0.3601 -0.0512
13333TIP3    H161490   3.409   5.260   4.592 -0.4902  1.0120 -1.8768
13333TIP3    H261491   3.523   5.257   4.493 -1.5946 -0.5620 -3.1493
13334TIP3   OH261492   6.694   2.256   2.339 -0.1004 -0.5734  0.3826
13334TIP3    H161493   6.731   2.188   2.283  0.6974 -0.2897  0.5467
13334TIP3    H261494   6.735   2.337   2.309 -0.0310 -0.3510  1.0471
13335TIP3   OH261495   4.722   5.754   0.136  0.7207  0.8277 -0.4317
13335TIP3    H161496   4.800   5.700   0.126 -1.1219 -2.4169  1.1513
13335TIP3    H261497   4.662   5.724   0.067 -0.5307  0.4029  0.7869
13336TIP3   OH261498   4.068   5.236   0.639  0.2518 -0.3764 -0.0362
13336TIP3    H161499   3.987   5.258   0.594 -0.9018  1.0279  2.4874
13336TIP3    H261500   4.108   5.167   0.586 -1.1484  0.8462 -2.8709
13337TIP3   OH261501   4.289   5.512  14.149 -0.3071 -0.2285  0.6475
13337TIP3    H161502   4.295   5.584  14.086 -1.8217 -0.3198  0.3527
13337TIP3    H261503   4.226   5.544  14.215  1.0037 -0.2635  1.9622
13338TIP3   OH261504   5.054   0.618   6.048 -0.3041  0.7121 -0.0370
13338TIP3    H161505   4.961   0.611   6.025 -0.4340  1.4702  0.2080
13338TIP3    H261506   5.065   0.710   6.073  0.1047  0.2089  1.7212
13339TIP3   OH261507   1.762   3.234  13.906 -0.1250 -0.2540  0.4595
13339TIP3    H161508   1.691   3.253  13.967 -2.1436 -2.0053 -1.1832
13339TIP3    H261509   1.790   3.145  13.928  1.7786  0.4737  1.2049
13340TIP3   OH261510   4.249   1.227  16.056 -0.5499 -0.0093 -0.1572
13340TIP3    H161511   4.257   1.228  15.961 -1.7242 -1.5479 -0.3216
13340TIP3    H261512   4.209   1.142  16.076  0.4116 -0.0734  1.7790
13341TIP3   OH261513   0.796   2.749   4.992  0.5328 -0.0938 -0.1633
13341TIP3    H161514   0.708   2.714   4.977  0.8336 -0.7860 -0.3845
13341TIP3    H261515   0.787   2.844   4.985 -0.8608  0.1381  3.0573
13342TIP3   OH261516   1.520   6.104   3.317  0.0708 -0.3596  0.1435
13342TIP3    H161517   1.557   6.188   3.290  0.1760 -0.3479  0.3244
13342TIP3    H261518   1.425   6.117   3.313  0.0792  0.1327  1.2964
13343TIP3   OH261519   3.962   1.647  13.087 -0.1740  0.3137  0.4838
13343TIP3    H161520   4.008   1.726  13.059  0.2084 -0.0470  0.0874
13343TIP3    H261521   4.027   1.597  13.135 -0.1703 -0.1724 -0.0261
13344TIP3   OH261522   3.613   5.768  16.688 -0.6137  0.1762  0.6111
13344TIP3    H161523   3.552   5.837  16.663  1.2895  1.4682 -0.7810
13344TIP3    H261524   3.680   5.770  16.619  0.1755 -2.2302  1.2174
13345TIP3   OH261525   4.145   6.756  13.451  0.0293  0.5257 -0.2098
13345TIP3    H161526   4.198   6.739  13.373  1.1531 -1.4212  0.9043
13345TIP3    H261527   4.087   6.828  13.425  1.0358  0.6025 -2.5002
13346TIP3   OH261528   0.266   2.387  12.815  0.3151 -0.6330 -0.0657
13346TIP3    H161529   0.231   2.402  12.903  2.3577  1.9149  0.4411
13346TIP3    H261530   0.353   2.428  12.817  1.2152 -2.1979 -2.7265
13347TIP3   OH261531   3.173   0.946   2.173 -0.3374 -0.6562  0.5917
13347TIP3    H161532   3.221   0.946   2.090 -1.6689  0.4289 -0.2277
13347TIP3    H261533   3.238   0.970   2.239  0.3173  0.5104 -0.4503
13348TIP3   OH261534   6.140   0.887   2.392 -0.3281 -0.0715 -0.0339
13348TIP3    H161535   6.103   0.855   2.475 -1.4064 -1.2986 -0.9628
13348TIP3    H261536   6.215   0.831   2.376 -1.3780 -1.2708 -0.9372
13349TIP3   OH261537   3.888   1.864   2.076 -0.1086 -0.4275 -0.8201
13349TIP3    H161538   3.803   1.906   2.062 -1.0361 -2.1326 -0.5668
13349TIP3    H261539   3.924   1.853   1.988  0.5810  1.6672 -0.8408
13350TIP3   OH261540   5.566   2.245  17.150 -1.0253  0.8287  0.2425
13350TIP3    H161541   5.547   2.152  17.161  0.2080  0.5290  0.0188
13350TIP3    H261542   5.631   2.264  17.218  0.0193  1.0947 -0.7994
13351TIP3   OH261543   2.664   5.592   0.744  0.0572 -0.0064 -0.1650
13351TIP3    H161544   2.569   5.606   0.737  0.0543 -0.3358 -0.9495
13351TIP3    H261545   2.675   5.498   0.732  0.6317  0.2760 -2.2414
13352TIP3   OH261546   4.878   5.290  11.673 -0.0243 -0.6092  0.0038
13352TIP3    H161547   4.887   5.242  11.591 -2.0243 -0.2386 -0.4961
13352TIP3    H261548   4.841   5.226  11.734 -0.9028 -0.2323 -0.1212
13353TIP3   OH261549   1.448   0.104  15.632 -0.1105  0.2443  0.0735
13353TIP3    H161550   1.441   0.056  15.714  0.9212 -0.6360 -0.3317
13353TIP3    H261551   1.437   0.038  15.563 -0.7723  0.9341 -0.5037
13354TIP3   OH261552   2.195   3.339   5.725 -0.3723 -0.0575  0.4804
13354TIP3    H161553   2.179   3.306   5.637 -1.0104  0.6401  0.3293
13354TIP3    H261554   2.237   3.266   5.771  0.3026 -0.2992 -0.5005
13355TIP3   OH261555   0.475   5.437  16.606 -0.4026  0.2187 -0.4988
13355TIP3    H161556   0.515   5.369  16.660  0.5833  0.5822 -0.7514
13355TIP3    H261557   0.495   5.411  16.516 -1.0446  0.2241 -0.6518
13356TIP3   OH261558   2.906   0.777   0.564 -0.0622 -0.4804  0.1886
13356TIP3    H161559   2.996   0.790   0.596 -0.1340 -1.0885  0.6733
13356TIP3    H261560   2.907   0.811   0.475  0.8310 -1.0874 -0.0501
13357TIP3   OH261561   0.085   3.132   6.442 -0.3874  0.1798  0.0824
13357TIP3    H161562   0.035   3.052   6.428 -0.0973 -0.1852  1.0874
13357TIP3    H261563   0.174   3.110   6.417 -0.3881  0.3157 -0.0428
13358TIP3   OH261564   1.387   5.615  11.417 -0.2173  0.1574 -0.1379
13358TIP3    H161565   1.299   5.628  11.383 -0.0989 -0.0455 -0.5251
13358TIP3    H261566   1.422   5.542  11.367 -0.3093 -0.6520  0.9559
13359TIP3   OH261567   1.336   3.900  15.850 -0.0232 -0.1401 -0.2357
13359TIP3    H161568   1.331   3.958  15.775 -0.5105  0.0863 -0.0360
13359TIP3    H261569   1.373   3.954  15.920  0.0044 -0.2165 -0.1915
13360TIP3   OH261570   4.066   0.601   3.780  0.2815 -0.6349 -0.7017
13360TIP3    H161571   4.040   0.690   3.756 -1.3881 -0.8083  0.2657
13360TIP3    H261572   4.037   0.592   3.871  1.0866 -1.9272 -0.5576
13361TIP3   OH261573   5.093   5.360   4.143 -0.0048 -0.2994 -0.6306
13361TIP3    H161574   5.037   5.283   4.153 -2.4508  1.0079 -2.9029
13361TIP3    H261575   5.082   5.386   4.052 -1.6810  4.3123  0.5681
13362TIP3   OH261576   6.167   0.147   4.762  0.0395  0.2811 -0.1048
13362TIP3    H161577   6.226   0.127   4.689  0.1753  0.1953  0.0276
13362TIP3    H261578   6.099   0.203   4.724  1.4730  2.3617  0.2086
13363TIP3   OH261579   3.786   5.051   1.479 -0.8417  0.1045 -0.0087
13363TIP3    H161580   3.849   4.984   1.455 -0.0557  1.5650 -2.4175
13363TIP3    H261581   3.714   5.039   1.417 -1.2416  0.7271  0.3273
13364TIP3   OH261582   0.635   4.155   5.645 -0.0843 -0.6813 -0.0944
13364TIP3    H161583   0.664   4.237   5.684 -1.0893 -0.2561 -0.1950
13364TIP3    H261584   0.602   4.103   5.718  0.4855 -0.9672 -0.0399
13365TIP3   OH261585   6.145   5.836  11.257 -0.0327  0.0704 -0.1677
13365TIP3    H161586   6.183   5.924  11.254 -0.4736  0.2553 -2.6109
13365TIP3    H261587   6.064   5.844  11.206 -0.7775 -1.4549  0.7328
13366TIP3   OH261588   2.994   6.262   0.294  0.9475 -0.4117  0.2892
13366TIP3    H161589   3.084   6.286   0.316  0.9825  0.9536 -1.1749
13366TIP3    H261590   2.942   6.340   0.315 -0.3700 -1.9557  3.4194
13367TIP3   OH261591   2.732   6.156  13.560 -0.2685 -0.2068  0.4078
13367TIP3    H161592   2.749   6.066  13.587 -1.9111 -0.5037  0.5035
13367TIP3    H261593   2.722   6.151  13.465 -1.5302 -0.3396  0.5339
13368TIP3   OH261594   6.033   4.402  11.808 -0.2603  0.8207  0.4669
13368TIP3    H161595   5.956   4.392  11.864  0.0449  0.6197  0.8587
13368TIP3    H261596   6.007   4.363  11.724  0.3700 -2.0395  1.4824
13369TIP3   OH261597   1.430   1.662   2.442  0.6458 -0.2331  0.0883
13369TIP3    H161598   1.424   1.567   2.455  1.7608 -0.7482 -2.5493
13369TIP3    H261599   1.377   1.699   2.513  1.8794 -2.7012  2.5197
13370TIP3   OH261600   3.045   6.809   1.969  0.2175 -0.4310  0.7233
13370TIP3    H161601   3.035   6.726   2.016 -1.5234 -0.7874 -0.1747
13370TIP3    H261602   3.139   6.825   1.968  0.5243 -1.9884  1.6069
13371TIP3   OH261603   1.235   6.323   0.051  0.0865 -0.4502 -0.4906
13371TIP3    H161604   1.206   6.267  -0.022 -1.0426 -0.7275  0.1481
13371TIP3    H261605   1.221   6.412   0.020 -1.3989 -0.5795 -0.2422
13372TIP3   OH261606   5.365   4.250  11.604 -0.4383 -0.0884  0.0171
13372TIP3    H161607   5.353   4.157  11.623 -0.7915  0.0494  0.4933
13372TIP3    H261608   5.344   4.294  11.686  1.4327  0.3002  0.3474
13373TIP3   OH261609   0.777   1.922   4.330  0.1869 -0.2171 -0.3945
13373TIP3    H161610   0.780   1.960   4.242 -0.6685  1.8612  0.4015
13373TIP3    H261611   0.693   1.950   4.365  1.6977  1.5783  2.1081
13374TIP3   OH261612   6.362   5.128  16.925 -0.2083 -0.2315  0.9759
13374TIP3    H161613   6.284   5.084  16.958 -0.4421  0.0193  0.7635
13374TIP3    H261614   6.355   5.218  16.958  0.3966 -0.4135  1.6288
13375TIP3   OH261615   0.615   1.576   6.300 -0.5186  0.1161  0.1159
13375TIP3    H161616   0.525   1.604   6.285 -0.7874  0.2853  1.8196
13375TIP3    H261617   0.658   1.653   6.338  0.2498 -0.0870 -0.3176
13376TIP3   OH261618   2.018   1.628   2.370  0.5910  0.4973 -0.0544
13376TIP3    H161619   2.057   1.554   2.417 -1.4412 -0.1153  0.7580
13376TIP3    H261620   2.008   1.597   2.280  0.4361  0.0561  0.1147
13377TIP3   OH261621   5.990   1.702   2.931  0.2422  0.3103  0.2800
13377TIP3    H161622   6.043   1.628   2.901  0.7956  0.3623  1.0621
13377TIP3    H261623   5.907   1.663   2.959  0.9278 -0.1985  1.7218
13378TIP3   OH261624   4.390   4.048   5.791  0.3561 -0.2079 -0.0767
13378TIP3    H161625   4.430   4.027   5.875  0.0648 -0.8138 -0.0861
13378TIP3    H261626   4.463   4.049   5.729  0.3185 -1.7339 -0.1742
13379TIP3   OH261627   1.415   0.630   6.008  0.3679  0.2485  0.4304
13379TIP3    H161628   1.435   0.577   6.084  0.3613 -0.0953  0.1970
13379TIP3    H261629   1.494   0.627   5.955  0.6052  1.0252  0.7282
13380TIP3   OH261630   2.383   3.545   5.322 -0.0481 -0.1043  0.1671
13380TIP3    H161631   2.420   3.590   5.397  1.2949  2.7672 -2.0127
13380TIP3    H261632   2.439   3.570   5.249 -1.8185 -1.9586 -1.9932
13381TIP3   OH261633   3.450   1.069  16.902  0.2192  0.5906  0.0355
13381TIP3    H161634   3.374   1.104  16.856 -0.7918  1.1634  2.0687
13381TIP3    H261635   3.512   1.142  16.906  0.9216  0.1396 -1.5713
13382TIP3   OH261636   4.308   2.386   3.347  0.5232 -0.3162  0.3137
13382TIP3    H161637   4.318   2.292   3.330  0.1692 -0.4022  0.5770
13382TIP3    H261638   4.266   2.420   3.268  2.8180  0.0613 -0.8456
13383TIP3   OH261639   1.407   1.317   0.808 -0.5552  0.1000  0.0167
13383TIP3    H161640   1.422   1.409   0.830  0.4785 -0.1552  0.4439
13383TIP3    H261641   1.492   1.275   0.820 -1.2830 -1.1600  1.0730
13384TIP3   OH261642   1.876   3.359   2.176 -0.0360  0.0320  0.2292
13384TIP3    H161643   1.968   3.378   2.194  0.6180 -2.4338 -0.2065
13384TIP3    H261644   1.872   3.344   2.082 -1.0642  0.8431  0.1201
13385TIP3   OH261645   3.549   4.059   4.601  0.0626 -0.2354 -0.4150
13385TIP3    H161646   3.557   4.121   4.673 -1.9513  0.3962 -0.6896
13385TIP3    H261647   3.485   3.995   4.632  0.1773 -0.7122 -1.1423
13386TIP3   OH261648   4.374   2.219  12.907  0.2456 -0.1410  0.1633
13386TIP3    H161649   4.318   2.292  12.935 -0.9448 -0.8887 -0.2009
13386TIP3    H261650   4.463   2.247  12.930 -0.3233  0.8284  1.2919
13387TIP3   OH261651   6.817   3.596   3.135  0.0226 -0.1425 -0.7475
13387TIP3    H161652   6.728   3.621   3.112  0.0473 -1.4270 -2.4867
13387TIP3    H261653   6.810   3.507   3.167  0.3755  0.6932  1.8554
13388TIP3   OH261654   2.861   5.866   5.458  0.6733  0.0225 -0.1782
13388TIP3    H161655   2.942   5.873   5.408 -0.4742 -0.2358 -2.1628
13388TIP3    H261656   2.792   5.892   5.398 -0.9649 -1.9483  0.6977
13389TIP3   OH261657   4.983   1.977   0.151 -0.3853  0.4869  0.2140
13389TIP3    H161658   5.058   2.017   0.107 -0.2068  0.4252  0.4625
13389TIP3    H261659   4.961   1.901   0.097  0.2234  0.0518  0.5635
13390TIP3   OH261660   3.271   6.243   2.102 -0.4031 -0.0985  0.2351
13390TIP3    H161661   3.177   6.225   2.100 -0.7007  0.3070  3.9443
13390TIP3    H261662   3.302   6.201   2.182  1.8403  2.7126  1.0114
13391TIP3   OH261663   3.043   4.663  17.149  0.1663 -1.2342  0.0126
13391TIP3    H161664   3.078   4.586  17.105 -0.6716 -1.4023 -0.3821
13391TIP3    H261665   2.948   4.654  17.143  0.0265  0.4241 -1.1583
13392TIP3   OH261666   0.483   5.437   4.930 -0.4818 -0.1431 -0.0352
13392TIP3    H161667   0.433   5.421   4.850  0.2761 -2.5279 -0.0962
13392TIP3    H261668   0.569   5.400   4.912 -0.3671 -0.9555  1.9606
13393TIP3   OH261669   0.108   2.115  12.848 -0.0833  0.3751 -0.5370
13393TIP3    H161670   0.085   2.175  12.920  2.0832 -1.0672  1.5135
13393TIP3    H261671   0.137   2.173  12.778 -0.8700  1.8154  0.2616
13394TIP3   OH261672   4.750   5.444   0.771  0.0346  0.3141 -0.4886
13394TIP3    H161673   4.819   5.435   0.705  0.0029  0.1168 -0.4955
13394TIP3    H261674   4.713   5.356   0.780  1.6394 -0.2430  1.5350
13395TIP3   OH261675   4.571   1.125  12.929 -0.2169  0.0118 -0.2002
13395TIP3    H161676   4.493   1.166  12.966 -1.1295  0.1004 -2.0750
13395TIP3    H261677   4.644   1.168  12.973 -1.2132  1.1668  0.3818
13396TIP3   OH261678   2.607   3.759  16.810  0.2229  0.2419 -0.2484
13396TIP3    H161679   2.521   3.800  16.809  0.2363  0.2861 -1.6929
13396TIP3    H261680   2.623   3.734  16.718  1.8960  0.5569 -0.0715
13397TIP3   OH261681   6.549   4.654   1.157  0.1976  0.1275 -0.3498
13397TIP3    H161682   6.499   4.736   1.160  1.4532  0.8899  0.0735
13397TIP3    H261683   6.638   4.678   1.182  0.1474 -1.7184  2.0365
13398TIP3   OH261684   4.020   3.095  16.164  0.6838  0.3312  0.4012
13398TIP3    H161685   4.054   3.085  16.253 -1.2651  0.5249  1.2102
13398TIP3    H261686   3.942   3.040  16.161  1.8351 -1.3189 -1.8745
13399TIP3   OH261687   4.498   3.358  17.080 -0.2463 -0.1042 -0.0451
13399TIP3    H161688   4.433   3.398  17.139 -0.1078  2.2029 -1.3106
13399TIP3    H261689   4.552   3.432  17.052 -0.2911 -1.0890 -2.9919
13400TIP3   OH261690   0.826   4.622  11.894 -0.2371 -0.3247 -0.7578
13400TIP3    H161691   0.752   4.565  11.915 -0.3792 -0.3150 -1.2118
13400TIP3    H261692   0.903   4.565  11.903 -0.2446 -0.1921  0.2509
13401TIP3   OH261693   5.439   6.499   6.403  0.0831  0.0789 -0.1991
13401TIP3    H161694   5.524   6.540   6.419 -0.7032  0.8523  2.3772
13401TIP3    H261695   5.375   6.567   6.422 -1.1593 -0.7162 -1.3630
13402TIP3   OH261696   3.234   6.184  14.620  0.6818  0.0396  0.0983
13402TIP3    H161697   3.324   6.179  14.654  0.6720 -1.5205 -0.0543
13402TIP3    H261698   3.244   6.178  14.525  0.6549  3.7874 -0.3258
13403TIP3   OH261699   3.458   2.825   1.485 -0.0012  0.0096 -0.0314
13403TIP3    H161700   3.466   2.753   1.421 -0.6795 -2.0875  2.1057
13403TIP3    H261701   3.548   2.843   1.512  0.0228 -2.5062  1.8913
13404TIP3   OH261702   4.987   1.629  11.430  0.1197  0.1249  0.4723
13404TIP3    H161703   5.016   1.607  11.342  0.5963  0.3667  0.5666
13404TIP3    H261704   4.892   1.637  11.423  0.1984  0.6217 -0.1285
13405TIP3   OH261705   6.130   1.233   0.262 -0.0227 -0.0299 -0.3328
13405TIP3    H161706   6.132   1.324   0.233  1.4388  0.3732  0.9333
13405TIP3    H261707   6.075   1.189   0.197 -1.9090  1.9894 -0.2325
13406TIP3   OH261708   1.425   1.247   1.869 -0.0202 -0.3784  0.2025
13406TIP3    H161709   1.446   1.267   1.960  0.0599 -0.0936  0.1240
13406TIP3    H261710   1.508   1.257   1.823 -0.7289  3.7530 -0.6433
13407TIP3   OH261711   3.160   5.532  11.050  0.3426  0.1492  0.8457
13407TIP3    H161712   3.215   5.469  11.097  0.4034  1.1020  2.1173
13407TIP3    H261713   3.211   5.553  10.972  1.0534 -0.1993  1.1993
13408TIP3   OH261714   5.755   5.704   3.530 -0.1758  0.4215  0.3012
13408TIP3    H161715   5.835   5.651   3.527 -1.1365 -1.0703  0.1272
13408TIP3    H261716   5.782   5.789   3.496  0.7006 -0.9194 -2.6825
13409TIP3   OH261717   5.893   4.082   1.406 -0.0710 -0.1934  0.0833
13409TIP3    H161718   5.804   4.106   1.431 -0.0619 -1.3721  1.3132
13409TIP3    H261719   5.929   4.162   1.368 -2.3975 -0.3118 -2.6887
13410TIP3   OH261720   2.322   5.052   2.522 -0.1614  0.1449 -0.1897
13410TIP3    H161721   2.369   5.014   2.596 -1.7845  0.5594  1.0915
13410TIP3    H261722   2.329   4.986   2.453  2.5355  0.3229 -0.1794
13411TIP3   OH261723   0.635   6.482   5.060 -0.1970 -0.2555 -0.4390
13411TIP3    H161724   0.704   6.534   5.101 -1.4646  1.5409 -0.4895
13411TIP3    H261725   0.585   6.545   5.009 -1.2180 -1.7179 -1.3139
13412TIP3   OH261726   3.473   3.286  14.894 -0.6792 -0.2659  0.6031
13412TIP3    H161727   3.554   3.236  14.909  0.4061  0.8657 -1.1156
13412TIP3    H261728   3.421   3.270  14.973  1.1783 -1.1111  1.7498
13413TIP3   OH261729   4.945   4.787  14.901  0.0770 -0.1623 -0.8373
13413TIP3    H161730   4.947   4.880  14.920 -2.0075 -0.2618  0.0777
13413TIP3    H261731   4.889   4.749  14.968  1.9166 -2.3139 -0.3514
13414TIP3   OH261732   0.558   3.072  15.068  0.1952 -0.1343  0.0443
13414TIP3    H161733   0.613   3.144  15.038  0.4473  0.8193  2.5242
13414TIP3    H261734   0.610   3.031  15.138 -1.1653 -0.8633  0.6619
13415TIP3   OH261735   5.348   6.149   1.968  0.7114  0.9158  0.4652
13415TIP3    H161736   5.346   6.229   2.020  0.0243  0.2287  1.5625
13415TIP3    H261737   5.271   6.154   1.911  0.4797  0.9040  0.7717
13416TIP3   OH261738   6.593   2.030  12.984  0.2832 -0.0832 -0.1991
13416TIP3    H161739   6.658   1.965  12.956 -0.4031 -0.4221 -1.0346
13416TIP3    H261740   6.517   1.978  13.010  0.5316  0.2794  1.3481
13417TIP3   OH261741   4.496   4.140  10.909  0.4196  0.0352 -0.6157
13417TIP3    H161742   4.566   4.120  10.847  0.5444 -2.7487  0.2806
13417TIP3    H261743   4.422   4.087  10.879 -0.4399  0.8497  0.0182
13418TIP3   OH261744   6.001   2.787  15.783  0.1975  0.4958 -0.0574
13418TIP3    H161745   6.063   2.793  15.710 -0.1712  0.5400 -0.3722
13418TIP3    H261746   6.056   2.792  15.861  0.5532  1.0190 -0.3289
13419TIP3   OH261747   6.124   6.529  16.327  0.1924  0.4540 -0.0822
13419TIP3    H161748   6.207   6.481  16.320  0.7133  1.5490 -1.9781
13419TIP3    H261749   6.144   6.603  16.384  0.7777  1.1900 -1.2169
13420TIP3   OH261750   1.364   2.168  15.475  0.0487 -0.4642 -0.0289
13420TIP3    H161751   1.362   2.140  15.567 -1.3243 -3.0735 -0.7476
13420TIP3    H261752   1.446   2.133  15.440 -0.3779 -1.2582 -0.2593
13421TIP3   OH261753   6.669   2.011  15.646  0.0390  0.6634 -0.1372
13421TIP3    H161754   6.734   1.956  15.690  0.3644  0.3013 -1.0302
13421TIP3    H261755   6.719   2.056  15.578 -0.5704  0.6544 -0.5985
13422TIP3   OH261756   1.407   5.211   1.739 -0.0205  0.2947  0.1794
13422TIP3    H161757   1.316   5.204   1.710 -0.2914 -1.5224  1.3391
13422TIP3    H261758   1.443   5.123   1.727  2.3198  1.4482 -2.4179
13423TIP3   OH261759   2.424   5.707   4.344  0.1259 -0.2077 -0.0881
13423TIP3    H161760   2.511   5.670   4.335  0.7377  1.4543 -1.5983
13423TIP3    H261761   2.368   5.653   4.289  0.4848 -0.4018 -0.2624
13424TIP3   OH261762   3.123   0.771  11.710  0.2126 -0.1928 -0.1009
13424TIP3    H161763   3.033   0.783  11.740  0.1399 -0.1562 -0.3332
13424TIP3    H261764   3.114   0.735  11.622  0.4122 -2.8242  0.8749
13425TIP3   OH261765   4.041   0.735  11.660  0.1535  0.1561 -0.5563
13425TIP3    H161766   4.063   0.734  11.753  0.5767 -0.6100 -0.6618
13425TIP3    H261767   4.086   0.812  11.625 -1.1637  1.3018  0.1326
13426TIP3   OH261768   1.717   5.315  11.647 -0.0536  0.9690  0.6059
13426TIP3    H161769   1.705   5.405  11.619  0.6361  0.3864 -1.8191
13426TIP3    H261770   1.798   5.287  11.605 -0.7880 -1.0717  0.3952
13427TIP3   OH261771   4.807   5.846   5.384  0.1177  0.0481  0.1516
13427TIP3    H161772   4.762   5.763   5.366 -1.0313  0.7361 -0.2925
13427TIP3    H261773   4.883   5.822   5.437 -1.1592 -1.0975  1.5538
13428TIP3   OH261774   4.888   0.797  13.400  0.6808 -0.0034 -0.2065
13428TIP3    H161775   4.827   0.790  13.327  1.8621 -0.3666 -1.1985
13428TIP3    H261776   4.833   0.807  13.477 -0.6021  0.4291 -1.1510
13429TIP3   OH261777   0.470   5.985  12.947  0.2653 -0.1324 -0.6226
13429TIP3    H161778   0.477   5.944  13.033 -0.2348  0.1179 -0.4590
13429TIP3    H261779   0.559   6.013  12.926  0.0225  2.0384  0.9189
13430TIP3   OH261780   0.557   1.706  15.219 -0.1658 -0.1090 -0.1969
13430TIP3    H161781   0.494   1.743  15.280 -0.7020  1.3228 -1.5607
13430TIP3    H261782   0.630   1.768  15.219 -0.4261  0.2141 -1.4311
13431TIP3   OH261783   4.778   3.214   4.518  0.3482  0.6727 -0.2457
13431TIP3    H161784   4.865   3.213   4.478  1.2165  0.6445  1.5480
13431TIP3    H261785   4.788   3.163   4.599 -0.1603  4.2570  2.3159
13432TIP3   OH261786   4.852   0.424  10.472 -0.7483  0.3483  0.0489
13432TIP3    H161787   4.823   0.387  10.556 -0.8505 -0.2121 -0.2304
13432TIP3    H261788   4.928   0.371  10.448  0.4728  1.6980  0.7015
13433TIP3   OH261789   6.573   4.074  13.086  0.0427 -0.4850 -0.1691
13433TIP3    H161790   6.655   4.050  13.129  0.2650 -0.2424 -0.4463
13433TIP3    H261791   6.504   4.037  13.141  0.3796 -2.6439 -1.0920
13434TIP3   OH261792   4.437   6.698  11.200  0.3060 -0.3178  0.8159
13434TIP3    H161793   4.365   6.722  11.142  1.1621 -0.3336 -0.2852
13434TIP3    H261794   4.411   6.613  11.236 -0.9025  0.3682  1.6294
13435TIP3   OH261795   1.567   3.169   1.759  0.1925 -0.9110 -0.6838
13435TIP3    H161796   1.555   3.210   1.673  0.8157  1.7795  0.4281
13435TIP3    H261797   1.486   3.119   1.773 -1.2706  1.0987 -1.5408
13436TIP3   OH261798   1.165   5.315  11.176 -0.3284 -0.0451 -0.3495
13436TIP3    H161799   1.124   5.401  11.184  0.6562  0.4608 -0.6002
13436TIP3    H261800   1.097   5.259  11.139 -0.8257  0.7528 -0.6588
13437TIP3   OH261801   2.131   3.010   3.831 -0.2502  0.2759 -0.1193
13437TIP3    H161802   2.212   2.959   3.830 -0.2216  0.3286 -0.8034
13437TIP3    H261803   2.072   2.960   3.887 -0.9129 -1.6061 -2.3292
13438TIP3   OH261804   2.324   6.437  11.683 -0.3683  0.0319  0.6064
13438TIP3    H161805   2.354   6.378  11.614  0.0803  0.4280  0.4538
13438TIP3    H261806   2.385   6.423  11.756 -0.9590 -0.5291  1.0061
13439TIP3   OH261807   1.001   5.457  16.759 -0.1994 -0.4751  0.4669
13439TIP3    H161808   0.993   5.434  16.851  1.2059  1.1738  1.0620
13439TIP3    H261809   0.946   5.393  16.713 -0.4859 -1.6774  2.3767
13440TIP3   OH261810   4.624   0.654   4.999 -0.3491  0.3876  0.5363
13440TIP3    H161811   4.691   0.637   4.933  0.5148 -0.2922  1.5391
13440TIP3    H261812   4.595   0.743   4.981 -1.6322 -0.4634 -2.0010
13441TIP3   OH261813   1.424   3.663  15.222  1.0364 -0.7842 -0.3840
13441TIP3    H161814   1.354   3.648  15.158 -0.4861  3.2674  0.0630
13441TIP3    H261815   1.420   3.586  15.280 -1.8826 -1.5228 -1.3865
13442TIP3   OH261816   2.469   1.391   2.614  0.4945  0.0224  0.5434
13442TIP3    H161817   2.514   1.469   2.647  1.0336 -0.2791  0.5298
13442TIP3    H261818   2.438   1.346   2.693 -0.9244  0.8824  0.5153
13443TIP3   OH261819   2.376   4.047   1.903 -0.2630 -0.9846 -0.1642
13443TIP3    H161820   2.448   3.984   1.913  0.8932  0.3649  0.3267
13443TIP3    H261821   2.353   4.072   1.993  2.4816  2.7042 -0.2451
13444TIP3   OH261822   3.517   6.720   4.377  0.1072  0.2192 -0.0621
13444TIP3    H161823   3.469   6.689   4.454  1.0023  2.0665  1.3093
13444TIP3    H261824   3.525   6.814   4.390 -0.3527  0.7356 -2.8188
13445TIP3   OH261825   1.700   0.383  11.575  0.0857 -0.0740  0.1235
13445TIP3    H161826   1.727   0.304  11.527 -0.3877  0.1404 -0.5134
13445TIP3    H261827   1.720   0.455  11.515  1.8175  0.4347  1.2492
13446TIP3   OH261828   0.242   3.004   5.040  0.3762  0.0685  0.2005
13446TIP3    H161829   0.316   3.030   5.094  0.0159  0.8432  0.3382
13446TIP3    H261830   0.197   2.937   5.091 -0.5209  1.4735  1.3579
13447TIP3   OH261831   5.076   6.437   5.883  0.3356 -0.7117  0.1126
13447TIP3    H161832   5.129   6.396   5.815  0.3880  1.2147 -1.0829
13447TIP3    H261833   5.055   6.524   5.848 -0.5433 -0.0616  2.1113
13448TIP3   OH261834   6.358   4.960   2.921  0.1497 -0.3032 -0.4525
13448TIP3    H161835   6.315   4.920   2.997  2.0054 -0.6769  0.4641
13448TIP3    H261836   6.448   4.977   2.951  0.2584  1.8305 -1.7814
13449TIP3   OH261837   1.494   4.633   1.986  0.4456 -0.0722  0.1948
13449TIP3    H161838   1.422   4.576   1.958 -0.7553  0.2867  2.3380
13449TIP3    H261839   1.571   4.596   1.944 -0.6067 -2.0458 -0.1205
13450TIP3   OH261840   1.395   4.353  11.394 -0.0123 -0.2226 -0.3822
13450TIP3    H161841   1.457   4.323  11.461 -0.0825 -1.2317 -0.7568
13450TIP3    H261842   1.446   4.356  11.314 -0.3162 -0.5585 -0.5918
13451TIP3   OH261843   1.393   3.905  13.632  0.1342  0.0496  0.7878
13451TIP3    H161844   1.317   3.866  13.589 -0.1344  0.5882  0.7736
13451TIP3    H261845   1.415   3.843  13.702 -0.1139 -0.2733  0.5804
13452TIP3   OH261846   4.572   5.622  17.244 -0.3414  0.3064  0.1715
13452TIP3    H161847   4.603   5.539  17.207  1.2791  0.6166  0.7393
13452TIP3    H261848   4.500   5.597  17.302  1.8722 -1.1319  2.5062
13453TIP3   OH261849   6.314   6.539   1.366 -0.1331  0.1086 -0.0275
13453TIP3    H161850   6.291   6.527   1.458  2.5456  0.2036  0.7149
13453TIP3    H261851   6.233   6.571   1.326 -0.9473  1.6321  2.5980
13454TIP3   OH261852   2.772   6.335  16.134 -0.3168 -0.5363 -0.2405
13454TIP3    H161853   2.840   6.325  16.068 -0.3199 -0.0559 -0.3200
13454TIP3    H261854   2.691   6.315  16.088 -0.1448 -2.1923  0.1249
13455TIP3   OH261855   6.332   0.986   5.301  0.2624  0.2694 -0.8572
13455TIP3    H161856   6.384   1.059   5.335  0.8482  0.4052 -2.0185
13455TIP3    H261857   6.314   0.932   5.378  3.3654 -0.5770 -0.5682
13456TIP3   OH261858   4.987   6.396   1.927 -0.4475  0.7498 -0.5135
13456TIP3    H161859   4.943   6.337   1.988  1.5222 -0.0856  0.1738
13456TIP3    H261860   4.928   6.400   1.852 -0.4081 -2.6646 -0.8938
13457TIP3   OH261861   6.041   2.906   5.348  0.4145  0.0232 -0.4823
13457TIP3    H161862   6.006   2.931   5.263  0.6769  0.2312 -0.5308
13457TIP3    H261863   6.069   2.988   5.388 -0.4735  0.0325  0.1604
13458TIP3   OH261864   5.705   2.907   1.081  0.0019 -0.2568  0.2458
13458TIP3    H161865   5.747   2.992   1.074 -2.0073  0.7746  0.2313
13458TIP3    H261866   5.620   2.918   1.041 -0.7199 -1.9932  1.1673
13459TIP3   OH261867   0.690   0.937  12.328 -0.2603 -0.0310  0.0044
13459TIP3    H161868   0.708   0.924  12.235 -0.6641  0.2857 -0.1173
13459TIP3    H261869   0.660   0.852  12.359 -2.1427  0.3797 -0.6188
13460TIP3   OH261870   1.490   5.662  13.912 -0.4055  0.4054 -0.6008
13460TIP3    H161871   1.508   5.748  13.874 -0.1731  0.8128  0.3868
13460TIP3    H261872   1.487   5.602  13.837  4.3824  0.3702 -1.0846
13461TIP3   OH261873   2.179   5.718   6.071 -0.2256 -0.1254  0.6723
13461TIP3    H161874   2.229   5.746   6.147  2.0423 -2.0242  0.0170
13461TIP3    H261875   2.141   5.634   6.097  1.3170 -1.2526 -0.4737
13462TIP3   OH261876   5.708   4.401  14.285 -0.2827  0.0810 -0.2899
13462TIP3    H161877   5.746   4.361  14.206  1.6594  1.3977 -0.0771
13462TIP3    H261878   5.616   4.414  14.262 -0.0265 -0.6190 -1.9096
13463TIP3   OH261879   3.388   6.694   3.367 -0.4247  0.3435  0.0505
13463TIP3    H161880   3.471   6.650   3.346 -0.6308  0.6313 -1.5297
13463TIP3    H261881   3.389   6.703   3.462  0.0610 -2.2363  0.3859
13464TIP3   OH261882   2.824   2.570   3.542  0.5049  0.4894 -0.1206
13464TIP3    H161883   2.894   2.633   3.556  1.2060 -0.8126  3.0778
13464TIP3    H261884   2.745   2.614   3.575  0.5150  0.5902 -0.2301
13465TIP3   OH261885   4.292   5.757  15.657 -0.4532  0.1448 -0.2642
13465TIP3    H161886   4.205   5.761  15.696 -0.5571 -1.4715 -0.2587
13465TIP3    H261887   4.349   5.734  15.731 -0.2109  0.0310 -0.4871
13466TIP3   OH261888   0.281   5.084  15.131 -0.1380 -0.5772  0.0700
13466TIP3    H161889   0.192   5.117  15.121 -1.0633 -2.9023 -0.1117
13466TIP3    H261890   0.337   5.159  15.111 -2.0331  0.3014 -2.4865
13467TIP3   OH261891   5.070   4.814  16.782 -0.0959 -0.6553  0.3786
13467TIP3    H161892   4.993   4.870  16.780 -1.4329 -2.3373 -2.8877
13467TIP3    H261893   5.119   4.843  16.859 -1.4072  3.8779 -0.2119
13468TIP3   OH261894   6.808   6.788  14.859  0.6458  0.0970 -0.0790
13468TIP3    H161895   6.816   6.805  14.953 -0.4749  0.5464 -0.0557
13468TIP3    H261896   6.761   6.864  14.825  1.3446  0.1019 -1.0720
13469TIP3   OH261897   2.073   5.041  11.848  0.7856  0.0513  0.3019
13469TIP3    H161898   2.085   5.042  11.753 -1.2792  0.2601  0.0057
13469TIP3    H261899   2.105   4.956  11.876  2.7375  0.5195 -0.3522
13470TIP3   OH261900   5.096   1.832  13.403 -0.0347  0.1792  0.5725
13470TIP3    H161901   5.154   1.896  13.361 -0.4792  0.6491  0.6574
13470TIP3    H261902   5.039   1.802  13.332 -0.9244  1.1278  0.8480
13471TIP3   OH261903   6.036   6.267  13.567  0.3748  0.0267 -0.1484
13471TIP3    H161904   6.127   6.288  13.548  0.8241 -1.2027  0.5773
13471TIP3    H261905   6.039   6.183  13.613 -0.8325  1.5597  3.0215
13472TIP3   OH261906   6.065   6.593  13.761 -0.1407 -0.3116 -0.2128
13472TIP3    H161907   6.082   6.686  13.749  0.6174 -0.3107  0.7906
13472TIP3    H261908   6.146   6.550  13.735 -0.1681 -0.6289  0.2139
13473TIP3   OH261909   1.827   0.392  12.628 -0.1412  0.5663 -0.1468
13473TIP3    H161910   1.810   0.416  12.719 -1.4382  3.0678 -0.9329
13473TIP3    H261911   1.885   0.461  12.596 -0.1715  0.0511 -1.3652
13474TIP3   OH261912   4.550   0.537   1.656 -0.1948 -0.0609  0.4682
13474TIP3    H161913   4.558   0.594   1.580  0.5391 -1.5499 -0.6455
13474TIP3    H261914   4.474   0.570   1.704  0.4032  2.0083  0.0702
13475TIP3   OH261915   4.290   6.734   0.377  0.5129  0.4469  0.2584
13475TIP3    H161916   4.379   6.769   0.381  0.8836 -0.5300  1.0298
13475TIP3    H261917   4.267   6.718   0.469  0.1362 -0.7476 -0.0325
13476TIP3   OH261918   2.382   5.990  17.255  0.0528 -0.8880  1.0532
13476TIP3    H161919   2.447   5.975  17.186 -0.1113  0.1525  0.6566
13476TIP3    H261920   2.317   5.921  17.242 -0.6980  0.0932 -0.7140
13477TIP3   OH261921   3.678   5.712  14.403 -0.6065  0.8686 -0.3550
13477TIP3    H161922   3.607   5.648  14.407  0.1176  0.0949  1.3017
13477TIP3    H261923   3.749   5.672  14.454  1.2831  1.3250 -2.4847
13478TIP3   OH261924   3.518   5.628   0.370  0.1741 -0.0625  0.1371
13478TIP3    H161925   3.517   5.535   0.390  0.2719  0.2158  1.4795
13478TIP3    H261926   3.430   5.647   0.337  0.4751 -0.8271 -1.1786
13479TIP3   OH261927   3.224   5.215   0.268 -0.0139 -0.0623  0.0918
13479TIP3    H161928   3.290   5.210   0.338 -1.3237  1.1567  1.5085
13479TIP3    H261929   3.203   5.124   0.249  0.4137 -0.4400  1.2927
13480TIP3   OH261930   4.311   3.114   3.467 -1.0528 -0.3153 -0.6595
13480TIP3    H161931   4.317   3.162   3.384 -3.4655  1.5919  0.1289
13480TIP3    H261932   4.307   3.182   3.534 -1.9692 -1.7069  0.7721
13481TIP3   OH261933   3.928   6.690  14.919 -0.5358 -0.0173  0.2706
13481TIP3    H161934   3.840   6.717  14.945 -0.6739 -0.5477  0.3694
13481TIP3    H261935   3.916   6.602  14.881 -0.0240 -0.1796  0.4775
13482TIP3   OH261936   2.267   5.140  12.436 -0.2792  0.2020 -0.3438
13482TIP3    H161937   2.245   5.230  12.415  0.2660  0.2815 -0.6001
13482TIP3    H261938   2.255   5.092  12.354  3.3155  0.7838 -1.3690
13483TIP3   OH261939   4.614   2.942   3.674 -0.0937 -0.1685 -0.4573
13483TIP3    H161940   4.528   2.958   3.714  0.0686  0.0924 -0.2107
13483TIP3    H261941   4.627   2.847   3.686 -0.8260 -0.4112 -1.4747
13484TIP3   OH261942   4.401   0.322  11.952 -0.4331  0.3326 -0.0919
13484TIP3    H161943   4.450   0.246  11.984 -1.9528 -0.6125  0.0793
13484TIP3    H261944   4.382   0.373  12.031  0.0755  0.5903 -0.1323
13485TIP3   OH261945   4.397   0.717   0.247 -0.0283  0.3241  0.5018
13485TIP3    H161946   4.403   0.622   0.238 -0.8419  0.3013  0.0888
13485TIP3    H261947   4.310   0.733   0.283 -0.8216  1.0032 -1.5121
13486TIP3   OH261948   6.293   1.425  13.480 -0.6300 -0.1760 -0.5193
13486TIP3    H161949   6.374   1.389  13.442 -0.1079  1.1214 -0.7094
13486TIP3    H261950   6.223   1.381  13.434 -0.0868 -2.4013  0.6388
13487TIP3   OH261951   4.892   4.883   4.355  0.0941 -0.2850  0.4789
13487TIP3    H161952   4.809   4.884   4.402 -0.7382 -1.7949 -0.8505
13487TIP3    H261953   4.955   4.850   4.418 -0.7929 -1.3067  0.8596
13488TIP3   OH261954   5.971   6.078  17.126  0.5199 -0.2086 -0.0816
13488TIP3    H161955   6.046   6.026  17.154 -0.5553 -1.1083  1.2854
13488TIP3    H261956   5.978   6.082  17.030  1.9801 -0.7301 -0.0165
13489TIP3   OH261957   1.084   6.441  13.071  0.2839 -0.1564 -0.5795
13489TIP3    H161958   1.117   6.441  12.981 -0.4113 -0.5572 -0.8442
13489TIP3    H261959   1.081   6.533  13.096 -0.6480  0.0594 -1.4064
13490TIP3   OH261960   5.880   0.409  16.103  0.1759  0.0518 -0.5929
13490TIP3    H161961   5.922   0.351  16.167  0.4781 -1.0518 -1.7528
13490TIP3    H261962   5.789   0.415  16.133  0.8352  1.5997  1.3282
13491TIP3   OH261963   3.189   1.809  12.525  0.7834 -0.7582 -0.2371
13491TIP3    H161964   3.166   1.721  12.555 -1.0490  0.0276  0.7677
13491TIP3    H261965   3.183   1.803  12.430 -1.0414 -1.3012 -0.1224
13492TIP3   OH261966   2.311   6.615  12.113 -0.0920  0.0726  0.0406
13492TIP3    H161967   2.373   6.687  12.116 -0.7998  0.7465 -0.9635
13492TIP3    H261968   2.354   6.547  12.062  1.2083 -0.8976  2.2491
13493TIP3   OH261969   5.740   0.921  11.473 -0.2775  0.1729  0.2301
13493TIP3    H161970   5.698   0.847  11.430  1.8574 -2.3361  2.0821
13493TIP3    H261971   5.684   0.938  11.549 -0.3051 -0.1662  0.2902
13494TIP3   OH261972   6.621   1.314  14.052 -0.0635 -0.1006 -0.0866
13494TIP3    H161973   6.622   1.406  14.028  2.2994 -0.6328 -2.4953
13494TIP3    H261974   6.704   1.301  14.099  0.2738 -1.2070 -0.9405
13495TIP3   OH261975   2.994   2.494   0.796 -0.1612  0.2080  0.2414
13495TIP3    H161976   3.010   2.448   0.878 -0.0988  1.6383  1.0754
13495TIP3    H261977   3.037   2.441   0.729  0.5200 -0.5407  1.2482
13496TIP3   OH261978   1.696   2.154  17.056  0.0887 -0.0577  0.6389
13496TIP3    H161979   1.785   2.124  17.038 -0.1759  0.3512 -1.6846
13496TIP3    H261980   1.656   2.083  17.106  1.7803 -0.1037  2.0259
13497TIP3   OH261981   2.312   6.733   2.991 -0.3744 -0.1579 -0.2423
13497TIP3    H161982   2.368   6.729   3.068 -1.7118 -1.6046  0.7201
13497TIP3    H261983   2.354   6.675   2.927 -0.8778 -1.4447  0.5675
13498TIP3   OH261984   2.790   5.925  11.134 -0.4454 -1.0844 -0.4111
13498TIP3    H161985   2.848   5.851  11.152 -1.1233 -1.4633  0.2864
13498TIP3    H261986   2.731   5.892  11.066  1.1822 -0.1395 -2.4104
13499TIP3   OH261987   5.129   2.670  12.230 -0.2352  0.3685 -0.4349
13499TIP3    H161988   5.050   2.649  12.179  0.5076 -0.6273 -1.2058
13499TIP3    H261989   5.112   2.757  12.266 -1.6573  0.2017 -0.6469
13500TIP3   OH261990   3.194   1.362  13.302  0.1933  0.0992 -0.5932
13500TIP3    H161991   3.194   1.269  13.325 -1.6357 -0.2774 -1.8603
13500TIP3    H261992   3.263   1.370  13.236  0.6346 -0.2753 -0.1813
13501TIP3   OH261993   3.688   1.875  16.150  0.3662 -0.0470  0.0140
13501TIP3    H161994   3.714   1.787  16.121 -0.6418 -0.3605  0.0238
13501TIP3    H261995   3.600   1.887  16.115 -0.6567 -0.1829  2.3383
13502TIP3   OH261996   3.174   3.223  17.292  0.0293 -0.4398 -0.3268
13502TIP3    H161997   3.132   3.244  17.208 -1.5708  1.4833  0.8586
13502TIP3    H261998   3.261   3.261  17.285 -1.4156  3.5011  0.2260
13503TIP3   OH261999   5.260   2.862   5.799  0.1454 -0.1037 -0.4183
13503TIP3    H162000   5.350   2.835   5.821 -0.4502 -0.3353  2.1298
13503TIP3    H262001   5.232   2.801   5.731  1.1901 -1.4711  0.3363
13504TIP3   OH262002   6.678   2.279   1.101 -0.2298 -0.3412 -0.4489
13504TIP3    H162003   6.657   2.186   1.107 -0.9443 -0.0814  1.8630
13504TIP3    H262004   6.726   2.299   1.181  1.6985  0.8830 -1.8305
13505TIP3   OH262005   5.722   1.875   4.627  0.6935  0.0578  0.0739
13505TIP3    H162006   5.702   1.852   4.536  0.9683 -0.0390  0.0356
13505TIP3    H262007   5.801   1.825   4.647  0.1221 -0.6299  0.6612
13506TIP3   OH262008   2.212   0.171   0.120 -0.4201 -0.1358 -0.8167
13506TIP3    H162009   2.171   0.086   0.133 -0.5962 -0.2317 -1.9142
13506TIP3    H262010   2.153   0.233   0.164  0.1621 -0.6485  0.7396
13507TIP3   OH262011   1.100   0.778   1.348  0.5343  0.3297 -0.0719
13507TIP3    H162012   1.172   0.834   1.323  0.1426  1.0906  0.4643
13507TIP3    H262013   1.035   0.837   1.386 -0.4193 -0.3217 -0.6425
13508TIP3   OH262014   0.307   3.306  15.275 -0.4805  0.3818 -0.2133
13508TIP3    H162015   0.398   3.284  15.296  0.0910  0.8251 -2.0603
13508TIP3    H262016   0.269   3.223  15.244 -0.6576  0.2440  0.3603
13509TIP3   OH262017   4.301   2.867  12.920 -0.1162  0.1468  0.3044
13509TIP3    H162018   4.375   2.896  12.867  0.0692 -0.1174  0.4200
13509TIP3    H262019   4.255   2.948  12.943 -1.2608  0.1684 -1.7948
13510TIP3   OH262020   1.244   0.488   5.187  0.0804  0.4344 -0.4182
13510TIP3    H162021   1.186   0.527   5.121 -0.8761  0.5913  0.4924
13510TIP3    H262022   1.209   0.400   5.201 -0.4776  0.8247  0.7492
13511TIP3   OH262023   5.572   1.167  12.467 -0.0860 -0.4756 -0.0446
13511TIP3    H162024   5.633   1.182  12.395 -0.0090 -0.1012  0.0926
13511TIP3    H262025   5.535   1.254  12.485 -1.4698 -0.8737 -0.8521
13512TIP3   OH262026   5.144   0.303  12.852  0.3005  0.4072  0.1419
13512TIP3    H162027   5.093   0.340  12.780 -0.8323 -0.6746  0.3401
13512TIP3    H262028   5.181   0.223  12.817 -1.9979 -1.2784  1.2608
13513TIP3   OH262029   2.746   5.807  13.516  0.4400 -0.4726 -0.2247
13513TIP3    H162030   2.807   5.766  13.455  0.0353 -0.2988 -0.7483
13513TIP3    H262031   2.667   5.823  13.465  0.2457  0.0685  0.2309
13514TIP3   OH262032   3.692   6.076  16.149 -0.6199 -0.2978  0.3088
13514TIP3    H162033   3.648   5.991  16.144  1.3760 -1.3499 -0.4690
13514TIP3    H262034   3.782   6.058  16.123 -0.5707  2.4123 -1.8690
13515TIP3   OH262035   5.001   0.543  11.789 -0.0565 -0.1556  0.0770
13515TIP3    H162036   4.936   0.474  11.797  0.0244 -0.6286 -2.4692
13515TIP3    H262037   5.084   0.500  11.811 -0.2865 -0.1570  1.0097
13516TIP3   OH262038   0.301   5.410  11.892 -0.0180  0.3376  0.1765
13516TIP3    H162039   0.258   5.343  11.837  1.0276 -0.2212  0.0129
13516TIP3    H262040   0.382   5.431  11.845  0.6277  0.2603  1.2241
13517TIP3   OH262041   5.417   5.443   1.464 -0.0713 -0.2260  0.2166
13517TIP3    H162042   5.382   5.520   1.420  0.1239  0.8651  1.8769
13517TIP3    H262043   5.511   5.459   1.468 -0.1667  0.0829  1.6773
13518TIP3   OH262044   3.872   1.456   0.080 -0.3246 -0.2349 -0.1258
13518TIP3    H162045   3.816   1.398   0.029  1.6043 -0.3787 -2.2655
13518TIP3    H262046   3.961   1.426   0.062  0.6649  2.3394 -0.0218
13519TIP3   OH262047   4.911   0.205   5.095  0.0420 -0.2180  0.1904
13519TIP3    H162048   4.878   0.275   5.151  0.2924  0.8154 -0.9231
13519TIP3    H262049   4.903   0.238   5.006 -1.3042 -2.2239 -0.5148
13520TIP3   OH262050   5.433   2.503   3.138 -0.0625  0.0608  1.1693
13520TIP3    H162051   5.485   2.551   3.203 -1.7770  2.0201  1.1735
13520TIP3    H262052   5.474   2.524   3.054 -0.9721  1.8398  1.1423
13521TIP3   OH262053   6.589   3.924  16.082 -0.3962  0.1179  0.0368
13521TIP3    H162054   6.620   4.003  16.039 -1.2209 -0.3896 -1.5782
13521TIP3    H262055   6.651   3.910  16.154  1.4581  0.6661 -1.3641
13522TIP3   OH262056   5.248   6.047   3.249  0.3693 -0.1796 -0.0866
13522TIP3    H162057   5.219   5.959   3.226  1.3884 -0.3365 -0.8461
13522TIP3    H262058   5.286   6.039   3.336 -0.2400 -0.3306  0.1666
13523TIP3   OH262059   5.982   4.956   2.948 -0.0408 -0.8350 -0.0117
13523TIP3    H162060   5.935   4.980   3.028  0.2593  0.4018 -0.1901
13523TIP3    H262061   6.075   4.964   2.972  0.0487 -0.4624 -0.4822
13524TIP3   OH262062   3.846   4.860  16.912  0.4074 -1.0711  0.1465
13524TIP3    H162063   3.906   4.914  16.964  0.9402 -1.0899 -0.4335
13524TIP3    H262064   3.844   4.903  16.826 -1.0067 -0.6347  0.3680
13525TIP3   OH262065   1.203   4.081  12.084  0.3870  0.5033  0.0667
13525TIP3    H162066   1.200   4.011  12.019  1.0263 -0.9705  1.5409
13525TIP3    H262067   1.285   4.126  12.067  0.1802  0.6358 -0.6278
13526TIP3   OH262068   6.469   1.314  16.159  0.1082  0.1090 -0.0186
13526TIP3    H162069   6.530   1.324  16.086 -1.4173 -3.1540 -1.9993
13526TIP3    H262070   6.382   1.322  16.119 -0.7803 -0.5070  1.6816
13527TIP3   OH262071   3.618   4.111   6.258 -0.0274 -0.2267 -0.3336
13527TIP3    H162072   3.586   4.158   6.335  0.3340  2.3686 -1.6467
13527TIP3    H262073   3.539   4.075   6.217 -0.4082 -0.1077  0.2923
13528TIP3   OH262074   0.641   5.107  12.122 -0.0723  0.0025  0.4161
13528TIP3    H162075   0.668   5.048  12.192  0.1986  0.9283  1.1087
13528TIP3    H262076   0.583   5.054  12.067  1.3584 -1.3618  0.1558
13529TIP3   OH262077   4.675   0.435  15.607 -0.2498 -0.2570  0.2095
13529TIP3    H162078   4.659   0.524  15.639 -0.8056 -0.6162  0.9601
13529TIP3    H262079   4.707   0.387  15.683 -0.4706 -0.8420 -0.0582
13530TIP3   OH262080   5.308   4.024   3.909  0.3637 -0.0538 -0.0918
13530TIP3    H162081   5.390   4.057   3.873 -0.9612  1.2550 -2.1369
13530TIP3    H262082   5.296   3.938   3.869  0.5402 -0.0637 -0.1224
13531TIP3   OH262083   2.070   5.276   4.228  0.3689  0.1183 -0.6202
13531TIP3    H162084   2.138   5.219   4.192 -1.4079 -0.8842 -2.6357
13531TIP3    H262085   2.100   5.365   4.208  2.4565 -0.0904  1.2232
13532TIP3   OH262086   6.542   4.568   3.726 -0.9600 -0.2220 -0.2639
13532TIP3    H162087   6.619   4.574   3.783 -2.0613 -0.8063  1.3666
13532TIP3    H262088   6.578   4.563   3.638  0.8362  0.3372  0.3863
13533TIP3   OH262089   2.589   5.662   3.485  0.3778 -0.2187 -0.9718
13533TIP3    H162090   2.570   5.579   3.440 -2.0705 -0.6679  0.7237
13533TIP3    H262091   2.631   5.635   3.567  1.2575  0.3569 -1.2251
13534TIP3   OH262092   2.037   1.881   5.432  0.1863 -0.0809  0.0410
13534TIP3    H162093   2.094   1.845   5.500  1.0569  0.1270 -0.5559
13534TIP3    H262094   1.949   1.861   5.461  0.5441 -0.0649  1.1941
13535TIP3   OH262095   1.942   1.444  12.572  0.4924 -0.2260 -0.4217
13535TIP3    H162096   2.036   1.457  12.581  0.4023 -0.5308  1.4389
13535TIP3    H262097   1.905   1.532  12.571  0.5996 -0.0704  2.2304
13536TIP3   OH262098   5.287   3.319   3.977 -0.3058 -0.0526  0.2358
13536TIP3    H162099   5.287   3.399   3.925  0.2464  1.1479  1.9866
13536TIP3    H262100   5.370   3.321   4.025 -0.1265 -1.8654  0.0817
13537TIP3   OH262101   6.673   4.147  11.298  0.7014 -0.2853  0.1539
13537TIP3    H162102   6.632   4.200  11.230 -0.6116 -0.9187  0.4205
13537TIP3    H262103   6.630   4.175  11.379  1.7231 -0.0591  0.6326
13538TIP3   OH262104   1.262   5.261   2.141  0.1241 -0.0643  0.4297
13538TIP3    H162105   1.238   5.173   2.114 -0.2741  0.1328  0.1275
13538TIP3    H262106   1.355   5.256   2.162  0.7022 -0.0134 -1.9069
13539TIP3   OH262107   6.153   6.438   1.974  0.4760  0.2955  0.4384
13539TIP3    H162108   6.082   6.408   2.031  1.4887 -1.5596  0.8081
13539TIP3    H262109   6.216   6.366   1.975  1.5152  1.1190 -1.3433
13540TIP3   OH262110   2.803   3.888  15.864 -0.2865 -0.4258 -0.1805
13540TIP3    H162111   2.872   3.865  15.926  0.4305 -0.6279 -1.0158
13540TIP3    H262112   2.721   3.869  15.909  0.2254 -0.9583  0.5359
13541TIP3   OH262113   3.060   3.731  16.366  0.3976 -0.2047  0.0189
13541TIP3    H162114   3.109   3.718  16.447 -0.1848 -0.0610  0.4033
13541TIP3    H262115   3.060   3.826  16.353  1.4518 -0.2931 -0.7644
13542TIP3   OH262116   5.125   2.755   2.353  0.0824  0.9856 -0.5638
13542TIP3    H162117   5.130   2.678   2.298 -0.7040 -0.1642  0.8917
13542TIP3    H262118   5.037   2.752   2.391  0.6398  1.6054  0.8824
13543TIP3   OH262119   3.798   5.840   2.370 -0.6369 -0.1263 -0.3668
13543TIP3    H162120   3.855   5.766   2.349  2.2392  1.4625  1.2155
13543TIP3    H262121   3.722   5.800   2.413 -0.8064 -2.3340 -2.4976
13544TIP3   OH262122   3.130   3.644  11.499 -0.2920 -0.6407 -0.1387
13544TIP3    H162123   3.070   3.677  11.432  1.5337  0.6873 -1.1736
13544TIP3    H262124   3.213   3.687  11.482  0.6006 -1.2508  2.2102
13545TIP3   OH262125   2.142   6.222  15.041 -0.3100 -0.4096 -0.0028
13545TIP3    H162126   2.186   6.258  15.117 -0.9512  0.2508  0.0703
13545TIP3    H262127   2.107   6.138  15.071 -1.0483  0.1029  0.6087
13546TIP3   OH262128   1.731   3.034   5.576 -0.0343  0.1848  0.0836
13546TIP3    H162129   1.719   2.966   5.642  0.3039 -0.4696 -0.5264
13546TIP3    H262130   1.665   3.016   5.510 -0.0671  0.5614  0.0104
13547TIP3   OH262131   0.834   6.416  14.217 -0.3568  0.1292 -0.0432
13547TIP3    H162132   0.786   6.474  14.277 -0.9565  0.1447 -0.5233
13547TIP3    H262133   0.924   6.417  14.250  0.0840  2.7478 -1.0831
13548TIP3   OH262134   5.937   0.899  11.096 -0.1190  0.1292 -0.0076
13548TIP3    H162135   5.887   0.941  11.026  0.1497  0.9470  0.2808
13548TIP3    H262136   6.018   0.871  11.054  0.1792  0.9020  0.0295
13549TIP3   OH262137   3.645   0.526   3.227 -0.2942 -0.0236  0.4372
13549TIP3    H162138   3.586   0.598   3.246 -1.5161 -0.6808 -0.7208
13549TIP3    H262139   3.588   0.453   3.202  0.9666 -0.9025 -0.0292
13550TIP3   OH262140   6.103   1.397   7.173  0.4085  1.1184  0.7059
13550TIP3    H162141   6.040   1.369   7.106  2.1335  1.1720 -1.0501
13550TIP3    H262142   6.162   1.323   7.183  0.5608  1.3638  1.6932
13551TIP3   OH262143   3.674   3.263   6.135  0.2725  0.3231  0.3485
13551TIP3    H162144   3.625   3.199   6.187  0.2839 -1.2347 -1.4088
13551TIP3    H262145   3.744   3.212   6.094 -0.1404  1.2671 -1.6876
13552TIP3   OH262146   4.042   1.679   2.616 -0.3340 -0.5954 -0.0440
13552TIP3    H162147   3.965   1.723   2.579  1.0327  0.4003 -1.8423
13552TIP3    H262148   4.112   1.695   2.553  1.6214 -0.6497  1.9741
13553TIP3   OH262149   1.584   6.204   0.275 -0.1572 -0.6139  0.2197
13553TIP3    H162150   1.502   6.164   0.247 -0.9480  0.3868  1.0917
13553TIP3    H262151   1.562   6.256   0.352  1.0271  0.7241 -0.2931
13554TIP3   OH262152   3.124   2.164  13.691 -0.1003 -0.3115  0.2596
13554TIP3    H162153   3.069   2.088  13.706 -1.2323  0.1584 -1.2849
13554TIP3    H262154   3.194   2.133  13.633 -0.6911 -0.1390 -0.5561
13555TIP3   OH262155   6.550   4.912  16.930  0.3466 -0.1527  0.2722
13555TIP3    H162156   6.627   4.946  16.884  0.1641  2.8104  1.9277
13555TIP3    H262157   6.488   4.985  16.930 -0.2794 -0.5430  3.7269
13556TIP3   OH262158   6.266   5.468   2.682 -0.5430  0.2211  0.2253
13556TIP3    H162159   6.327   5.535   2.710 -0.7989  0.5975 -0.1109
13556TIP3    H262160   6.273   5.467   2.586 -1.3047  0.5067  0.1548
13557TIP3   OH262161   2.275   6.667   5.232  0.2362  0.0290 -0.4036
13557TIP3    H162162   2.306   6.741   5.179  1.2243 -0.1409 -0.0916
13557TIP3    H262163   2.341   6.599   5.217 -0.1277 -0.4350  0.0997
13558TIP3   OH262164   5.441   5.817   4.701 -0.3237 -0.3008  0.2541
13558TIP3    H162165   5.378   5.861   4.759 -0.7003  0.4158 -0.6736
13558TIP3    H262166   5.451   5.876   4.627  1.6904 -0.2451  0.4995
13559TIP3   OH262167   1.359   5.049  12.662  0.2160  0.4086 -0.4890
13559TIP3    H162168   1.445   5.006  12.666 -0.6582 -1.3954 -0.2980
13559TIP3    H262169   1.354   5.082  12.572  0.8761  0.0285 -0.6788
13560TIP3   OH262170   0.212   5.920  15.040 -0.5620 -0.2056 -0.0898
13560TIP3    H162171   0.278   5.857  15.012 -0.7286 -0.3356 -0.1968
13560TIP3    H262172   0.173   5.881  15.118  0.5085  0.5696  0.8596
13561TIP3   OH262173   5.109   3.655  15.451 -0.2793 -0.1870 -0.2530
13561TIP3    H162174   5.119   3.562  15.432  2.5722  0.3757 -2.2092
13561TIP3    H262175   5.015   3.668  15.460 -0.7315 -3.4396  1.4632
13562TIP3   OH262176   0.065   2.150   3.613  0.2626  0.4305 -0.0147
13562TIP3    H162177  -0.003   2.085   3.632  2.0648 -1.0934  1.5459
13562TIP3    H262178   0.147   2.103   3.625  1.6341  2.4508 -1.0227
13563TIP3   OH262179   0.643   1.875   5.606  0.2803  0.3413  0.0233
13563TIP3    H162180   0.638   1.933   5.681  0.2698  0.4782 -0.0823
13563TIP3    H262181   0.717   1.817   5.625  0.2473  0.3434  0.1596
13564TIP3   OH262182   4.878   2.993   6.034  0.2312  0.4958 -0.0343
13564TIP3    H162183   4.954   2.985   6.090  1.0734  1.5528 -0.9837
13564TIP3    H262184   4.817   3.049   6.083 -0.3472 -1.0713  1.1087
13565TIP3   OH262185   3.264   5.834  11.892 -0.3295  0.6376 -0.4175
13565TIP3    H162186   3.277   5.852  11.799  0.9690 -0.4899 -0.4749
13565TIP3    H262187   3.349   5.851  11.932 -0.8789  1.1309  0.5818
13566TIP3   OH262188   3.856   5.517   3.318 -0.3390 -0.4616 -0.0579
13566TIP3    H162189   3.807   5.538   3.238  0.7744 -0.3923 -0.7369
13566TIP3    H262190   3.945   5.546   3.300  1.3296 -5.2586 -0.9735
13567TIP3   OH262191   2.774   5.868  16.102 -0.0768 -0.4106 -0.0051
13567TIP3    H162192   2.684   5.878  16.072 -0.3916 -1.2894  0.6200
13567TIP3    H262193   2.806   5.789  16.059  0.6072  0.2042 -0.6795
13568TIP3   OH262194   4.144   4.504  14.471 -0.1553  0.2033 -0.2314
13568TIP3    H162195   4.221   4.559  14.462  0.0232 -0.2490 -1.8072
13568TIP3    H262196   4.165   4.424  14.423 -1.9909  0.5325 -1.7118
13569TIP3   OH262197   0.444   2.724   1.826 -0.1227  0.2334  0.4067
13569TIP3    H162198   0.408   2.808   1.798 -0.0835  0.1553  0.1088
13569TIP3    H262199   0.374   2.683   1.877 -0.5262  0.0122 -0.3030
13570TIP3   OH262200   2.334   2.412  14.722  0.0705  0.1803 -0.0678
13570TIP3    H162201   2.252   2.413  14.770 -0.0114  3.1274 -0.0369
13570TIP3    H262202   2.328   2.488  14.664  1.6301 -1.1899 -2.1730
13571TIP3   OH262203   2.023   5.661  17.126  0.4084 -0.3595  0.0994
13571TIP3    H162204   2.025   5.684  17.033 -1.4628 -0.7702 -0.0778
13571TIP3    H262205   1.934   5.680  17.153  0.5973 -1.3743  1.5332
13572TIP3   OH262206   5.553   1.762   6.571 -0.2168 -0.1502  0.2681
13572TIP3    H162207   5.536   1.800   6.657 -2.8422 -0.4664 -0.0313
13572TIP3    H262208   5.499   1.814   6.511  1.5565  0.0608 -1.2267
13573TIP3   OH262209   0.662   4.512   3.562  0.2603  0.5925  0.0741
13573TIP3    H162210   0.583   4.509   3.507 -0.3589  0.1713  0.9556
13573TIP3    H262211   0.705   4.593   3.538 -0.5285  0.9011 -0.3231
13574TIP3   OH262212   4.352   1.991  13.704 -0.0229  0.6139  0.7499
13574TIP3    H162213   4.437   1.984  13.659 -0.7124 -1.2142 -0.3845
13574TIP3    H262214   4.366   1.946  13.788 -0.6262 -2.6639 -0.7511
13575TIP3   OH262215   1.639   0.094  15.216 -0.2133  0.0266  0.1784
13575TIP3    H162216   1.590   0.159  15.266 -0.7515  0.4524 -0.8617
13575TIP3    H262217   1.578   0.021  15.205  0.4622 -0.7824  1.5284
13576TIP3   OH262218   3.898   3.982   5.964  0.2930  0.2155  0.1638
13576TIP3    H162219   3.863   3.929   5.892 -1.8873  0.3981  1.0136
13576TIP3    H262220   3.971   4.030   5.925  0.1488 -0.8286 -1.5104
13577TIP3   OH262221   3.910   6.344  11.792 -0.3410 -0.3950 -0.1482
13577TIP3    H162222   3.887   6.413  11.854 -0.9970 -0.4206 -0.3582
13577TIP3    H262223   3.921   6.266  11.847 -0.1218 -0.2441  0.0252
13578TIP3   OH262224   0.422   3.505   1.689  0.6569 -0.1318  0.2783
13578TIP3    H162225   0.409   3.459   1.772  1.4440  0.8930  0.9793
13578TIP3    H262226   0.465   3.587   1.712  2.8363 -0.7264 -1.3359
13579TIP3   OH262227   1.586   1.398   0.204 -0.3919  0.8186  0.3477
13579TIP3    H162228   1.533   1.477   0.218  0.7183  1.6971 -0.1782
13579TIP3    H262229   1.540   1.350   0.136 -0.1020  1.9999 -0.7316
13580TIP3   OH262230   5.556   1.073   5.790  0.0259  0.1202 -0.4878
13580TIP3    H162231   5.530   1.099   5.702 -2.0751  1.0111  0.3218
13580TIP3    H262232   5.612   0.997   5.777 -0.5976 -0.0478 -2.5642
13581TIP3   OH262233   3.103   1.333   4.121 -0.2040  0.1364  0.2306
13581TIP3    H162234   3.197   1.337   4.103  0.0184  1.7789  1.5527
13581TIP3    H262235   3.092   1.253   4.172  0.2768 -0.6453 -0.8471
13582TIP3   OH262236   1.219   2.764  12.704  0.9111  0.0537  0.6123
13582TIP3    H162237   1.154   2.731  12.767 -0.3405 -1.7507 -1.4721
13582TIP3    H262238   1.189   2.732  12.619  3.0473  1.5644 -0.8340
13583TIP3   OH262239   4.857   3.432  13.714 -0.7368  0.0986 -0.4504
13583TIP3    H162240   4.885   3.344  13.690  0.1694  0.4393 -0.6906
13583TIP3    H262241   4.822   3.423  13.803  2.3950  0.0464  0.8954
13584TIP3   OH262242   6.473   6.652  15.655 -0.2950  0.3505  0.1661
13584TIP3    H162243   6.522   6.572  15.669 -1.0923 -0.0995  0.4544
13584TIP3    H262244   6.506   6.712  15.722 -0.3976 -0.0662  0.5944
13585TIP3   OH262245   5.105   0.113   2.595  0.3894  0.5549 -0.0054
13585TIP3    H162246   5.023   0.065   2.612  0.8141 -0.3394 -0.4136
13585TIP3    H262247   5.126   0.154   2.679  0.2787 -0.4104  0.5160
13586TIP3   OH262248   1.075   1.400   3.190  0.7396 -0.1881  0.0784
13586TIP3    H162249   1.134   1.468   3.158  0.1622  1.2263  1.8468
13586TIP3    H262250   1.005   1.396   3.126 -0.5035  2.6908  1.0857
13587TIP3   OH262251   5.257   1.997  11.669 -0.7233  0.3606 -0.1818
13587TIP3    H162252   5.193   1.970  11.604 -0.6226 -0.7182  0.1428
13587TIP3    H262253   5.206   2.010  11.750 -0.4674 -1.1236  0.2390
13588TIP3   OH262254   2.632   6.165   3.640  0.1163 -0.2679  0.1376
13588TIP3    H162255   2.602   6.087   3.593  0.5867 -0.3829  0.0243
13588TIP3    H262256   2.686   6.131   3.711  1.4863  0.0004 -0.7539
13589TIP3   OH262257   3.307   6.070  16.864  0.0160  0.1209 -0.1206
13589TIP3    H162258   3.319   6.164  16.878  0.0433 -0.0631  1.2035
13589TIP3    H262259   3.395   6.033  16.876 -0.4908 -0.4174  2.6294
13590TIP3   OH262260   0.895   6.205  16.108 -0.5389 -0.3312 -0.0383
13590TIP3    H162261   0.862   6.269  16.171 -1.3845 -0.4902 -0.3054
13590TIP3    H262262   0.835   6.131  16.116 -0.2118 -0.6506 -0.5108
13591TIP3   OH262263   3.695   5.552   3.966 -0.0758 -0.0519 -0.3126
13591TIP3    H162264   3.752   5.619   3.928  0.2721 -1.7510 -3.0430
13591TIP3    H262265   3.614   5.558   3.915 -0.2096 -1.3669 -0.2731
13592TIP3   OH262266   4.733   5.547   4.450  0.0066 -0.5116  0.3338
13592TIP3    H162267   4.648   5.533   4.491 -1.6236  1.9965 -1.8304
13592TIP3    H262268   4.758   5.635   4.477  1.5568 -0.9097  0.2698
13593TIP3   OH262269   3.082   6.800  12.236 -0.1524 -0.2132  0.3701
13593TIP3    H162270   3.144   6.766  12.172 -2.3171 -0.1610 -1.8903
13593TIP3    H262271   3.069   6.891  12.211 -0.1731  0.1536  1.6478
13594TIP3   OH262272   4.045   4.157  14.490  0.0879 -0.1596  0.6185
13594TIP3    H162273   3.985   4.178  14.562 -1.2880 -0.4921 -0.3909
13594TIP3    H262274   4.034   4.230  14.428  1.5742  0.3418  0.9122
13595TIP3   OH262275   5.079   4.484  14.187  0.3314 -0.3318  0.6689
13595TIP3    H162276   5.117   4.555  14.239 -0.7331  1.3173 -0.6782
13595TIP3    H262277   5.122   4.493  14.101 -3.1263  1.8765 -1.0621
13596TIP3   OH262278   3.427   3.278  14.186  0.1156  0.7783  0.3970
13596TIP3    H162279   3.359   3.341  14.167 -0.3610 -0.0252 -0.6934
13596TIP3    H262280   3.426   3.268  14.281 -2.9782 -0.9788  0.3246
13597TIP3   OH262281   2.149   1.516  11.242 -0.1896  0.0277  0.3915
13597TIP3    H162282   2.104   1.476  11.167 -0.0109  1.0868 -0.3060
13597TIP3    H262283   2.236   1.537  11.208 -0.5656  1.8095  0.4515
13598TIP3   OH262284   4.607   4.903  11.267 -0.2374 -0.4009 -0.2896
13598TIP3    H162285   4.598   4.826  11.211 -2.1122 -0.6102  0.2135
13598TIP3    H262286   4.633   4.868  11.352 -0.2664 -0.3903 -0.2768
13599TIP3   OH262287   3.026   2.960  13.986 -0.2489 -0.0177 -0.6458
13599TIP3    H162288   2.946   2.999  14.020 -0.7286 -1.5590  0.0936
13599TIP3    H262289   3.060   2.908  14.058 -0.3667 -2.0042 -1.9479
13600TIP3   OH262290   2.965   5.730  14.116 -0.0342 -0.4827 -0.2675
13600TIP3    H162291   3.034   5.682  14.162 -1.4877 -1.3128  1.1961
13600TIP3    H262292   2.995   5.821  14.115  0.5711 -0.6172  1.4108
13601TIP3   OH262293   6.489   2.321   0.301 -0.4393 -0.4440  0.1000
13601TIP3    H162294   6.558   2.330   0.367 -1.8167  0.8164  1.4590
13601TIP3    H262295   6.491   2.229   0.277  1.1422 -0.6093  0.7240
13602TIP3   OH262296   0.554   6.429  14.069  0.4552  0.6655 -0.1844
13602TIP3    H162297   0.558   6.515  14.111 -2.3407  0.8177 -0.0748
13602TIP3    H262298   0.521   6.447  13.981 -0.7778 -0.3333  0.0535
13603TIP3   OH262299   1.803   3.767   1.011  0.0556 -0.5982  0.0003
13603TIP3    H162300   1.834   3.704   1.076  3.9239  0.8441 -0.1792
13603TIP3    H262301   1.859   3.752   0.935  1.2630  2.9843 -0.0036
13604TIP3   OH262302   1.302   0.661   4.731 -0.2219  0.0199  0.1766
13604TIP3    H162303   1.268   0.648   4.642  1.3399 -1.0407 -0.3036
13604TIP3    H262304   1.298   0.574   4.771 -1.4827  0.6050  1.3944
13605TIP3   OH262305   3.628   3.190   5.733  0.7572 -0.1487  0.1652
13605TIP3    H162306   3.549   3.157   5.776  0.5267  0.1835  0.0024
13605TIP3    H262307   3.700   3.147   5.778  0.4292 -1.8611 -0.8452
13606TIP3   OH262308   0.812   0.504   3.205 -0.0837  0.1179  0.2979
13606TIP3    H162309   0.882   0.445   3.178  1.1059  1.9210 -0.7579
13606TIP3    H262310   0.835   0.530   3.294  1.7940  2.2541 -0.7177
13607TIP3   OH262311   0.387   4.672   5.766 -0.0204 -0.5051  0.1541
13607TIP3    H162312   0.384   4.641   5.857 -1.4134  0.8967  0.6473
13607TIP3    H262313   0.480   4.673   5.744  0.3400 -0.9552  1.5388
13608TIP3   OH262314   6.438   3.882  11.889 -0.5789 -0.0353 -0.7502
13608TIP3    H162315   6.499   3.921  11.827 -1.9574  1.5691 -1.1771
13608TIP3    H262316   6.402   3.805  11.843  0.1947 -0.2787 -0.9585
13609TIP3   OH262317   0.738   4.272   0.651  0.1052 -0.0960  0.6206
13609TIP3    H162318   0.645   4.294   0.647  0.5740  1.8968 -0.1300
13609TIP3    H262319   0.750   4.207   0.582 -0.4531  0.7143 -0.2561
13610TIP3   OH262320   2.691   6.618  14.048 -0.4977  0.5952 -0.5262
13610TIP3    H162321   2.599   6.635  14.031 -0.7364 -0.0029  0.1035
13610TIP3    H262322   2.731   6.704  14.058 -1.0563  0.8444 -0.4458
13611TIP3   OH262323   1.687   6.673  12.709  0.0995  0.6455 -0.2340
13611TIP3    H162324   1.740   6.597  12.687 -0.1013  0.2070  0.7514
13611TIP3    H262325   1.651   6.702  12.625 -0.4080 -0.7764 -0.5295
13612TIP3   OH262326   2.486   3.532  16.448 -0.0610  0.4132 -0.4577
13612TIP3    H162327   2.446   3.448  16.470 -2.2894  1.4803 -0.1192
13612TIP3    H262328   2.512   3.569  16.532  1.3646 -0.1200 -0.6490
13613TIP3   OH262329   0.932   3.039   5.453 -0.6707 -0.1346  0.1030
13613TIP3    H162330   1.019   3.072   5.477  0.2449 -1.1691 -1.6063
13613TIP3    H262331   0.915   2.969   5.517 -0.0287 -0.2340  0.1781
13614TIP3   OH262332   3.969   6.250   4.543  0.1631  0.5503  0.0898
13614TIP3    H162333   3.923   6.308   4.482 -2.2479  0.7109  1.9279
13614TIP3    H262334   3.900   6.198   4.584  1.8277 -0.5218  1.6726
13615TIP3   OH262335   6.140   3.393  16.038  0.4391  0.0172  0.0721
13615TIP3    H162336   6.112   3.426  16.123 -0.5229  1.3210 -0.7071
13615TIP3    H262337   6.147   3.471  15.983  0.3336 -0.8601 -1.2361
13616TIP3   OH262338   3.492   4.573   2.299  0.5256 -0.4779  0.6696
13616TIP3    H162339   3.469   4.480   2.306  0.6204 -0.5305  0.3092
13616TIP3    H262340   3.583   4.577   2.328  0.1051 -0.2780  2.0391
13617TIP3   OH262341   1.559   2.734  15.209 -0.7657 -0.4746 -0.1899
13617TIP3    H162342   1.638   2.756  15.160  0.2733 -2.0112  0.7204
13617TIP3    H262343   1.506   2.814  15.206  1.0694  0.8031 -0.3251
13618TIP3   OH262344   0.884   5.444  13.891  0.0062 -0.4096  0.1503
13618TIP3    H162345   0.924   5.357  13.899 -1.2155 -1.0558 -0.4857
13618TIP3    H262346   0.807   5.440  13.948 -0.5671 -0.0629 -0.5845
13619TIP3   OH262347   2.066   0.013  16.356  0.4279  0.2355  0.7285
13619TIP3    H162348   1.977   0.035  16.381  0.1436 -0.0597  0.0299
13619TIP3    H262349   2.118   0.022  16.436 -0.2461  0.3200  1.1571
13620TIP3   OH262350   2.432   5.154   2.878  0.0091 -0.4683  0.2748
13620TIP3    H162351   2.519   5.194   2.874  0.0955 -0.6394  0.4321
13620TIP3    H262352   2.372   5.227   2.866  0.1755 -0.3609  0.0835
13621TIP3   OH262353   1.391   2.270   0.747  0.4588 -0.3480  0.5229
13621TIP3    H162354   1.298   2.289   0.762  0.6404  1.9845 -0.8687
13621TIP3    H262355   1.392   2.222   0.664  0.5531  0.4951  0.0312
13622TIP3   OH262356   2.517   3.486  16.035  0.0413  1.1477  0.1533
13622TIP3    H162357   2.511   3.414  15.972 -0.5454  0.2950  1.1436
13622TIP3    H262358   2.601   3.471  16.079 -0.5937  0.3558  1.1520
13623TIP3   OH262359   4.954   3.733  15.752 -0.3363 -0.2290  0.4661
13623TIP3    H162360   5.027   3.679  15.782  1.2518  0.8447 -1.2312
13623TIP3    H262361   4.904   3.675  15.694 -0.4779 -0.7798  1.1272
13624TIP3   OH262362   5.469   2.647   2.903 -0.3528 -0.4964  0.6211
13624TIP3    H162363   5.443   2.735   2.929 -0.7421 -0.5493  0.4073
13624TIP3    H262364   5.547   2.661   2.849 -1.4923 -0.1361 -0.9762
13625TIP3   OH262365   0.369   5.315   2.285 -0.0766 -0.8383  0.3996
13625TIP3    H162366   0.446   5.337   2.336 -0.8106  2.1131  0.3959
13625TIP3    H262367   0.403   5.288   2.200  1.0073  1.6928 -0.0477
13626TIP3   OH262368   5.624   3.515   0.321 -0.3171 -0.2143  0.3351
13626TIP3    H162369   5.717   3.505   0.298 -0.1660 -1.3022  1.3304
13626TIP3    H262370   5.617   3.605   0.351  0.0696  0.3687 -1.1862
13627TIP3   OH262371   1.727   2.652   0.205 -0.4242 -0.6220  0.2007
13627TIP3    H162372   1.637   2.625   0.193 -0.4037 -0.8344  0.5217
13627TIP3    H262373   1.723   2.747   0.212 -0.7947 -0.7130  1.6245
13628TIP3   OH262374   2.790   5.643  12.464 -0.8923 -0.3901  0.4451
13628TIP3    H162375   2.794   5.550  12.443 -1.3375 -0.5226  0.9272
13628TIP3    H262376   2.767   5.685  12.381 -0.1898 -0.6501  0.1096
13629TIP3   OH262377   2.669   6.775  11.423 -0.4424  0.1908  0.5252
13629TIP3    H162378   2.661   6.797  11.330 -0.2311  0.0379  0.4709
13629TIP3    H262379   2.607   6.703  11.436 -1.2672  0.9260  0.7416
13630TIP3   OH262380   3.487   0.835  16.038  0.3107  0.2498  0.0337
13630TIP3    H162381   3.506   0.921  16.001  1.2679 -0.5165 -1.2973
13630TIP3    H262382   3.569   0.807  16.078 -0.0106 -0.0504  0.5024
13631TIP3   OH262383   4.516   5.643  16.601 -0.1044  0.1504  0.3102
13631TIP3    H162384   4.520   5.736  16.622  2.3730  0.3131 -0.4576
13631TIP3    H262385   4.441   5.634  16.543 -0.0279  1.7982 -0.0899
13632TIP3   OH262386   1.871   0.746  16.396 -0.2034 -0.3534 -0.5286
13632TIP3    H162387   1.923   0.736  16.475  0.3992 -2.5041 -1.1445
13632TIP3    H262388   1.850   0.840  16.393  1.3265  0.0973  1.1699
13633TIP3   OH262389   5.239   3.478  12.934 -0.3352  0.3218 -0.1467
13633TIP3    H162390   5.185   3.535  12.879  1.1481  3.2339  1.1992
13633TIP3    H262391   5.176   3.429  12.987 -1.6999  1.7412 -0.3925
13634TIP3   OH262392   6.042   0.219   0.330 -0.0823 -0.2210 -1.0760
13634TIP3    H162393   6.131   0.185   0.339 -1.1822 -2.8213  1.4784
13634TIP3    H262394   5.995   0.152   0.281 -0.4377  1.7933 -3.7292
13635TIP3   OH262395   2.594   3.448  17.186  0.6189 -0.2260  0.2230
13635TIP3    H162396   2.509   3.421  17.153  0.9920 -0.5939 -0.4642
13635TIP3    H262397   2.644   3.472  17.107  0.8798  0.7762  0.6780
13636TIP3   OH262398   3.364   4.426   6.253 -0.4233  0.2647  0.1448
13636TIP3    H162399   3.365   4.396   6.344  0.5584  1.0614  0.4185
13636TIP3    H262400   3.454   4.452   6.235 -0.2079 -1.5017 -1.6315
13637TIP3   OH262401   4.336   4.783   5.599  0.1268 -0.4847  0.5000
13637TIP3    H162402   4.408   4.812   5.654 -1.4039  2.1777  1.2876
13637TIP3    H262403   4.353   4.824   5.514  0.4868 -1.4234  0.1036
13638TIP3   OH262404   1.219   3.549  12.260  0.2655  0.3189  0.5346
13638TIP3    H162405   1.284   3.488  12.226 -0.1405  0.1150  0.1125
13638TIP3    H262406   1.250   3.635  12.232 -0.0891  0.1505 -0.4193
13639TIP3   OH262407   6.639   3.530  11.019  0.0846 -0.3227 -0.6851
13639TIP3    H162408   6.715   3.473  11.003  0.1621 -0.7444  1.0552
13639TIP3    H262409   6.635   3.540  11.114 -1.6331  0.2671 -0.7801
13640TIP3   OH262410   2.596   6.026   4.419  0.1691 -0.1764 -0.0641
13640TIP3    H162411   2.541   5.947   4.419 -0.2483 -0.1661  4.8105
13640TIP3    H262412   2.537   6.096   4.390 -0.8558 -0.9611  0.0638
13641TIP3   OH262413   1.723   2.854  16.045 -0.3981 -0.0734  0.2327
13641TIP3    H162414   1.715   2.768  16.085  0.1974  0.1948  0.9529
13641TIP3    H262415   1.790   2.898  16.097 -0.7306  0.8410 -0.0943
13642TIP3   OH262416   5.850   5.191  12.960 -0.1494  0.0227  0.0985
13642TIP3    H162417   5.793   5.140  13.019  0.7527  0.0945  1.0555
13642TIP3    H262418   5.932   5.141  12.957  0.2866  0.7354 -0.0016
13643TIP3   OH262419   6.704   2.790   3.685  0.1385  0.2920 -0.2701
13643TIP3    H162420   6.630   2.816   3.739  0.4172 -0.4160  0.4808
13643TIP3    H262421   6.736   2.872   3.647 -1.6511  0.4915 -1.4637
13644TIP3   OH262422   5.964   0.323   0.571  0.7735  0.3051 -0.3736
13644TIP3    H162423   5.992   0.306   0.481  1.6956  0.7909 -0.1890
13644TIP3    H262424   5.936   0.237   0.603  1.9947 -0.2007 -0.6022
13645TIP3   OH262425   1.699   4.045  10.601  0.0324 -0.3974  0.0351
13645TIP3    H162426   1.626   4.029  10.542  0.3772  0.6707 -0.7159
13645TIP3    H262427   1.670   4.116  10.658 -0.7381 -2.1653  2.0006
13646TIP3   OH262428   5.925   1.586   5.320  0.1906 -0.2884  0.1586
13646TIP3    H162429   5.967   1.663   5.358 -1.6976  0.0042  1.7702
13646TIP3    H262430   5.920   1.523   5.392 -0.9912 -0.7667 -0.3181
13647TIP3   OH262431   2.949   0.407   2.658  0.1917  0.3331  0.0207
13647TIP3    H162432   2.930   0.500   2.668  0.8716  0.4745  0.0297
13647TIP3    H262433   2.934   0.389   2.565  0.4000  0.5320 -0.0522
13648TIP3   OH262434   2.088   1.252   6.132  0.1108  0.2694  0.1726
13648TIP3    H162435   2.150   1.298   6.189 -0.1716  0.1332  0.6007
13648TIP3    H262436   2.003   1.263   6.176 -0.1852  0.5422 -0.4604
13649TIP3   OH262437   1.100   4.848  12.527 -0.4507  0.1365 -0.5211
13649TIP3    H162438   1.162   4.796  12.578 -0.2084  1.1023  0.2160
13649TIP3    H262439   1.019   4.845  12.578 -0.3667  0.6554 -0.3469
13650TIP3   OH262440   6.241   1.893   3.910 -0.3802  0.1030  0.0661
13650TIP3    H162441   6.300   1.863   3.840  0.6904 -0.9791  1.3875
13650TIP3    H262442   6.156   1.857   3.886  0.1651 -1.0456 -0.2097
13651TIP3   OH262443   0.201   5.671  12.985  0.1927  0.1188  0.0317
13651TIP3    H162444   0.294   5.651  12.998  0.2651  0.0321 -0.5869
13651TIP3    H262445   0.155   5.597  13.024  0.3788  0.2253  0.4561
13652TIP3   OH262446   1.302   4.630   1.505  0.6793  0.0663  0.1390
13652TIP3    H162447   1.389   4.596   1.522  1.0537 -0.1412 -1.9203
13652TIP3    H262448   1.272   4.663   1.589  2.0815 -1.3296  1.2411
13653TIP3   OH262449   3.991   3.496   2.701  0.0326  0.0098 -0.1687
13653TIP3    H162450   3.973   3.561   2.769  0.1984 -0.7197  0.5999
13653TIP3    H262451   4.086   3.487   2.701  0.0054 -0.3020 -0.1974
13654TIP3   OH262452   2.686   2.926  12.347 -0.1124  0.2719 -0.2623
13654TIP3    H162453   2.633   3.002  12.321 -0.2022  1.0329  1.8825
13654TIP3    H262454   2.771   2.963  12.371 -0.7922  0.1391  2.8662
13655TIP3   OH262455   1.927   6.032  14.655 -0.0909 -0.5954  0.0837
13655TIP3    H162456   1.836   6.007  14.666 -0.1847  0.5695  3.0698
13655TIP3    H262457   1.976   5.952  14.673 -0.5063 -0.8588  0.0506
13656TIP3   OH262458   3.798   0.135  11.023  0.0420  0.7861 -0.4625
13656TIP3    H162459   3.867   0.074  10.998 -0.2291  0.6999 -1.0121
13656TIP3    H262460   3.834   0.222  11.003  0.5428  0.8402  0.5943
13657TIP3   OH262461   3.489   4.080  16.074  0.7062  0.1710  0.6291
13657TIP3    H162462   3.496   4.167  16.113  2.4735 -0.6372  2.2703
13657TIP3    H262463   3.443   4.029  16.140 -3.5084  0.5039 -1.6788
13658TIP3   OH262464   1.742   5.049  11.353 -0.3677  0.1610  0.3222
13658TIP3    H162465   1.721   5.141  11.370 -0.4246  0.1013  0.5855
13658TIP3    H262466   1.712   5.003  11.432 -2.8440 -0.4450 -0.8550
13659TIP3   OH262467   0.343   2.950   0.523  0.5057 -0.2030 -0.3542
13659TIP3    H162468   0.342   2.862   0.486  0.0379 -1.2058  1.8687
13659TIP3    H262469   0.389   2.940   0.607 -1.5930  1.1502  1.0618
13660TIP3   OH262470   1.332   2.754  17.189 -0.7909  0.1410 -0.3244
13660TIP3    H162471   1.304   2.679  17.136  2.3230 -1.6604  0.3047
13660TIP3    H262472   1.371   2.814  17.126 -1.0625  0.0639 -0.5662
13661TIP3   OH262473   0.547   4.031   5.887 -0.2923  0.3376  0.5283
13661TIP3    H162474   0.485   3.965   5.915  0.4942 -0.0227  1.5038
13661TIP3    H262475   0.524   4.109   5.938  1.0815 -0.2923  2.2441
13662TIP3   OH262476   6.059   2.431  15.070  0.3825 -0.3538 -0.2583
13662TIP3    H162477   6.075   2.492  15.142 -0.6783 -0.8467  0.4210
13662TIP3    H262478   6.031   2.487  14.997 -1.5858 -0.0551  0.6629
13663TIP3   OH262479   1.242   1.186   3.664  0.0979  0.0610  0.1746
13663TIP3    H162480   1.238   1.195   3.569  0.1034 -1.4589  0.0004
13663TIP3    H262481   1.180   1.251   3.697  1.0898  1.5467 -0.7816
13664TIP3   OH262482   1.025   3.954  12.711 -0.4091  0.1718  0.0132
13664TIP3    H162483   1.001   4.019  12.646  0.4726 -1.1442 -1.6886
13664TIP3    H262484   1.052   4.005  12.787  1.4908  1.8527 -1.6851
13665TIP3   OH262485   6.257   6.327  12.721 -0.0502  0.5915  0.5147
13665TIP3    H162486   6.186   6.358  12.665 -1.5903 -0.8932  1.5544
13665TIP3    H262487   6.291   6.250  12.675  1.0950  1.4036 -0.0785
13666TIP3   OH262488   4.275   0.523   3.634  0.0073  0.1101  0.3391
13666TIP3    H162489   4.200   0.526   3.693  0.2564 -0.6467  0.7058
13666TIP3    H262490   4.350   0.504   3.691  0.9519  3.3834  0.3926
13667TIP3   OH262491   1.618   4.049  13.650 -0.1570 -0.0765  0.2138
13667TIP3    H162492   1.699   3.998  13.648 -0.1280 -0.0166 -1.8403
13667TIP3    H262493   1.548   3.984  13.647 -0.1384 -0.0698 -0.5755
13668TIP3   OH262494   3.760   1.508  12.920  0.9309  0.5475  0.1429
13668TIP3    H162495   3.825   1.564  12.963  0.7855  2.4443 -1.8805
13668TIP3    H262496   3.676   1.546  12.946  0.7515  0.0657  0.2622
13669TIP3   OH262497   1.413   4.378   6.522 -0.7003  0.0884 -0.4613
13669TIP3    H162498   1.339   4.416   6.569  0.6016  2.4596 -0.1441
13669TIP3    H262499   1.373   4.319   6.457 -2.6848 -0.6686  1.3262
13670TIP3   OH262500   6.259   2.382   3.118 -0.3965 -0.1062  0.3067
13670TIP3    H162501   6.254   2.349   3.029 -0.8359 -0.4719  0.4626
13670TIP3    H262502   6.351   2.369   3.144 -0.4524 -0.7539  0.1940
13671TIP3   OH262503   6.316   4.983  11.872 -0.5957  0.2054  0.1651
13671TIP3    H162504   6.352   5.003  11.785 -0.2803 -1.7323 -0.2034
13671TIP3    H262505   6.225   4.958  11.855 -0.8473  0.8546  0.5360
13672TIP3   OH262506   1.593   2.244   2.257  0.1047  0.5150  0.6162
13672TIP3    H162507   1.552   2.265   2.173 -1.4542 -0.5823  1.0500
13672TIP3    H262508   1.685   2.227   2.236 -0.1842  0.6006 -0.7927
13673TIP3   OH262509   0.486   1.083   5.012  0.1867 -0.0653  0.3610
13673TIP3    H162510   0.576   1.093   4.979 -0.6575 -1.1018 -2.6813
13673TIP3    H262511   0.494   1.025   5.087  1.9544 -1.7844 -1.0451
13674TIP3   OH262512   2.562   1.410   4.229  0.1253 -0.6126 -1.0469
13674TIP3    H162513   2.587   1.500   4.250  0.8279 -1.0073 -0.1298
13674TIP3    H262514   2.537   1.372   4.314 -0.7543 -1.1120 -1.5141
13675TIP3   OH262515   0.184   1.583   0.026 -0.2514  0.1153  0.2402
13675TIP3    H162516   0.227   1.498   0.024 -0.6456 -0.1215  1.0754
13675TIP3    H262517   0.234   1.638  -0.035  0.6554 -0.4056  0.4993
13676TIP3   OH262518   5.292   6.299  14.449  0.5299 -0.3411 -0.0853
13676TIP3    H162519   5.355   6.347  14.502 -0.0462  2.6509 -1.8895
13676TIP3    H262520   5.215   6.290  14.506  1.3534 -0.9857  0.9577
13677TIP3   OH262521   6.113   6.511  15.525 -0.6025  0.2903  0.1331
13677TIP3    H162522   6.199   6.515  15.567 -0.3430  0.6796 -0.4128
13677TIP3    H262523   6.098   6.417  15.511  0.0878  0.2578 -0.4545
13678TIP3   OH262524   2.928   2.649   4.165 -0.4283 -0.0244 -0.3924
13678TIP3    H162525   3.014   2.607   4.166 -0.1996  0.4416 -0.3185
13678TIP3    H262526   2.868   2.581   4.133 -0.0534 -0.3857 -0.3256
13679TIP3   OH262527   6.489   5.252  13.463  0.6386  0.3030 -0.2620
13679TIP3    H162528   6.459   5.163  13.447  0.4852  0.3855 -0.4449
13679TIP3    H262529   6.554   5.269  13.395  0.0705  0.6136 -0.7404
13680TIP3   OH262530   4.109   4.556   6.210  0.1090 -0.1741  0.3354
13680TIP3    H162531   4.036   4.518   6.260 -1.7320  0.2774 -1.8409
13680TIP3    H262532   4.118   4.644   6.246  0.4233 -0.6247  1.4175
13681TIP3   OH262533   1.555   1.869   2.899 -0.2435 -0.0215 -0.2757
13681TIP3    H162534   1.574   1.845   2.989  0.2973  0.4756 -0.2494
13681TIP3    H262535   1.639   1.897   2.864 -1.0250  3.0778  0.0798
13682TIP3   OH262536   2.158   5.716  11.971  0.1719  0.1801 -0.1786
13682TIP3    H162537   2.246   5.679  11.967  0.1209 -0.2498  1.7977
13682TIP3    H262538   2.149   5.746  12.061 -0.9400  2.2021 -0.9219
13683TIP3   OH262539   2.446   5.655  11.874  0.2106  0.4911 -0.5902
13683TIP3    H162540   2.395   5.659  11.794  0.1052  0.2576 -0.5364
13683TIP3    H262541   2.535   5.635  11.846 -0.2690 -2.2615 -0.5253
13684TIP3   OH262542   1.876   4.724  16.699  0.0762  0.0599  0.1015
13684TIP3    H162543   1.964   4.733  16.662 -0.2653 -0.4774 -0.8812
13684TIP3    H262544   1.885   4.756  16.789  1.3868 -0.4340  0.1742
13685TIP3   OH262545   5.938   3.722   2.432  0.2631  0.1958 -0.2362
13685TIP3    H162546   5.982   3.804   2.408  1.0735 -0.4057 -0.8970
13685TIP3    H262547   5.867   3.749   2.491  1.4938  1.2252  0.8626
13686TIP3   OH262548   3.916   2.227  16.595  0.1918  0.4988 -0.1966
13686TIP3    H162549   3.940   2.145  16.552 -1.1525 -0.2873  0.4962
13686TIP3    H262550   3.906   2.290  16.524 -0.1674 -0.2984 -0.8616
13687TIP3   OH262551   3.719   1.731  12.372 -0.1385  0.0474 -0.0516
13687TIP3    H162552   3.758   1.773  12.294  0.9761 -1.2121 -0.2026
13687TIP3    H262553   3.730   1.796  12.441  0.7516  0.3854 -0.4861
13688TIP3   OH262554   3.825   3.620  13.638 -0.3461  0.3614  0.9983
13688TIP3    H162555   3.894   3.631  13.703 -0.0599 -0.0237  0.7606
13688TIP3    H262556   3.838   3.532  13.603 -0.2000  0.7300  0.0775
13689TIP3   OH262557   1.731   1.507  13.905  0.0122 -0.1523  0.1214
13689TIP3    H162558   1.734   1.565  13.981 -0.7954 -1.7125  1.4021
13689TIP3    H262559   1.818   1.468  13.902  0.5449  1.0318 -0.7173
13690TIP3   OH262560   3.221   0.929   2.956 -0.0174 -0.0150 -0.0469
13690TIP3    H162561   3.238   0.980   2.877 -0.4537  0.0212 -0.1205
13690TIP3    H262562   3.306   0.925   3.001  0.8134 -1.9234 -1.6002
13691TIP3   OH262563   2.052   2.341   6.168  0.3299 -0.5099 -0.5077
13691TIP3    H162564   2.067   2.257   6.211 -1.3696  0.0510  1.3083
13691TIP3    H262565   2.048   2.405   6.239  0.8586  1.0134 -1.7951
13692TIP3   OH262566   3.531   5.024   2.469  0.4418  0.1695 -0.1772
13692TIP3    H162567   3.511   4.946   2.417 -1.5203 -0.0207  0.8043
13692TIP3    H262568   3.497   5.097   2.417  0.5183  0.1885 -0.2000
13693TIP3   OH262569   2.263   5.516   6.377  0.2427  0.9278 -0.1333
13693TIP3    H162570   2.217   5.494   6.458 -0.4383  0.9290 -0.5134
13693TIP3    H262571   2.345   5.556   6.406  0.4627 -0.0120  0.5534
13694TIP3   OH262572   6.659   4.358  16.173 -0.2635 -0.1192 -0.2074
13694TIP3    H162573   6.737   4.349  16.118  0.8785 -0.5430  1.4349
13694TIP3    H262574   6.627   4.446  16.155  0.5762  0.0528 -0.9209
13695TIP3   OH262575   3.479   2.819  15.931  0.3975  0.0939  0.1103
13695TIP3    H162576   3.515   2.739  15.892  0.7730 -0.1527  0.9534
13695TIP3    H262577   3.413   2.788  15.993  1.2373  0.3760  1.1785
13696TIP3   OH262578   0.410   1.112   4.421  1.2147  0.3248  0.1007
13696TIP3    H162579   0.435   1.165   4.345 -2.7131  0.3299 -1.4085
13696TIP3    H262580   0.457   1.029   4.408  0.3645  0.1739 -2.6510
13697TIP3   OH262581   0.792   0.674   1.856  0.4022 -0.6171  0.6446
13697TIP3    H162582   0.874   0.704   1.895 -0.2765  1.4468  0.5691
13697TIP3    H262583   0.808   0.676   1.762  0.1063  0.3824  0.6013
13698TIP3   OH262584   4.520   6.166  16.754 -0.1308  0.1795 -0.0799
13698TIP3    H162585   4.576   6.243  16.749 -1.1872  1.0781  1.2762
13698TIP3    H262586   4.449   6.183  16.692  0.6318 -0.6045 -1.2098
13699TIP3   OH262587   0.461   5.541   0.438  0.4097  0.4196 -0.0014
13699TIP3    H162588   0.535   5.481   0.439  0.0760 -0.0469  2.2048
13699TIP3    H262589   0.421   5.531   0.524 -1.8888  1.0867 -0.9134
13700TIP3   OH262590   3.735   4.334   3.330  0.0763 -0.1099  0.2949
13700TIP3    H162591   3.750   4.408   3.389 -0.6638  0.7338 -0.5405
13700TIP3    H262592   3.801   4.345   3.261 -0.6829  0.3828 -0.3768
13701TIP3   OH262593   4.102   6.620   1.664  0.4977  0.5724 -0.0606
13701TIP3    H162594   4.189   6.618   1.704  0.9748 -0.4702 -1.0777
13701TIP3    H262595   4.109   6.684   1.594  0.6764 -0.0208 -0.5971
13702TIP3   OH262596   0.335   2.126   6.681  0.2142 -0.3055 -0.3757
13702TIP3    H162597   0.271   2.188   6.717  0.5786 -0.1428 -0.0069
13702TIP3    H262598   0.361   2.164   6.597  1.8767  1.0563  0.6946
13703TIP3   OH262599   2.435   3.822   3.822  0.4575 -0.2541  1.3937
13703TIP3    H162600   2.412   3.734   3.850  0.7820 -0.1429  2.0505
13703TIP3    H262601   2.438   3.873   3.904  2.0008 -0.0468  1.2482
13704TIP3   OH262602   1.916   6.002  16.265  0.1769  0.3537 -0.6051
13704TIP3    H162603   1.947   6.092  16.269  2.0093 -0.1786 -1.5549
13704TIP3    H262604   1.982   5.951  16.312 -1.6865 -0.3645  1.4223
13705TIP3   OH262605   3.172   0.103   6.353 -0.0874 -0.1324  0.1106
13705TIP3    H162606   3.096   0.123   6.298  1.4081  0.8857 -1.6923
13705TIP3    H262607   3.241   0.080   6.290  1.0622 -1.2518  1.7097
13706TIP3   OH262608   4.350   5.471  13.713 -0.3356  0.4793 -0.2899
13706TIP3    H162609   4.360   5.440  13.623 -1.2639  0.3256 -0.3409
13706TIP3    H262610   4.440   5.487  13.742  0.2317 -2.2003 -0.2933
13707TIP3   OH262611   1.933   0.940  12.153  0.2697 -0.2096  0.3951
13707TIP3    H162612   1.950   1.030  12.126  2.0839 -0.3065  1.0452
13707TIP3    H262613   2.020   0.900  12.158 -0.4175 -1.6910  1.1673
13708TIP3   OH262614   3.888   2.039   5.851 -0.1650 -0.3049 -0.4996
13708TIP3    H162615   3.831   1.977   5.805 -0.6270 -0.4245  0.2026
13708TIP3    H262616   3.974   2.028   5.811 -0.3702 -0.9942 -0.7641
13709TIP3   OH262617   5.653   3.515   0.971 -0.8238  0.6894  0.0384
13709TIP3    H162618   5.615   3.525   1.059 -0.9141  0.2784  0.0458
13709TIP3    H262619   5.745   3.496   0.987 -0.7304  1.1098  0.0304
13710TIP3   OH262620   0.871   0.632   0.609  0.2166  0.4414  0.0756
13710TIP3    H162621   0.842   0.564   0.671  2.1267  0.4264  1.0029
13710TIP3    H262622   0.830   0.606   0.526 -0.2384 -1.0508  0.7192
13711TIP3   OH262623   5.976   1.636   0.461  0.1429  0.1266 -0.1021
13711TIP3    H162624   6.044   1.644   0.394 -0.1958  0.5467 -0.3989
13711TIP3    H262625   5.915   1.572   0.425 -0.6259  1.1620 -0.7172
13712TIP3   OH262626   0.929   3.580  17.164 -0.2965  0.3285  0.7402
13712TIP3    H162627   0.884   3.631  17.232 -0.7801  2.3037 -0.9784
13712TIP3    H262628   0.864   3.517  17.133 -0.3065 -0.0691  1.5319
13713TIP3   OH262629   0.038   1.357   1.145 -0.2535 -0.1617 -0.2973
13713TIP3    H162630   0.129   1.374   1.120 -0.3769  1.9066  0.4461
13713TIP3    H262631   0.028   1.400   1.230 -2.4566  1.5192 -1.3023
13714TIP3   OH262632   3.896   4.387  12.257 -0.3862  0.1070  0.3498
13714TIP3    H162633   3.802   4.376  12.273 -0.6696 -0.3957 -1.4755
13714TIP3    H262634   3.933   4.299  12.262 -0.0953  0.2339  0.5044
13715TIP3   OH262635   0.762   5.802  13.486  0.5249  0.5713  0.2900
13715TIP3    H162636   0.839   5.854  13.506 -0.8271  4.7951 -3.6916
13715TIP3    H262637   0.688   5.855  13.516 -0.9209 -0.6329 -0.9148
13716TIP3   OH262638   0.162   4.825   6.256 -0.4125 -0.4044 -0.1492
13716TIP3    H162639   0.236   4.787   6.302 -1.2262 -0.5375  1.0875
13716TIP3    H262640   0.087   4.810   6.314 -1.0538  1.6121 -0.3936
13717TIP3   OH262641   6.683   4.101  15.860 -0.3579 -0.0232  0.0098
13717TIP3    H162642   6.677   4.107  15.764  2.3137 -1.0435 -0.3004
13717TIP3    H262643   6.776   4.092  15.878 -0.8979 -1.4063  2.6339
13718TIP3   OH262644   6.315   6.034   2.556 -0.4884  0.3579 -0.5622
13718TIP3    H162645   6.337   5.995   2.640 -1.4699  2.2607  0.6681
13718TIP3    H262646   6.325   5.963   2.492  0.9814 -0.9446  1.0352
13719TIP3   OH262647   0.893   5.472   2.566  0.3501  0.1725 -0.7880
13719TIP3    H162648   0.954   5.399   2.564 -0.3267 -0.3986 -1.0631
13719TIP3    H262649   0.885   5.494   2.659  0.5270 -0.1268 -0.7006
13720TIP3   OH262650   2.939   6.231  13.041 -0.2293  0.0658  1.1047
13720TIP3    H162651   2.844   6.218  13.046 -0.3679  0.2092 -0.4536
13720TIP3    H262652   2.952   6.321  13.072 -1.0760  1.3158 -1.8074
13721TIP3   OH262653   0.677   2.794   5.372 -0.3394  0.0552 -0.5238
13721TIP3    H162654   0.586   2.824   5.380 -0.0090  0.9365 -0.0279
13721TIP3    H262655   0.702   2.770   5.462 -0.0409 -0.0747 -0.6416
13722TIP3   OH262656   6.624   5.520  17.003  0.3028 -0.9483 -0.5391
13722TIP3    H162657   6.673   5.594  16.967 -0.6436 -0.0674 -0.0649
13722TIP3    H262658   6.670   5.442  16.970  0.4461 -0.1769 -2.2544
13723TIP3   OH262659   1.548   5.343   5.866  0.0060  0.0085  0.4020
13723TIP3    H162660   1.618   5.339   5.932 -0.0691 -2.0606  0.4255
13723TIP3    H262661   1.481   5.283   5.899 -0.2212 -0.7288 -1.3261
13724TIP3   OH262662   6.029   5.735   4.731  0.2739 -0.1140  0.4027
13724TIP3    H162663   5.996   5.647   4.750  2.0673 -1.5697 -2.4669
13724TIP3    H262664   5.967   5.770   4.667  0.6975 -0.1842 -0.0535
13725TIP3   OH262665   2.131   3.660   4.580  0.0272  0.6214 -0.2497
13725TIP3    H162666   2.140   3.564   4.582 -1.4710  0.4798  0.4708
13725TIP3    H262667   2.190   3.687   4.509  1.9161 -0.6321  0.7345
13726TIP3   OH262668   3.228   5.572  14.181  0.4368 -0.5308 -0.2165
13726TIP3    H162669   3.199   5.483  14.198  0.3133 -0.1846  1.5509
13726TIP3    H262670   3.324   5.567  14.181  0.4356 -0.8171 -1.1623
13727TIP3   OH262671   1.414   2.157   4.199 -0.7977  0.2070  0.3993
13727TIP3    H162672   1.338   2.198   4.240 -0.5896  1.3964 -0.3580
13727TIP3    H262673   1.399   2.168   4.105 -0.1205 -0.3628  0.2147
13728TIP3   OH262674   4.873   4.818  11.079  0.1056 -0.4367  0.3014
13728TIP3    H162675   4.840   4.883  11.017  1.1752 -1.7186 -1.7276
13728TIP3    H262676   4.806   4.750  11.082  0.4275 -0.7869 -0.1660
13729TIP3   OH262677   6.425   3.682  13.195  0.1722 -0.7628  0.4598
13729TIP3    H162678   6.516   3.696  13.169 -0.4505  1.2320 -0.9025
13729TIP3    H262679   6.387   3.633  13.122 -0.1799 -0.3091  0.3358
13730TIP3   OH262680   0.390   4.697   3.242  0.2375  0.1449  0.1737
13730TIP3    H162681   0.396   4.778   3.292 -0.1917  1.1833 -1.4001
13730TIP3    H262682   0.472   4.692   3.194 -0.1149  0.1224 -0.4323
13731TIP3   OH262683   3.803   5.416  13.967  0.6653  0.3921 -0.0013
13731TIP3    H162684   3.821   5.475  14.040 -0.0184 -0.0244  0.5164
13731TIP3    H262685   3.763   5.471  13.900  0.8864  0.6909  0.1135
13732TIP3   OH262686   0.453   1.440  16.330  0.4228  0.4055 -0.1681
13732TIP3    H162687   0.483   1.387  16.256 -0.5777 -1.8535  0.9208
13732TIP3    H262688   0.369   1.475  16.302  0.3810  0.1501 -0.3698
13733TIP3   OH262689   3.663   3.872  13.442  0.6316 -0.5863 -0.0957
13733TIP3    H162690   3.676   3.905  13.354  1.1310 -1.2915 -0.3046
13733TIP3    H262691   3.750   3.879  13.483  0.6062 -1.0659  0.0474
13734TIP3   OH262692   6.717   1.724   4.712  0.0685  0.6618  0.3688
13734TIP3    H162693   6.789   1.786   4.712  0.1879  0.5242  0.3890
13734TIP3    H262694   6.707   1.697   4.803 -0.3979  1.1257  0.4611
13735TIP3   OH262695   0.148   2.639   4.566  0.6214 -0.1613 -0.2454
13735TIP3    H162696   0.053   2.637   4.563  0.5320  1.3680  0.6074
13735TIP3    H262697   0.173   2.549   4.587 -0.6161 -0.6132 -0.6264
13736TIP3   OH262698   5.539   4.865   0.594 -0.4773  0.5404 -0.2721
13736TIP3    H162699   5.509   4.774   0.587  1.6097 -0.1446 -1.3043
13736TIP3    H262700   5.539   4.883   0.687 -2.7233  0.1612 -0.1499
13737TIP3   OH262701   2.929   0.017   2.561  0.1731 -0.1950  0.1858
13737TIP3    H162702   2.929   0.013   2.466  1.6884 -3.0687  0.1834
13737TIP3    H262703   2.850  -0.031   2.587  1.5752 -2.6378  0.2687
13738TIP3   OH262704   0.242   6.577  16.262 -0.2488  0.2609 -0.4200
13738TIP3    H162705   0.220   6.496  16.307  1.4362 -0.9326 -1.6341
13738TIP3    H262706   0.158   6.608  16.226 -0.7155 -1.7099 -1.1512
13739TIP3   OH262707   0.924   4.926   0.731 -0.8426 -0.4745  0.2114
13739TIP3    H162708   0.888   4.988   0.668 -0.1457  0.2414  0.4882
13739TIP3    H262709   0.859   4.923   0.801 -0.3540  0.8973  0.7647
13740TIP3   OH262710   0.144   2.388  16.583  0.4151  0.3894 -0.7287
13740TIP3    H162711   0.166   2.440  16.506  1.1697  1.8209  0.4046
13740TIP3    H262712   0.204   2.419  16.651 -0.1837 -0.8815  0.4210
13741TIP3   OH262713   5.549   2.352   5.178  0.3761 -0.2171  0.0218
13741TIP3    H162714   5.462   2.366   5.141 -0.0023  0.9359  1.2698
13741TIP3    H262715   5.596   2.305   5.110 -0.7389  0.5017 -1.3105
13742TIP3   OH262716   4.677   5.294   4.367 -0.4756 -0.2090  0.1510
13742TIP3    H162717   4.720   5.380   4.359  1.1803 -1.1084 -1.4582
13742TIP3    H262718   4.591   5.314   4.404  0.3675  1.9786  1.1456
13743TIP3   OH262719   1.108   4.368  15.596 -0.0679 -0.1399  0.2023
13743TIP3    H162720   1.066   4.415  15.667 -0.5001  1.3784 -0.9968
13743TIP3    H262721   1.162   4.434  15.552  0.8073 -1.2264 -0.4093
13744TIP3   OH262722   2.416   3.965   5.444 -0.3246 -0.1596  0.4664
13744TIP3    H162723   2.383   3.879   5.468 -1.4276  0.6714  2.0569
13744TIP3    H262724   2.358   4.027   5.488  1.7549  1.3969  1.1874
13745TIP3   OH262725   1.222   4.557  14.459  0.4939  0.2482  0.1030
13745TIP3    H162726   1.197   4.643  14.424  1.3480  0.6052  0.3359
13745TIP3    H262727   1.151   4.499  14.432  1.3908  0.3431 -2.8076
13746TIP3   OH262728   2.026   1.803   3.711  0.6239 -0.2669 -0.1847
13746TIP3    H162729   2.114   1.766   3.699  0.4628 -1.4027  1.7061
13746TIP3    H262730   2.041   1.892   3.743  1.1560 -0.9769  1.6470
13747TIP3   OH262731   4.420   4.754  15.090 -0.0307  0.0834  0.2763
13747TIP3    H162732   4.512   4.752  15.113  0.4588 -0.8921 -1.5286
13747TIP3    H262733   4.408   4.836  15.043 -0.0472  0.1570  0.4109
13748TIP3   OH262734   4.985   2.272   4.194 -0.0510 -0.0035  0.1002
13748TIP3    H162735   5.080   2.260   4.185 -0.1386 -1.2736  0.5438
13748TIP3    H262736   4.966   2.354   4.150  1.3076  0.4313  0.2920
13749TIP3   OH262737   1.889   3.652   4.987  0.4320  0.3884  0.2961
13749TIP3    H162738   1.967   3.652   4.932  0.7796  0.1586  0.7743
13749TIP3    H262739   1.819   3.622   4.930  0.8643 -0.2508  0.0833
13750TIP3   OH262740   3.020   6.019  11.007 -0.1826 -0.2777 -0.0773
13750TIP3    H162741   3.069   5.952  10.958  1.8973  0.4529  0.8876
13750TIP3    H262742   2.956   5.969  11.059  1.5951 -1.6065  0.9440
13751TIP3   OH262743   4.366   2.940  15.233 -0.7210  0.0676 -0.1677
13751TIP3    H162744   4.453   2.899  15.235 -0.7455  0.0385  0.3610
13751TIP3    H262745   4.351   2.959  15.141  0.1477  0.7104 -0.1890
13752TIP3   OH262746   2.220   1.479  15.219  0.1188 -0.7240  0.0248
13752TIP3    H162747   2.208   1.570  15.192  2.1450 -0.5668 -0.5306
13752TIP3    H262748   2.314   1.464  15.210 -0.0629 -2.6384  0.8903
13753TIP3   OH262749   0.079   3.026   3.539 -0.0303 -0.7188 -0.1774
13753TIP3    H162750   0.164   2.986   3.556  0.2423 -0.0608  0.0460
13753TIP3    H262751   0.057   3.073   3.620  1.3144  2.4995 -1.4972
13754TIP3   OH262752   0.832   1.801   0.093  0.4693 -0.4105  0.5144
13754TIP3    H162753   0.797   1.713   0.083 -0.2436  0.0392 -1.2373
13754TIP3    H262754   0.766   1.847   0.145 -0.1749 -0.3714 -0.3106
13755TIP3   OH262755   0.443   4.479   3.763 -0.1774  0.0951 -0.5624
13755TIP3    H162756   0.505   4.527   3.818  0.3808 -2.0103  0.7698
13755TIP3    H262757   0.497   4.438   3.696 -0.0285 -1.8191  0.6541
13756TIP3   OH262758   0.321   0.468  13.894 -0.0409 -0.4332 -0.0200
13756TIP3    H162759   0.401   0.423  13.867 -0.1914 -1.0497  0.5306
13756TIP3    H262760   0.313   0.450  13.988 -0.3061  0.4448  0.1364
13757TIP3   OH262761   4.306   5.155   6.056  0.9569  0.1132  0.2832
13757TIP3    H162762   4.222   5.147   6.102 -0.6973  1.8857 -2.1628
13757TIP3    H262763   4.327   5.065   6.029 -1.0746 -0.2043 -0.4637
13758TIP3   OH262764   1.483   4.783  12.364 -0.3332 -0.4494 -0.0711
13758TIP3    H162765   1.489   4.878  12.370 -1.1413 -0.3387 -0.8146
13758TIP3    H262766   1.432   4.758  12.441  2.0101 -0.5733  1.5566
13759TIP3   OH262767   5.135   3.129  12.466  0.5237  0.1108 -0.7524
13759TIP3    H162768   5.059   3.186  12.479  2.1417  1.9265  1.7093
13759TIP3    H262769   5.202   3.187  12.430  1.7689 -0.5776  0.3693
13760TIP3   OH262770   4.737   2.647   6.805  0.1807 -0.4635 -0.3296
13760TIP3    H162771   4.727   2.736   6.839  2.0926 -0.3407  0.0598
13760TIP3    H262772   4.828   2.644   6.774  0.5846 -2.6597  0.8549
13761TIP3   OH262773   1.528   0.175   4.041  0.1944  0.9785 -0.3860
13761TIP3    H162774   1.553   0.117   4.114 -0.2211  2.7894  1.2824
13761TIP3    H262775   1.593   0.246   4.044 -2.7451  3.8512  1.6952
13762TIP3   OH262776   5.960   2.488   0.275  0.3195 -0.0626  0.1511
13762TIP3    H162777   5.974   2.481   0.181 -1.8959 -1.5788 -0.1562
13762TIP3    H262778   6.014   2.419   0.313  0.0427 -0.4669 -0.1806
13763TIP3   OH262779   0.172   3.071   3.966  0.9131 -0.1540  0.2414
13763TIP3    H162780   0.114   3.000   3.992  1.2318 -0.2609  0.6742
13763TIP3    H262781   0.234   3.079   4.038 -0.1788  1.7448  1.0391
13764TIP3   OH262782   3.430   6.657  10.988 -0.6071 -0.0212 -0.4086
13764TIP3    H162783   3.484   6.616  11.055 -0.2030  0.3909 -0.4764
13764TIP3    H262784   3.471   6.742  10.973  0.9020 -1.0679 -3.0272
13765TIP3   OH262785   1.845   6.397   4.811  0.0327 -0.6200 -0.2945
13765TIP3    H162786   1.813   6.365   4.726 -0.0701 -0.6513 -0.2434
13765TIP3    H262787   1.769   6.391   4.869 -0.1749  0.3423 -0.4528
13766TIP3   OH262788   5.862   1.861   4.964  0.2101  0.1356  0.1547
13766TIP3    H162789   5.925   1.933   4.965  0.2876  0.0641  0.5080
13766TIP3    H262790   5.833   1.853   5.054 -0.0951 -0.0197  0.0450
13767TIP3   OH262791   4.378   4.397   6.222 -0.0403 -0.4951  0.3760
13767TIP3    H162792   4.308   4.462   6.230  2.2782  2.3088 -0.3725
13767TIP3    H262793   4.375   4.348   6.304 -1.1343  1.3812  1.5305
13768TIP3   OH262794   5.136   1.848   4.989 -0.0856  0.1072 -0.3280
13768TIP3    H162795   5.168   1.923   4.939 -0.2680  0.7492  0.4873
13768TIP3    H262796   5.096   1.887   5.067 -1.0034 -0.7914 -0.3256
13769TIP3   OH262797   3.978   4.876   2.856  0.3969  0.3695 -0.0170
13769TIP3    H162798   3.898   4.902   2.902 -0.6210  0.0638 -1.4947
13769TIP3    H262799   4.022   4.815   2.915 -0.9736 -0.2073  0.4490
13770TIP3   OH262800   1.065   4.939   5.052 -0.1832  0.2700 -0.1808
13770TIP3    H162801   1.078   5.008   5.117 -1.5916  0.6054 -0.2094
13770TIP3    H262802   0.982   4.898   5.078  0.2288 -0.8993 -0.6271
13771TIP3   OH262803   0.625   2.298  16.368  0.2078 -0.1489 -0.1852
13771TIP3    H162804   0.706   2.259  16.399  0.7280 -0.1023 -1.4149
13771TIP3    H262805   0.650   2.384  16.336 -0.5179  0.2730  0.3573
13772TIP3   OH262806   3.444   4.598   3.432  0.1696  0.3077  0.2881
13772TIP3    H162807   3.474   4.508   3.449  0.5882 -0.1765 -2.5569
13772TIP3    H262808   3.492   4.651   3.495  1.5539 -1.2469  0.6155
13773TIP3   OH262809   5.366   0.095  17.080 -0.2338  0.0597 -0.0542
13773TIP3    H162810   5.331   0.180  17.107 -0.9665 -0.4808  0.7511
13773TIP3    H262811   5.317   0.073  17.000 -1.8575 -0.7155  1.0905
13774TIP3   OH262812   6.177   6.627   1.099 -0.0491  0.4422  0.2200
13774TIP3    H162813   6.227   6.558   1.142  1.4705  2.2082  1.4853
13774TIP3    H262814   6.100   6.639   1.155  1.3751  1.9843  2.0005
13775TIP3   OH262815   1.074   0.800   5.398  0.0377 -0.3364 -0.4764
13775TIP3    H162816   1.065   0.863   5.469 -2.1530 -0.5186 -0.5252
13775TIP3    H262817   1.008   0.827   5.333  1.6586 -0.4315 -2.2660
13776TIP3   OH262818   2.184   1.190   4.803 -0.0455 -0.6996 -0.5382
13776TIP3    H162819   2.103   1.192   4.752 -0.6655  2.3895  0.3491
13776TIP3    H262820   2.218   1.280   4.798  2.2692 -1.4028  0.7838
13777TIP3   OH262821   4.102   6.569  14.512  0.6657 -0.2967  0.3518
13777TIP3    H162822   4.166   6.639  14.523 -0.0590  0.4101  0.1786
13777TIP3    H262823   4.025   6.600  14.560  0.3734 -1.0273  0.3589
13778TIP3   OH262824   0.040   4.238  12.563 -0.7449 -1.0808  0.0010
13778TIP3    H162825  -0.001   4.187  12.633 -0.3054 -1.5606 -0.0837
13778TIP3    H262826   0.012   4.195  12.482 -2.8505  0.6328 -0.2512
13779TIP3   OH262827   2.023   2.009  16.220  0.1480  0.4059  0.2634
13779TIP3    H162828   2.028   2.070  16.293  0.4838 -0.3643  0.8957
13779TIP3    H262829   2.082   2.046  16.154  2.6291 -0.6546  1.7327
13780TIP3   OH262830   6.789   6.465   6.202 -0.1897  0.0045 -0.3487
13780TIP3    H162831   6.833   6.408   6.264  0.6625 -0.2484 -1.1764
13780TIP3    H262832   6.754   6.536   6.256 -2.7771 -2.0953  0.9621
13781TIP3   OH262833   1.965   4.921  10.688 -0.3096 -0.1401 -1.0543
13781TIP3    H162834   1.909   4.981  10.738 -0.3006 -1.4624  0.6375
13781TIP3    H262835   2.029   4.978  10.646  0.4922  1.0152  1.5039
13782TIP3   OH262836   2.835   2.111   1.638 -0.3964 -0.0268 -0.6624
13782TIP3    H162837   2.765   2.092   1.701 -0.4970  0.6335 -0.5717
13782TIP3    H262838   2.790   2.141   1.560 -0.2974 -1.2952 -1.2390
13783TIP3   OH262839   5.939   1.553   5.902 -0.7520  0.3823 -0.4718
13783TIP3    H162840   5.852   1.526   5.874 -0.3407 -0.0252 -1.3789
13783TIP3    H262841   5.949   1.642   5.868 -0.3882  0.0155 -1.3495
13784TIP3   OH262842   1.806   0.722  15.769 -0.1609 -0.5170 -0.2533
13784TIP3    H162843   1.875   0.682  15.715 -1.2410 -2.5671 -0.2175
13784TIP3    H262844   1.853   0.778  15.831  1.3815 -0.9857 -0.9523
13785TIP3   OH262845   0.152   1.591  16.575 -0.3266 -0.4064 -0.2537
13785TIP3    H162846   0.126   1.664  16.632 -0.9065 -1.7621  1.3006
13785TIP3    H262847   0.071   1.564  16.532 -0.2653 -0.6011 -0.2481
13786TIP3   OH262848   0.511   5.226  11.697 -0.4313  0.8534 -0.8096
13786TIP3    H162849   0.450   5.170  11.649 -0.1777 -0.2160  0.0713
13786TIP3    H262850   0.597   5.187  11.683 -0.2433  1.0272 -0.2006
13787TIP3   OH262851   6.686   1.448   2.314 -0.0415  0.2979 -0.4686
13787TIP3    H162852   6.602   1.410   2.289 -0.1964 -1.2843  2.1200
13787TIP3    H262853   6.669   1.542   2.323 -0.5830  0.5828 -3.3085
13788TIP3   OH262854   2.450   2.734  14.743  0.0496  0.4703 -0.0326
13788TIP3    H162855   2.422   2.698  14.659  2.3962 -0.8391 -0.3228
13788TIP3    H262856   2.481   2.822  14.722  0.8327  0.0649 -0.5866
13789TIP3   OH262857   0.245   2.058   1.291 -0.5020  0.1705 -0.0984
13789TIP3    H162858   0.293   2.123   1.239 -1.1892 -0.1473 -1.1761
13789TIP3    H262859   0.156   2.061   1.256 -1.2616  0.6605  1.7923
13790TIP3   OH262860   1.918   5.782   3.929 -0.4376  0.0582  0.2098
13790TIP3    H162861   1.863   5.811   3.856 -1.7201 -1.4149  0.5283
13790TIP3    H262862   1.918   5.686   3.923  2.0046 -0.0230  0.3436
13791TIP3   OH262863   4.142   0.988   3.301  0.1984 -0.0998  0.0807
13791TIP3    H162864   4.232   1.016   3.280 -0.5034  0.7813 -1.9999
13791TIP3    H262865   4.121   0.923   3.234 -0.3450 -1.1666  1.2497
13792TIP3   OH262866   1.261   0.771   6.247 -0.1726  0.0890  0.4341
13792TIP3    H162867   1.356   0.772   6.243 -0.1821  1.4885 -0.0696
13792TIP3    H262868   1.239   0.847   6.301 -0.9519 -1.6424  2.6683
13793TIP3   OH262869   6.379   6.280   4.330 -0.5520  0.1975 -0.3786
13793TIP3    H162870   6.363   6.312   4.241  1.8824  1.2456 -0.5188
13793TIP3    H262871   6.341   6.347   4.387 -0.7305  0.3112 -0.6296
13794TIP3   OH262872   6.055   1.109   3.391  0.1563 -0.1473 -0.0364
13794TIP3    H162873   6.138   1.157   3.398  1.4173 -2.3246  0.7826
13794TIP3    H262874   5.994   1.158   3.446  0.3295  2.4349 -1.9355
13795TIP3   OH262875   2.956   0.145   0.957  0.9433  0.0211 -0.1770
13795TIP3    H162876   2.930   0.228   0.918  1.1576 -0.0633 -0.5105
13795TIP3    H262877   2.969   0.164   1.050 -0.3497  0.0502  0.0110
13796TIP3   OH262878   6.009   0.842  16.945 -0.4179 -0.9236  0.1459
13796TIP3    H162879   6.018   0.937  16.947  0.7213 -0.9602 -1.2214
13796TIP3    H262880   6.054   0.815  16.864  0.3202 -2.7212  1.0729
13797TIP3   OH262881   1.571   2.236   6.164 -0.2876  0.7176  0.5813
13797TIP3    H162882   1.561   2.154   6.115 -2.5100  0.1566  1.8377
13797TIP3    H262883   1.650   2.222   6.217  0.2026  0.0048 -0.3035
13798TIP3   OH262884   1.740   1.668   2.505 -0.4011  0.0162  0.2205
13798TIP3    H162885   1.814   1.644   2.449 -0.7316  0.2780 -0.3355
13798TIP3    H262886   1.664   1.633   2.459 -0.9243  2.1885 -0.6876
13799TIP3   OH262887   2.776   1.750   3.041  0.0252 -0.0794 -0.1850
13799TIP3    H162888   2.726   1.823   3.005 -1.6877 -1.1256 -0.0042
13799TIP3    H262889   2.842   1.792   3.097 -0.8425  1.3335 -0.1631
13800TIP3   OH262890   4.872   5.050   0.258 -0.0249 -0.0906  0.2863
13800TIP3    H162891   4.836   5.138   0.261  1.5608  0.6889 -1.7131
13800TIP3    H262892   4.802   4.996   0.221 -0.4598  0.6235  0.0638
13801TIP3   OH262893   6.362   2.399  15.118  0.4996 -0.6178 -0.3445
13801TIP3    H162894   6.456   2.415  15.114  0.7945 -2.3318 -1.7449
13801TIP3    H262895   6.331   2.454  15.189  2.7418 -0.8127  0.8654
13802TIP3   OH262896   0.985   6.194  12.007 -0.0544 -0.1351  0.7209
13802TIP3    H162897   1.077   6.197  11.981 -0.5416 -1.7301 -1.5296
13802TIP3    H262898   0.965   6.100  12.015 -1.5257  0.1710  1.0021
13803TIP3   OH262899   6.809   2.505  14.407 -0.1528  0.4260  0.0719
13803TIP3    H162900   6.817   2.465  14.320  2.8943 -1.3832  1.0327
13803TIP3    H262901   6.714   2.512  14.421 -0.7549  0.3225 -3.1340
13804TIP3   OH262902   5.151   4.486  13.883 -0.0811 -0.5403 -0.6899
13804TIP3    H162903   5.139   4.530  13.799 -4.0188 -4.3227 -2.5189
13804TIP3    H262904   5.227   4.429  13.869  0.6129  0.3811 -0.8238
13805TIP3   OH262905   0.864   5.695  15.772 -0.5835  0.6501 -0.5415
13805TIP3    H162906   0.935   5.756  15.792 -0.5891  0.4200  0.2175
13805TIP3    H262907   0.785   5.740  15.801 -0.4090 -0.5229  2.0761
13806TIP3   OH262908   1.772   0.845  14.264 -0.0405 -0.6110  0.2450
13806TIP3    H162909   1.720   0.908  14.314  0.6518  1.5144 -1.5761
13806TIP3    H262910   1.715   0.819  14.191  1.0029  0.9777 -1.2026
13807TIP3   OH262911   1.603   6.052  16.446 -0.0874  0.4423 -0.1547
13807TIP3    H162912   1.617   6.002  16.366 -0.6647  0.5828 -0.3543
13807TIP3    H262913   1.637   6.140  16.426 -0.3403  0.5107 -0.2905
13808TIP3   OH262914   2.229   5.269   3.239 -0.3290 -0.1762 -0.0025
13808TIP3    H162915   2.149   5.238   3.196  0.4512 -1.3006 -0.6914
13808TIP3    H262916   2.298   5.210   3.208  0.6049  0.1421  1.3449
13809TIP3   OH262917   5.743   0.599   2.746 -0.2133  0.1207 -0.5808
13809TIP3    H162918   5.717   0.521   2.697  1.3226 -1.9941  1.7465
13809TIP3    H262919   5.697   0.590   2.830  1.9672  0.3006  0.6848
13810TIP3   OH262920   4.160   0.397   4.544  0.8775 -0.1747  0.1441
13810TIP3    H162921   4.206   0.330   4.492  2.1458  0.1486  0.8261
13810TIP3    H262922   4.111   0.447   4.479  3.4503  1.0477 -0.9896
13811TIP3   OH262923   1.041   1.424   1.950  0.0916  0.6915  0.3815
13811TIP3    H162924   1.107   1.493   1.959  1.0605 -0.2417  0.8005
13811TIP3    H262925   1.051   1.393   1.860  1.4021 -0.5264  0.8940
13812TIP3   OH262926   6.666   2.644   1.893 -0.6198  0.4744 -0.1247
13812TIP3    H162927   6.705   2.576   1.947  1.6583  2.4464  0.8747
13812TIP3    H262928   6.611   2.695   1.953 -1.8116 -0.0373 -0.7315
13813TIP3   OH262929   4.060   2.496   2.700 -0.5307  0.6911 -0.8872
13813TIP3    H162930   3.973   2.463   2.678 -2.1573  1.5554  3.2900
13813TIP3    H262931   4.069   2.576   2.648 -3.4576  1.9491  0.3008
13814TIP3   OH262932   3.978   3.888  14.435 -0.7396  0.1984 -0.2628
13814TIP3    H162933   3.886   3.880  14.407 -0.5626  0.3309 -0.8978
13814TIP3    H262934   3.982   3.973  14.479 -1.1779 -0.3146  0.8137
13815TIP3   OH262935   6.531   2.302  11.812  0.2597 -0.0294  0.6202
13815TIP3    H162936   6.618   2.265  11.798  0.3592  0.1394  0.7769
13815TIP3    H262937   6.481   2.277  11.735  1.0045  1.5108 -0.4249
13816TIP3   OH262938   1.279   3.003  12.119  0.3154 -0.3228  0.0045
13816TIP3    H162939   1.345   3.060  12.159 -0.9265  1.0174  0.1918
13816TIP3    H262940   1.286   2.921  12.169  0.9148  0.2555  0.9075
13817TIP3   OH262941   0.244   5.228   1.440 -0.0939  0.8021 -0.0189
13817TIP3    H162942   0.285   5.313   1.423 -1.3928  1.4175 -0.2451
13817TIP3    H262943   0.292   5.166   1.385 -0.1227  1.6680 -1.0426
13818TIP3   OH262944   0.657   6.214   1.599 -0.4181 -0.5806  0.1865
13818TIP3    H162945   0.571   6.190   1.633 -1.1130  0.1529 -0.9914
13818TIP3    H262946   0.684   6.289   1.652 -0.4843 -0.8340  0.5824
13819TIP3   OH262947   2.284   5.541   3.244 -0.7436  0.5703 -0.3008
13819TIP3    H162948   2.255   5.450   3.252  0.6258  0.2164  1.3752
13819TIP3    H262949   2.374   5.535   3.211 -0.5103  1.2729  0.1780
13820TIP3   OH262950   4.802   2.812  17.262 -0.1581 -0.2097 -0.2272
13820TIP3    H162951   4.717   2.795  17.220 -1.7429  3.1310  1.2086
13820TIP3    H262952   4.804   2.753  17.338 -3.1104  2.0970  1.8800
13821TIP3   OH262953   5.239   0.549  16.851  0.0512  0.3705  0.2830
13821TIP3    H162954   5.238   0.529  16.757 -0.6684  0.5313  0.2544
13821TIP3    H262955   5.332   0.563  16.871  0.1663  0.7805 -0.4993
13822TIP3   OH262956   5.348   0.023   2.437  0.0479  1.0693 -0.6829
13822TIP3    H162957   5.322  -0.032   2.362 -1.7677 -0.1626  0.7561
13822TIP3    H262958   5.268   0.068   2.463  0.3665  0.6703  1.1388
13823TIP3   OH262959   4.735   6.387   1.448 -0.1996  0.2913  0.7195
13823TIP3    H162960   4.748   6.417   1.358 -0.2176 -2.2375 -0.1861
13823TIP3    H262961   4.818   6.407   1.492 -0.3194  1.8627  0.2848
13824TIP3   OH262962   4.124   3.575   3.458 -0.1729 -0.7525  0.0300
13824TIP3    H162963   4.213   3.560   3.490 -0.3002  0.2879  0.9446
13824TIP3    H262964   4.075   3.498   3.485  0.3354 -1.1040 -0.0370
13825TIP3   OH262965   5.377   6.446  14.229  0.2801 -0.1411  0.1051
13825TIP3    H162966   5.319   6.523  14.229  0.9558  0.4376 -1.8618
13825TIP3    H262967   5.343   6.390  14.299  0.0935  2.1572  1.9888
13826TIP3   OH262968   5.274   1.258   2.081 -0.3655 -0.5100 -0.1936
13826TIP3    H162969   5.366   1.234   2.097  0.2311  1.5861 -0.1045
13826TIP3    H262970   5.276   1.353   2.073 -2.6232 -0.3705  0.2822
13827TIP3   OH262971   1.866   1.749   1.657  0.2072 -0.3423  0.6194
13827TIP3    H162972   1.960   1.755   1.676  0.3337 -0.5346  0.0683
13827TIP3    H262973   1.855   1.664   1.615 -0.1323 -0.1081  0.2279
13828TIP3   OH262974   6.425   2.649  11.110 -0.3329  0.3025  0.5613
13828TIP3    H162975   6.500   2.684  11.158 -1.3531  0.3322  2.2416
13828TIP3    H262976   6.434   2.554  11.118  0.6454  0.2383 -1.0906
13829TIP3   OH262977   5.291   3.040   1.442  0.1517  0.6732  0.3796
13829TIP3    H162978   5.384   3.049   1.420  0.4785  1.5236  1.9336
13829TIP3    H262979   5.286   3.067   1.534 -1.7051  1.0410  0.2031
13830TIP3   OH262980   3.243   2.764  14.798  0.1746  0.1547  0.3718
13830TIP3    H162981   3.291   2.784  14.718  0.4984  0.5986  0.6742
13830TIP3    H262982   3.305   2.715  14.852  0.6820  1.6618  1.2137
13831TIP3   OH262983   5.533   1.576   2.944 -0.1833  0.4182  0.1193
13831TIP3    H162984   5.544   1.568   3.038 -1.7037 -0.9363  0.2301
13831TIP3    H262985   5.438   1.568   2.930 -0.1136  1.7035 -1.4397
13832TIP3   OH262986   0.101   2.660   5.564 -0.0495  0.1900 -0.3145
13832TIP3    H162987   0.080   2.699   5.479 -0.9687 -0.2417 -0.3025
13832TIP3    H262988   0.017   2.627   5.596  0.3996 -0.2083  0.4809
13833TIP3   OH262989   3.318   3.319   1.605  1.0819  0.2081  0.0648
13833TIP3    H162990   3.303   3.273   1.522  0.7701 -1.6125  1.0909
13833TIP3    H262991   3.395   3.278   1.642 -1.3888 -2.3841  2.8587
13834TIP3   OH262992   3.906   3.743   6.098 -0.1459 -0.1231  0.2849
13834TIP3    H162993   3.882   3.827   6.058 -0.0433  0.1137  0.7199
13834TIP3    H262994   4.001   3.741   6.094 -0.2056 -1.1983 -1.7213
13835TIP3   OH262995   4.493   0.430   3.795  0.6322 -0.2747 -0.1387
13835TIP3    H162996   4.558   0.437   3.865  1.9371  1.2937 -1.4351
13835TIP3    H262997   4.507   0.343   3.757  0.6791 -0.6798  0.7881
13836TIP3   OH262998   4.746   6.776   0.301 -0.2919  0.4466  0.1142
13836TIP3    H162999   4.826   6.822   0.329  1.7380 -2.2848 -0.7771
13836TIP3    H263000   4.751   6.777   0.206 -1.4100  0.3060  0.0487
13837TIP3   OH263001   6.505   2.837   6.388 -0.0763  0.1114  0.1627
13837TIP3    H163002   6.444   2.789   6.333 -0.3701  0.0167  0.5643
13837TIP3    H263003   6.488   2.929   6.367  1.2439  0.0439 -1.4126
13838TIP3   OH263004   1.739   0.611   0.715 -0.1042  0.1421 -0.3904
13838TIP3    H163005   1.709   0.608   0.624  0.0557  0.7682 -0.4632
13838TIP3    H263006   1.824   0.655   0.711 -0.3854  0.7329  0.1430
13839TIP3   OH263007   3.640   4.255  15.486 -0.0618  0.4364 -0.5972
13839TIP3    H163008   3.591   4.220  15.412 -1.5568  0.0460  0.5272
13839TIP3    H263009   3.721   4.204  15.487  0.5231  1.2480 -2.6248
13840TIP3   OH263010   4.268   5.049   1.543 -0.6267 -0.0410  0.6447
13840TIP3    H163011   4.250   5.120   1.604 -2.0774 -1.5048  2.0480
13840TIP3    H263012   4.299   4.977   1.599 -0.8343 -1.0431 -0.4773
13841TIP3   OH263013   2.762   6.295   4.470 -0.2128  0.1919 -0.4747
13841TIP3    H163014   2.758   6.200   4.461 -0.4510  0.0513  0.9449
13841TIP3    H263015   2.831   6.322   4.409  0.8299 -1.0340  0.1188
13842TIP3   OH263016   2.618   5.006   2.181 -0.0416 -0.2270 -0.5299
13842TIP3    H163017   2.613   5.102   2.180 -1.7642 -0.1641  2.3241
13842TIP3    H263018   2.544   4.978   2.129  0.9725 -0.0905 -2.1208
13843TIP3   OH263019   5.950   3.324  12.363  0.1615  0.2777 -0.0131
13843TIP3    H163020   5.976   3.248  12.311 -1.0835  0.7368 -1.3663
13843TIP3    H263021   5.964   3.399  12.305 -0.2624  0.9014  0.6770
13844TIP3   OH263022   6.547   2.108  13.485 -0.4965 -0.0489  0.5568
13844TIP3    H163023   6.524   2.091  13.576  1.8064 -1.7084  0.9032
13844TIP3    H263024   6.505   2.038  13.436 -0.3208 -0.1446  0.5452
13845TIP3   OH263025   1.078   0.160  13.840  0.8937  0.2986  1.2474
13845TIP3    H163026   1.073   0.205  13.756 -2.5536  1.7445  2.0753
13845TIP3    H263027   1.068   0.067  13.819  2.2874  0.4040 -0.0303
13846TIP3   OH263028   1.516   0.047  13.007  0.3907 -0.0448 -0.3118
13846TIP3    H163029   1.519   0.110  12.935 -2.5524  0.6705  0.0431
13846TIP3    H263030   1.571   0.085  13.075  2.2890 -0.1665 -1.6922
13847TIP3   OH263031   3.492   1.747  15.290 -0.3076  0.3687  0.2218
13847TIP3    H163032   3.404   1.728  15.322 -0.8322 -0.4835 -1.6251
13847TIP3    H263033   3.529   1.662  15.267  0.6381  0.8044  0.0672
13848TIP3   OH263034   2.894   6.326  12.098 -0.1392 -0.3193 -0.8340
13848TIP3    H163035   2.818   6.273  12.076  0.5106 -1.6268 -0.0604
13848TIP3    H263036   2.880   6.353  12.188 -0.0782  0.1359 -0.9606
13849TIP3   OH263037   2.728   5.589  14.144  0.7131  0.0681 -0.7130
13849TIP3    H163038   2.671   5.638  14.203  2.3143  1.0341  0.1268
13849TIP3    H263039   2.801   5.649  14.126  1.5376 -1.1516 -1.6139
13850TIP3   OH263040   2.360   2.304   5.220  0.4514  0.2745  0.1830
13850TIP3    H163041   2.419   2.379   5.224  0.2112  0.4324  0.8261
13850TIP3    H263042   2.363   2.276   5.128  0.2937  1.2630 -0.1339
13851TIP3   OH263043   2.180   0.518  13.767  0.5386 -0.6030  0.2462
13851TIP3    H163044   2.091   0.552  13.750  0.8779  0.9146  1.2750
13851TIP3    H263045   2.167   0.443  13.824 -0.1561 -1.2113 -0.6904
13852TIP3   OH263046   2.401   3.253   3.940 -0.6684 -0.6254 -0.2955
13852TIP3    H163047   2.355   3.262   4.024 -1.3618  0.2695 -0.7435
13852TIP3    H263048   2.477   3.199   3.959 -0.8875 -0.5377  0.8818
13853TIP3   OH263049   2.065   1.080  16.021  0.3336  0.0458  0.3512
13853TIP3    H163050   2.143   1.036  16.056  0.1481 -1.3745 -0.9392
13853TIP3    H263051   2.077   1.172  16.045  2.3472 -0.1645  0.3281
13854TIP3   OH263052   2.287   0.146  14.544 -0.4397  0.1501 -0.0423
13854TIP3    H163053   2.312   0.083  14.476  1.0018  1.2016 -0.5384
13854TIP3    H263054   2.304   0.100  14.626  1.4005  0.1376 -0.3869
13855TIP3   OH263055   2.950   6.482   4.102 -0.4833  0.1704 -0.2248
13855TIP3    H163056   2.877   6.421   4.086 -0.0584 -0.9393  1.8102
13855TIP3    H263057   2.975   6.466   4.192  1.5462  1.3739 -0.5291
13856TIP3   OH263058   6.456   3.390   0.345 -0.0912 -0.2471  0.2671
13856TIP3    H163059   6.404   3.470   0.339  1.7410  1.0399  0.7313
13856TIP3    H263060   6.454   3.368   0.438  0.7333  0.2032  0.3978
13857TIP3   OH263061   1.664   3.668   5.192  0.3163 -0.2483 -0.6274
13857TIP3    H163062   1.751   3.654   5.154  2.4489  0.2537  3.4405
13857TIP3    H263063   1.640   3.757   5.165  0.6743 -0.6344 -2.3484
13858TIP3   OH263064   0.362   1.305   1.745 -0.4849 -0.1806  0.2257
13858TIP3    H163065   0.436   1.249   1.767 -1.6139 -0.9675  2.2868
13858TIP3    H263066   0.327   1.267   1.664  0.4273 -0.7351  0.0768
13859TIP3   OH263067   5.042   1.868   1.382  0.8326 -0.0536 -0.2844
13859TIP3    H163068   5.114   1.920   1.348  0.7594  0.3626  0.1826
13859TIP3    H263069   4.970   1.883   1.320  1.1616 -0.5353 -0.7949
13860TIP3   OH263070   2.527   3.774   3.318 -0.3624 -0.7099 -0.1713
13860TIP3    H163071   2.548   3.866   3.338 -1.7920 -0.0779 -1.4292
13860TIP3    H263072   2.574   3.756   3.237  1.6608 -1.8226  1.1499
13861TIP3   OH263073   5.068   6.314  14.182 -0.7009  0.1371  0.2710
13861TIP3    H163074   4.999   6.374  14.155 -0.8710 -0.5152 -0.7889
13861TIP3    H263075   5.122   6.365  14.243 -1.5621  0.9483  0.3679
13862TIP3   OH263076   0.448   4.617  13.563  0.4002 -0.2995 -0.1707
13862TIP3    H163077   0.493   4.670  13.496 -1.8917  0.4510 -1.2258
13862TIP3    H263078   0.454   4.670  13.642 -1.0106  1.1718 -0.9831
13863TIP3   OH263079   2.367   5.062  14.904 -0.2864  0.3932 -0.0822
13863TIP3    H163080   2.291   5.005  14.913  0.0813 -0.0286  0.4714
13863TIP3    H263081   2.331   5.148  14.882 -0.8997  0.1333 -0.1114
13864TIP3   OH263082   2.766   0.801   4.651 -0.8312 -1.0041 -0.0238
13864TIP3    H163083   2.774   0.807   4.746  0.2617  0.3742 -0.1689
13864TIP3    H263084   2.741   0.889   4.623 -1.6368 -1.5180 -0.9859
13865TIP3   OH263085   2.859   5.865   0.321  0.2460  0.7474 -0.5931
13865TIP3    H163086   2.831   5.790   0.374 -0.5334  1.2051 -0.3444
13865TIP3    H263087   2.889   5.930   0.385  0.4640  0.8294 -0.7790
13866TIP3   OH263088   5.092   5.161   2.595 -0.2122 -0.3953  0.3903
13866TIP3    H163089   5.179   5.123   2.603  0.2796  0.7820  0.9319
13866TIP3    H263090   5.066   5.180   2.685 -0.9768 -0.6022  0.2237
13867TIP3   OH263091   6.811   4.698  12.869 -0.1678  0.5878  0.0072
13867TIP3    H163092   6.759   4.618  12.875  0.0274  0.2959 -1.8263
13867TIP3    H263093   6.779   4.752  12.941 -1.9772 -0.1775 -0.1662
13868TIP3   OH263094   5.730   5.725   2.550  0.1607 -0.1492 -0.0929
13868TIP3    H163095   5.789   5.766   2.486  1.3356 -1.7676 -0.0979
13868TIP3    H263096   5.664   5.680   2.497 -0.2124  0.3936 -0.1043
13869TIP3   OH263097   0.039   5.661  16.526 -0.4010  0.0742  0.5347
13869TIP3    H163098  -0.009   5.730  16.479 -0.5266  0.3737  1.0988
13869TIP3    H263099   0.068   5.702  16.607 -0.7348 -0.6168  1.0147
13870TIP3   OH263100   6.710   3.460   2.415  0.0584 -0.2719 -0.0584
13870TIP3    H163101   6.784   3.477   2.473  1.3500 -1.4817 -1.2548
13870TIP3    H263102   6.653   3.403   2.466  0.3204  0.0617  0.6253
13871TIP3   OH263103   2.984   1.751  16.411 -0.0337  0.0689 -0.4962
13871TIP3    H163104   3.010   1.833  16.453 -0.5810  0.7777 -1.5109
13871TIP3    H263105   3.018   1.682  16.469  0.8834  1.0018  0.0908
13872TIP3   OH263106   6.002   5.860   0.650  0.4254  0.1995  0.4971
13872TIP3    H163107   6.021   5.777   0.693  0.9524 -0.6808 -1.3350
13872TIP3    H263108   6.066   5.866   0.580  0.9880  2.6224  1.1292
13873TIP3   OH263109   0.854   2.310   4.595  0.8764  0.2240  0.0318
13873TIP3    H163110   0.863   2.214   4.590 -0.0099  0.1228  0.2640
13873TIP3    H263111   0.766   2.328   4.564  1.4401  1.0865 -1.1327
13874TIP3   OH263112   5.109   1.638  14.340  0.1140  0.0767  0.3298
13874TIP3    H163113   5.064   1.589  14.409  0.5285 -0.5480  0.1654
13874TIP3    H263114   5.062   1.721  14.335 -0.3138 -0.1216  0.9306
13875TIP3   OH263115   4.185   1.811  11.899  0.0062 -0.4614 -0.5636
13875TIP3    H163116   4.273   1.831  11.865  0.4220 -0.8301  0.2706
13875TIP3    H263117   4.175   1.868  11.975 -1.3761  1.1947 -1.9157
13876TIP3   OH263118   5.819   2.108   3.303 -0.0040 -0.1952  0.6670
13876TIP3    H163119   5.899   2.149   3.271  0.7254  0.7536  3.4593
13876TIP3    H263120   5.748   2.159   3.264  0.6535 -0.9357 -1.6924
13877TIP3   OH263121   4.457   5.113  11.905 -0.2066 -0.0334  0.7222
13877TIP3    H163122   4.461   5.152  11.992  0.2623  0.7331  0.3738
13877TIP3    H263123   4.516   5.038  11.909  2.6406  2.0343  0.1039
13878TIP3   OH263124   4.024   2.459  13.832  0.2668  0.0873 -0.9512
13878TIP3    H163125   3.971   2.501  13.899 -0.0603 -0.1861 -1.0381
13878TIP3    H263126   4.114   2.484  13.854  0.3712 -1.5517  0.7506
13879TIP3   OH263127   3.510   0.476  14.670 -0.3607 -0.1327  0.2442
13879TIP3    H163128   3.537   0.547  14.729  0.0813 -0.5095  0.4973
13879TIP3    H263129   3.447   0.518  14.611 -0.3091  0.4088  0.5598
13880TIP3   OH263130   0.682   6.340   4.605  0.0891 -0.5788 -0.5964
13880TIP3    H163131   0.767   6.316   4.568  0.2004 -0.1845 -0.6044
13880TIP3    H263132   0.674   6.434   4.588 -0.4863 -0.6722 -0.8610
13881TIP3   OH263133   5.339   1.463   1.775 -0.1399  0.6963 -0.1962
13881TIP3    H163134   5.327   1.496   1.686  0.8219  0.9743 -0.2263
13881TIP3    H263135   5.277   1.513   1.828  0.9262  2.2062 -0.3273
13882TIP3   OH263136   5.096   5.065   0.600 -0.4301 -0.4559  0.3402
13882TIP3    H163137   5.107   5.150   0.642 -1.8928  0.2767 -0.6459
13882TIP3    H263138   5.061   5.009   0.669  0.2072 -0.1700  0.9103
13883TIP3   OH263139   0.881   2.306   0.914 -0.5836  0.1439 -0.1732
13883TIP3    H163140   0.831   2.381   0.948  1.7889  2.1349 -0.7320
13883TIP3    H263141   0.934   2.277   0.988  0.8273  1.1781 -0.7087
13884TIP3   OH263142   0.554   2.569   4.878 -0.3554 -0.1013  0.2988
13884TIP3    H163143   0.528   2.649   4.923 -1.8692 -0.7117  0.5858
13884TIP3    H263144   0.530   2.583   4.787 -0.8912 -0.3291  0.4018
13885TIP3   OH263145   5.822   2.888   1.404 -0.5032 -0.4276 -0.6422
13885TIP3    H163146   5.909   2.856   1.429  0.3460  1.9380 -0.2507
13885TIP3    H263147   5.833   2.916   1.313 -0.9070 -0.2721 -0.6430
13886TIP3   OH263148   4.873   5.086  11.467  0.2585 -0.1247  0.2201
13886TIP3    H163149   4.857   4.992  11.460  2.7729 -0.8065  2.0719
13886TIP3    H263150   4.926   5.108  11.390 -0.7828 -0.0313 -0.5046
13887TIP3   OH263151   4.364   3.241  11.675  0.0730 -0.1179  0.1233
13887TIP3    H163152   4.286   3.282  11.713  0.6831 -0.2159  1.5648
13887TIP3    H263153   4.347   3.147  11.683 -0.1073 -0.1432 -0.5399
13888TIP3   OH263154   4.271   3.515   0.518  0.3491  0.0881 -0.4359
13888TIP3    H163155   4.215   3.448   0.478  0.5357 -0.0749 -0.4269
13888TIP3    H263156   4.343   3.466   0.557 -1.1476  0.0013  2.4273
13889TIP3   OH263157   1.581   4.831   0.324 -0.2305 -0.1675 -0.6877
13889TIP3    H163158   1.496   4.824   0.367  0.2241 -2.3803 -0.0161
13889TIP3    H263159   1.628   4.752   0.351  2.3830  1.3821 -0.3007
13890TIP3   OH263160   2.845   5.091  11.329 -0.0129  0.1266 -0.9473
13890TIP3    H163161   2.910   5.070  11.396  0.4273 -0.2950 -1.4982
13890TIP3    H263162   2.896   5.104  11.249 -0.6044 -0.1590 -1.3756
13891TIP3   OH263163   0.978   5.075  11.427 -0.2332 -0.0965  0.7619
13891TIP3    H163164   1.019   5.059  11.512  0.1230 -1.0420  0.4206
13891TIP3    H263165   1.050   5.069  11.364 -0.8863 -2.0142  0.1323
13892TIP3   OH263166   1.015   3.151  16.463  0.3772 -0.4134 -0.3227
13892TIP3    H163167   0.990   3.231  16.509 -0.1059 -0.4753 -0.4718
13892TIP3    H263168   1.095   3.175  16.416 -1.1158  0.7850 -2.4477
13893TIP3   OH263169   0.986   2.823   3.371 -0.0524 -0.4359 -0.8023
13893TIP3    H163170   0.933   2.744   3.363  0.4476 -1.0761  1.3686
13893TIP3    H263171   1.077   2.792   3.367  0.1500  0.0981 -0.4907
13894TIP3   OH263172   2.659   1.530  10.448  0.4901  0.6437  0.5491
13894TIP3    H163173   2.725   1.588  10.409 -0.1597  1.4455  0.6276
13894TIP3    H263174   2.692   1.442  10.430  0.3123  0.9792 -1.6358
13895TIP3   OH263175   1.076   3.685   5.589  0.1446  0.2590  0.1402
13895TIP3    H163176   1.091   3.778   5.605 -1.1444  0.6640 -0.8244
13895TIP3    H263177   1.019   3.683   5.512 -0.5247 -1.3069  0.6443
13896TIP3   OH263178   1.572   1.094  15.245 -0.4228 -0.7197  0.0296
13896TIP3    H163179   1.621   1.106  15.327 -0.2583 -1.7365  0.1035
13896TIP3    H263180   1.565   1.181  15.207 -1.8019  0.0294  1.8635
13897TIP3   OH263181   6.805   2.643  12.992  1.0813 -0.2131  0.0163
13897TIP3    H163182   6.752   2.677  12.920 -0.5306  0.9274  1.6644
13897TIP3    H263183   6.799   2.548  12.983 -0.3380 -0.1013 -0.4954
13898TIP3   OH263184   4.138   3.126   1.097  0.0929  0.0934 -0.2336
13898TIP3    H163185   4.191   3.108   1.174  0.1707  2.4566  0.3313
13898TIP3    H263186   4.077   3.052   1.093  0.6008 -0.4895  1.6224
13899TIP3   OH263187   2.293   0.644  16.696  0.9238  0.6793 -0.5011
13899TIP3    H163188   2.332   0.610  16.777  0.1718  1.2415  0.1025
13899TIP3    H263189   2.335   0.593  16.627  3.4165  1.8621  0.0295
13900TIP3   OH263190   2.007   2.560  15.155  0.0320 -0.3063  0.1391
13900TIP3    H163191   1.986   2.504  15.229  0.2190  0.2700  0.6341
13900TIP3    H263192   1.955   2.525  15.083 -2.6468  1.0357  1.2886
13901TIP3   OH263193   0.893   0.561  15.194 -0.1089 -0.6290  0.1151
13901TIP3    H163194   0.959   0.496  15.168  0.2262 -0.2767  0.0872
13901TIP3    H263195   0.888   0.553  15.289  0.6922  0.0226  0.2256
13902TIP3   OH263196   4.352   2.762   0.343 -0.2675  0.0339 -0.1533
13902TIP3    H163197   4.294   2.733   0.272  0.2647 -0.0001 -0.5830
13902TIP3    H263198   4.402   2.683   0.366 -0.6403 -0.0277  0.4625
13903TIP3   OH263199   3.917   0.516  11.087 -0.1890 -0.5300  0.8007
13903TIP3    H163200   3.905   0.453  11.017  1.7257 -0.1197  0.0293
13903TIP3    H263201   3.899   0.601  11.046  0.3540 -0.3404  0.9384
13904TIP3   OH263202   0.895   2.014   4.926  0.1031 -0.2802 -0.2909
13904TIP3    H163203   0.946   2.091   4.953 -0.4957  0.0596 -0.1107
13904TIP3    H263204   0.889   1.961   5.006 -1.0909  0.4008  0.0962
13905TIP3   OH263205   1.465   0.933  12.495  0.2802  0.2780 -0.4406
13905TIP3    H163206   1.507   0.849  12.481  0.2855  0.2211 -0.0897
13905TIP3    H263207   1.457   0.971  12.407  0.3015 -0.0742 -0.5943
13906TIP3   OH263208   2.720   3.321  12.402 -0.6781  0.2546 -0.0715
13906TIP3    H163209   2.689   3.279  12.321  0.8440 -0.7130 -0.1902
13906TIP3    H263210   2.688   3.264  12.472 -0.0877 -0.1580 -0.1326
13907TIP3   OH263211   5.774   0.474   1.147 -0.4382 -0.1723 -0.2675
13907TIP3    H163212   5.686   0.496   1.116 -0.2640  0.2778 -0.4608
13907TIP3    H263213   5.807   0.556   1.183 -0.6356 -0.6848  1.1271
13908TIP3   OH263214   3.625   1.667   5.287  0.2527 -0.4016  0.5818
13908TIP3    H163215   3.606   1.598   5.223 -1.0505 -1.0535  1.6086
13908TIP3    H263216   3.539   1.702   5.310  0.7218  0.0061  1.7563
13909TIP3   OH263217   3.632   2.378  12.896  0.0457 -0.2592  0.5076
13909TIP3    H163218   3.544   2.339  12.898 -0.1020  0.0573  0.3342
13909TIP3    H263219   3.616   2.470  12.874  0.3685 -0.0361  1.1945
13910TIP3   OH263220   1.444   4.044  13.937 -0.0270  0.4558  0.0766
13910TIP3    H163221   1.406   4.030  14.023 -0.0237 -0.7933 -0.1015
13910TIP3    H263222   1.474   3.957  13.909  0.0038  0.8381 -1.1631
13911TIP3   OH263223   1.841   3.848  13.052 -0.1016  0.5494  0.6769
13911TIP3    H163224   1.765   3.900  13.026 -0.5053  0.0548  0.8322
13911TIP3    H263225   1.840   3.773  12.992  2.2127  2.1485 -1.5455
13912TIP3   OH263226   6.314   2.231  14.887  0.4245 -0.2542  0.0599
13912TIP3    H163227   6.294   2.286  14.962 -0.0997 -0.6883  0.2372
13912TIP3    H263228   6.262   2.268  14.815 -0.4331 -0.9051  0.3343
13913TIP3   OH263229   0.673   6.021  12.214  0.4223 -0.1948  0.3647
13913TIP3    H163230   0.683   5.928  12.234  0.5750 -0.3946 -0.5860
13913TIP3    H263231   0.583   6.029  12.182  0.5293 -0.0748  0.0979
13914TIP3   OH263232   3.471   0.562  13.998  0.3394 -0.1407 -0.3519
13914TIP3    H163233   3.391   0.540  14.045  0.1893  1.0232 -0.0200
13914TIP3    H263234   3.465   0.515  13.915 -0.5539 -0.2723 -0.2142
13915TIP3   OH263235   5.070   1.917  14.406  0.3717 -0.0240 -0.1197
13915TIP3    H163236   5.131   1.853  14.443 -0.2339  0.0191  1.0084
13915TIP3    H263237   5.090   1.999  14.452  0.0539  0.2074 -0.3813
13916TIP3   OH263238   1.946   1.098   2.014  0.2050  0.0040  0.2112
13916TIP3    H163239   1.856   1.085   1.984  0.0179  1.2918  0.1599
13916TIP3    H263240   1.948   1.188   2.046  0.6693 -0.9221  3.0838
13917TIP3   OH263241   2.832   5.228   3.093  0.3407 -0.0921  0.9088
13917TIP3    H163242   2.763   5.255   3.031  0.4735  1.3944  1.3688
13917TIP3    H263243   2.842   5.303   3.152  0.7889 -1.1696  2.2498
13918TIP3   OH263244   2.426   0.614   5.205 -0.6156  0.1711 -0.2324
13918TIP3    H163245   2.436   0.623   5.300  1.5711  0.7614 -0.4841
13918TIP3    H263246   2.463   0.528   5.184 -2.3104 -0.5561 -0.4348
13919TIP3   OH263247   1.616   2.000   1.773  0.7371 -0.4728 -0.9846
13919TIP3    H163248   1.562   2.034   1.702  2.0715 -1.3429 -2.4806
13919TIP3    H263249   1.656   2.078   1.812 -0.2370  0.0369 -0.9880
13920TIP3   OH263250   1.987   3.911   2.738 -0.0747  0.1060 -0.3062
13920TIP3    H163251   1.976   3.918   2.644 -0.3810  2.6079 -0.1483
13920TIP3    H263252   1.899   3.893   2.771  0.0622 -0.9419 -0.4927
13921TIP3   OH263253   4.008   2.112  14.799  0.5424 -0.1401 -0.4491
13921TIP3    H163254   4.101   2.106  14.821  0.0518 -4.7149  1.7331
13921TIP3    H263255   3.964   2.113  14.884 -1.3571 -1.7067 -1.3365
13922TIP3   OH263256   0.619   2.156  15.866 -0.5591  0.7579 -0.4472
13922TIP3    H163257   0.677   2.091  15.826 -1.4410  0.0656 -0.6318
13922TIP3    H263258   0.607   2.222  15.798  0.3545  1.1520 -0.2524
13923TIP3   OH263259   0.889   0.059  12.126 -0.3140 -0.4282  0.2248
13923TIP3    H163260   0.917   0.132  12.182 -2.1778  0.7728 -0.3314
13923TIP3    H263261   0.909   0.088  12.038  0.0360 -1.1232  0.0686
13924TIP3   OH263262   4.370   1.292   6.282  0.1740  0.0648 -0.2691
13924TIP3    H163263   4.332   1.355   6.221 -1.1449  0.5494  1.0067
13924TIP3    H263264   4.399   1.345   6.357  0.6238 -0.6474  0.0752
13925TIP3   OH263265   1.144   6.264  11.467 -0.6106  0.5912  0.4170
13925TIP3    H163266   1.112   6.280  11.555 -2.1803  1.6368 -0.3068
13925TIP3    H263267   1.066   6.239  11.417  0.6328 -2.8594 -0.0917
13926TIP3   OH263268   4.088   5.430   2.988  0.1447  0.0701  0.0031
13926TIP3    H163269   4.005   5.391   2.962  0.2343  0.3811 -0.7811
13926TIP3    H263270   4.134   5.447   2.906 -0.5761  3.3386  0.1453
13927TIP3   OH263271   2.850   2.536  16.588  0.1713 -0.2288 -0.0214
13927TIP3    H163272   2.912   2.604  16.564  0.2732 -0.4245 -0.3142
13927TIP3    H263273   2.874   2.461  16.535 -0.2376 -0.3463 -0.0489
13928TIP3   OH263274   3.021   3.398   6.357 -0.3207  0.3640  0.0639
13928TIP3    H163275   3.034   3.453   6.434 -2.5257 -0.0613  0.8395
13928TIP3    H263276   3.042   3.454   6.283  1.9243  0.7641  0.9331
13929TIP3   OH263277   4.944   2.510  13.183  0.1893 -0.0505 -0.2114
13929TIP3    H163278   5.005   2.448  13.144 -1.7529 -0.7725 -2.3650
13929TIP3    H263279   4.861   2.463  13.186 -2.3657  3.1667 -5.3030
13930TIP3   OH263280   1.439   1.226  17.032 -0.1898 -0.3777 -0.2324
13930TIP3    H163281   1.412   1.220  16.941 -1.4248  2.6592 -0.1780
13930TIP3    H263282   1.422   1.139  17.068  0.6352 -1.7468 -2.9027
13931TIP3   OH263283   5.781   6.290   6.532  0.0699 -0.5619 -0.2284
13931TIP3    H163284   5.862   6.334   6.559  0.4546 -2.3464  1.7515
13931TIP3    H263285   5.712   6.338   6.579  0.0665  0.2261 -1.0087
13932TIP3   OH263286   6.176   1.345   0.526 -0.3788 -0.0123 -0.0359
13932TIP3    H163287   6.093   1.364   0.570  0.5353  1.4378  1.1501
13932TIP3    H263288   6.150   1.304   0.444 -2.2017 -1.6159  1.2285
13933TIP3   OH263289   6.037   6.000  15.424 -0.6045  0.0716 -0.1807
13933TIP3    H163290   5.976   6.062  15.464 -2.6594 -1.7576 -0.2403
13933TIP3    H263291   6.094   6.053  15.370 -2.7707  1.8606 -0.8609
13934TIP3   OH263292   2.776   6.200   2.902  0.0957 -0.0247  0.1421
13934TIP3    H163293   2.758   6.232   2.990  0.4096  2.2119 -0.5178
13934TIP3    H263294   2.692   6.209   2.856  0.4910  1.2108 -0.3970
13935TIP3   OH263295   1.415   1.013  15.967  0.1770  0.3064  0.0486
13935TIP3    H163296   1.478   1.079  15.941 -0.2096  1.0948  1.0301
13935TIP3    H263297   1.454   0.972  16.045 -0.3674  0.5926  0.4819
13936TIP3   OH263298   0.254   6.425   5.211  0.0167 -0.5605  0.4222
13936TIP3    H163299   0.205   6.375   5.276  0.5267 -1.7769 -0.0989
13936TIP3    H263300   0.337   6.378   5.202  0.0245 -0.3381 -0.9889
13937TIP3   OH263301   2.887   5.961  15.627  0.3292  0.4573  0.4840
13937TIP3    H163302   2.831   5.910  15.684 -1.7921 -0.4420 -2.1850
13937TIP3    H263303   2.847   6.048  15.624 -0.0424  0.2669 -0.2310
13938TIP3   OH263304   5.229   2.055   1.289 -0.3812 -0.0862 -0.1523
13938TIP3    H163305   5.252   1.993   1.219 -0.4990 -0.9136  0.5196
13938TIP3    H263306   5.145   2.091   1.262  0.1812  0.5716 -1.0646
13939TIP3   OH263307   2.181   1.349  14.521  0.3589 -0.4816  0.0817
13939TIP3    H163308   2.250   1.403  14.560  2.0509 -1.9529 -0.7399
13939TIP3    H263309   2.125   1.326  14.595 -0.5280  2.4302  0.4408
13940TIP3   OH263310   4.464   6.460  11.700  0.8279  0.2041  0.7248
13940TIP3    H163311   4.374   6.466  11.731  1.0744  2.7030  1.2123
13940TIP3    H263312   4.472   6.532  11.637  1.7869 -1.6073 -1.3519
13941TIP3   OH263313   2.127   1.876  13.625 -0.4730 -0.3223  0.6847
13941TIP3    H163314   2.134   1.786  13.658  1.3623 -0.2110  0.7328
13941TIP3    H263315   2.060   1.917  13.680 -0.5064 -1.3386  1.4357
13942TIP3   OH263316   6.801   3.657   5.874  0.2157  0.0474  0.8027
13942TIP3    H163317   6.838   3.731   5.922  0.3943  0.8436 -0.5076
13942TIP3    H263318   6.714   3.646   5.911 -0.6019  2.2283 -0.2682
13943TIP3   OH263319   4.806   4.838  16.835 -0.0220 -0.1105  0.4234
13943TIP3    H163320   4.712   4.844  16.851 -0.4187 -1.7107 -0.9898
13943TIP3    H263321   4.846   4.855  16.920 -1.6241 -0.3455  1.2624
13944TIP3   OH263322   6.543   6.781   3.375  0.4025 -0.6324 -0.4009
13944TIP3    H163323   6.623   6.832   3.363 -0.1029  0.2575 -0.0896
13944TIP3    H263324   6.492   6.831   3.439  0.1652 -1.8680  0.3996
13945TIP3   OH263325   5.241   6.348   1.330 -0.3843  0.1197 -0.6910
13945TIP3    H163326   5.319   6.351   1.386  0.5403 -1.7354 -1.7758
13945TIP3    H263327   5.205   6.261   1.345 -3.4547  1.5697  1.2420
13946TIP3   OH263328   1.257   6.106   3.395 -0.2079  0.0137 -0.0061
13946TIP3    H163329   1.189   6.152   3.346 -2.1549  1.7291  3.8441
13946TIP3    H263330   1.213   6.032   3.435  1.7322 -2.4009 -2.0127
13947TIP3   OH263331   2.976   3.093   3.955 -0.2971 -0.2225  0.1420
13947TIP3    H163332   2.981   3.020   4.016 -1.1180 -0.1291  0.3285
13947TIP3    H263333   2.964   3.170   4.010  3.1820  0.4576  0.1522
13948TIP3   OH263334   6.436   3.639  15.055  0.3607 -0.4313 -0.3465
13948TIP3    H163335   6.363   3.671  15.108 -0.8786 -0.1311 -2.1708
13948TIP3    H263336   6.429   3.544  15.059 -0.3926 -0.4056 -0.8255
13949TIP3   OH263337   1.394   0.276  14.662 -0.0645  0.6094  0.5222
13949TIP3    H163338   1.471   0.272  14.718 -0.7595  0.3361  1.4947
13949TIP3    H263339   1.393   0.191  14.617  1.1616  1.2911 -0.8524
13950TIP3   OH263340   1.387   0.315  17.263 -0.2051 -0.5531 -0.3406
13950TIP3    H163341   1.313   0.340  17.207  0.2057  0.2291 -0.5515
13950TIP3    H263342   1.374   0.363  17.344 -0.3524 -1.0388 -0.0714
13951TIP3   OH263343   6.073   2.724   2.699  0.5323  0.8641  0.6139
13951TIP3    H163344   6.008   2.783   2.662  0.0357  0.1378  0.3098
13951TIP3    H263345   6.123   2.779   2.760 -0.8840  1.2573  1.4665
13952TIP3   OH263346   1.740   1.061  13.815  0.0495  0.2174 -0.2806
13952TIP3    H163347   1.792   1.116  13.757  2.1038 -2.4694 -1.1616
13952TIP3    H263348   1.662   1.040  13.763  0.4430  0.2597 -0.9051
13953TIP3   OH263349   2.866   4.756   4.985 -0.1100  0.0734  0.1940
13953TIP3    H163350   2.904   4.808   5.056 -0.1183 -0.7833  0.8366
13953TIP3    H263351   2.784   4.800   4.965 -1.5602 -1.2549  2.6983
13954TIP3   OH263352   0.686   6.077   5.381 -0.4096 -0.7694 -0.6286
13954TIP3    H163353   0.658   6.101   5.293 -1.0576 -0.2265 -0.2826
13954TIP3    H263354   0.780   6.096   5.383 -0.6910  0.7681 -0.7081
13955TIP3   OH263355   3.689   3.233  11.249  0.0866 -0.1504  0.2351
13955TIP3    H163356   3.630   3.286  11.196 -0.8170 -1.9666 -0.6319
13955TIP3    H263357   3.699   3.283  11.330 -0.8741  1.2357 -0.4586
13956TIP3   OH263358   0.060   4.325   1.820  0.0678 -0.1688  0.0426
13956TIP3    H163359   0.099   4.408   1.848 -2.4744  1.0094  0.3790
13956TIP3    H263360  -0.002   4.350   1.751  1.5561 -2.2397 -2.2269
13957TIP3   OH263361   3.533   4.759  11.030  0.4821 -0.9735 -0.1715
13957TIP3    H163362   3.585   4.837  11.009 -0.4512 -0.4359 -0.5368
13957TIP3    H263363   3.511   4.721  10.945  0.1906 -1.1466 -0.0200
13958TIP3   OH263364   2.449   0.318  15.889  0.8969 -0.1435  0.1725
13958TIP3    H163365   2.455   0.248  15.825  0.1788 -0.3708  0.3473
13958TIP3    H263366   2.371   0.297  15.941  0.4975  0.9458  0.0294
13959TIP3   OH263367   0.318   3.856  12.208 -0.2037  0.0177  0.0787
13959TIP3    H163368   0.359   3.827  12.289 -0.7756  0.7838  0.6623
13959TIP3    H263369   0.378   3.828  12.139  0.2357 -0.7468  0.7511
13960TIP3   OH263370   5.543   3.174   5.293 -0.0071  0.0406 -0.4798
13960TIP3    H163371   5.612   3.195   5.231  1.8588 -1.9693  0.7597
13960TIP3    H263372   5.583   3.186   5.379 -2.4436  2.5120  0.4674
13961TIP3   OH263373   0.689   5.239  15.576 -0.0161 -0.0057  0.0756
13961TIP3    H163374   0.731   5.240  15.662  0.0272 -0.4505  0.0643
13961TIP3    H263375   0.635   5.160  15.577  1.2627 -0.9249 -0.9004
13962TIP3   OH263376   0.924   6.013  11.564  0.1639  0.5114  0.0035
13962TIP3    H163377   0.886   6.092  11.602 -1.1900 -0.6126  1.1014
13962TIP3    H263378   0.851   5.969  11.520  1.3064  0.8067 -2.3391
13963TIP3   OH263379   5.106   6.645   3.924  0.5816 -0.0580 -0.1518
13963TIP3    H163380   5.156   6.635   4.006  1.3301 -1.3134 -0.7316
13963TIP3    H263381   5.089   6.739   3.918 -0.4574 -0.0491  1.9970
13964TIP3   OH263382   4.045   0.729   1.618  0.2332  0.4699 -0.3708
13964TIP3    H163383   3.986   0.798   1.588  0.0890 -0.2751 -1.8635
13964TIP3    H263384   4.013   0.708   1.706  1.0609  3.1410  0.6857
13965TIP3   OH263385   6.265   0.402   0.527  0.7081 -0.2697  0.4106
13965TIP3    H163386   6.350   0.445   0.519  0.8362 -0.2610  1.6529
13965TIP3    H263387   6.250   0.362   0.441  0.9506  1.5591 -0.5364
13966TIP3   OH263388   3.970   5.094   0.098 -0.1344  0.5818 -0.3297
13966TIP3    H163389   3.919   5.078   0.177 -0.0814 -1.6473 -0.6968
13966TIP3    H263390   4.050   5.135   0.129  1.3360 -3.1053  1.2694
13967TIP3   OH263391   0.522   4.116   3.702 -0.2584 -0.1080  0.8572
13967TIP3    H163392   0.433   4.138   3.732  0.2076  1.6760  1.0075
13967TIP3    H263393   0.580   4.157   3.766  0.7024 -0.4195  0.2013
13968TIP3   OH263394   4.791   1.903   6.087 -0.2556 -0.3774 -0.8756
13968TIP3    H163395   4.703   1.882   6.116  0.1861 -0.3317  0.5602
13968TIP3    H263396   4.809   1.990   6.121  0.8570 -0.9622  0.1273
13969TIP3   OH263397   2.319   0.146  13.900 -0.3457 -0.5502  0.2584
13969TIP3    H163398   2.249   0.084  13.881 -1.8724  1.7461 -2.1231
13969TIP3    H263399   2.280   0.209  13.961  0.9006 -1.2913  1.9090
13970TIP3   OH263400   2.378   3.691   4.727  0.2137  0.1087 -0.1049
13970TIP3    H163401   2.389   3.659   4.637 -1.2045  0.1468 -0.3150
13970TIP3    H263402   2.418   3.623   4.781 -1.8202 -1.5834 -0.6095
13971TIP3   OH263403   1.436   6.046  15.847 -0.3028 -0.1137 -0.2521
13971TIP3    H163404   1.419   6.007  15.933  0.8154 -1.8215 -0.7521
13971TIP3    H263405   1.418   5.976  15.785  0.4434  0.5971 -1.3016
13972TIP3   OH263406   0.039   0.882   2.961  0.1401 -0.2501  0.2520
13972TIP3    H163407   0.060   0.886   3.055  0.8120  0.5477  0.0829
13972TIP3    H263408   0.118   0.847   2.920 -0.7343 -2.1748  0.1384
13973TIP3   OH263409   6.563   6.648   6.181 -0.2403  0.6690  0.0594
13973TIP3    H163410   6.574   6.694   6.098 -1.7001  0.2848 -0.3779
13973TIP3    H263411   6.567   6.716   6.248 -3.0128  1.5927 -0.6117
13974TIP3   OH263412   2.821   4.758   4.219 -0.1881 -0.5779  0.3209
13974TIP3    H163413   2.775   4.811   4.284 -0.9754  0.8056 -1.3017
13974TIP3    H263414   2.753   4.705   4.178  0.3597 -1.7017  0.8221
13975TIP3   OH263415   3.281   3.007  14.506 -0.2215 -0.2303 -0.2091
13975TIP3    H163416   3.334   2.936  14.470  1.1966 -0.6427  2.3909
13975TIP3    H263417   3.334   3.085  14.493 -0.3520 -0.1551 -0.2885
13976TIP3   OH263418   4.071   2.951  10.531  0.1515  0.1923 -0.8231
13976TIP3    H163419   3.988   2.997  10.543 -1.4609 -2.5793 -0.3890
13976TIP3    H263420   4.137   3.010  10.567 -1.8298  1.7798  0.4225
13977TIP3   OH263421   6.489   6.243  17.089 -0.5439 -0.9541 -0.0379
13977TIP3    H163422   6.519   6.258  16.999 -1.1942  0.3153 -0.0621
13977TIP3    H263423   6.531   6.161  17.114  2.1853  0.1902 -0.4300
13978TIP3   OH263424   5.967   1.190  15.160  0.1951 -0.5451  0.0512
13978TIP3    H163425   6.045   1.220  15.207  0.7518 -0.6310 -0.7966
13978TIP3    H263426   5.906   1.164  15.229  1.4154 -1.7678  0.7221
13979TIP3   OH263427   1.569   2.282   0.986 -0.7033  0.3195 -0.1161
13979TIP3    H163428   1.594   2.194   1.015 -0.7099  0.0897 -0.7878
13979TIP3    H263429   1.506   2.267   0.915  0.5299  0.8145 -1.3695
13980TIP3   OH263430   5.581   1.184  11.338  0.0621 -0.2951  0.1823
13980TIP3    H163431   5.510   1.125  11.366  1.2854 -1.7526  0.3475
13980TIP3    H263432   5.634   1.196  11.417  0.8363 -0.4828 -0.2946
13981TIP3   OH263433   4.102   3.224  13.159 -0.2293 -0.1443  0.5850
13981TIP3    H163434   4.161   3.180  13.098 -0.0815  1.1314 -0.2246
13981TIP3    H263435   4.049   3.154  13.197 -0.5328 -0.9414 -1.2343
13982TIP3   OH263436   1.705   3.588  13.098  0.3562 -0.0611  0.3574
13982TIP3    H163437   1.718   3.576  13.192  0.3435  1.1235  0.5254
13982TIP3    H263438   1.774   3.537  13.057  2.5579  2.1242  1.1129
13983TIP3   OH263439   4.389   6.656   3.760 -0.2549 -0.4189 -0.3141
13983TIP3    H163440   4.474   6.617   3.778 -0.2156 -0.0526  0.2878
13983TIP3    H263441   4.354   6.680   3.845 -1.9641 -2.6227 -0.3078
13984TIP3   OH263442   1.848   3.014  16.991  0.5589 -0.5192  0.7576
13984TIP3    H163443   1.934   3.029  17.030  0.2330  1.7826  0.7296
13984TIP3    H263444   1.839   3.083  16.925 -0.7230 -1.6317 -0.3011
13985TIP3   OH263445   6.206   2.485   5.363  0.6411  0.3327 -0.0107
13985TIP3    H163446   6.291   2.494   5.406  0.4687  0.9768  0.2066
13985TIP3    H263447   6.210   2.400   5.319  1.8848  0.9046 -1.0661
13986TIP3   OH263448   0.101   6.519  15.408 -0.1102  0.4716 -0.3345
13986TIP3    H163449   0.032   6.480  15.355  0.1959  1.1260 -1.2325
13986TIP3    H263450   0.068   6.607  15.429  0.5574  0.8759 -0.9785
13987TIP3   OH263451   5.309   1.834   3.421  0.7443 -0.1290 -0.4805
13987TIP3    H163452   5.357   1.907   3.462 -2.1581  0.6878  1.7818
13987TIP3    H263453   5.294   1.863   3.331 -0.1933  2.0772  0.3086
13988TIP3   OH263454   4.503   6.796  15.478  0.1674 -0.0833  0.5405
13988TIP3    H163455   4.428   6.797  15.539  0.7573 -0.4624  1.2877
13988TIP3    H263456   4.480   6.861  15.412 -0.4087  0.4888  1.2729
13989TIP3   OH263457   1.068   4.002   2.875 -0.1914 -0.1306 -0.5689
13989TIP3    H163458   1.127   4.043   2.811 -1.1576  1.5143 -0.4670
13989TIP3    H263459   0.992   3.974   2.824  0.2490 -1.4301 -0.5548
13990TIP3   OH263460   2.926   1.700   1.588  0.1087 -0.1990  0.2830
13990TIP3    H163461   2.923   1.782   1.538  2.0726 -0.6476 -0.6602
13990TIP3    H263462   3.011   1.702   1.632 -0.0454 -1.4928  0.6736
13991TIP3   OH263463   3.503   2.779   0.303 -0.0884 -0.4291 -0.1783
13991TIP3    H163464   3.571   2.713   0.293  0.4313 -0.1428  1.1899
13991TIP3    H263465   3.479   2.775   0.396 -0.8455  0.5179 -0.3129
13992TIP3   OH263466   1.995   5.269   0.112 -0.1557 -0.2744  0.3817
13992TIP3    H163467   1.912   5.314   0.127 -0.2732 -0.4793  0.3507
13992TIP3    H263468   1.985   5.229   0.026  0.2587  0.3230  0.0479
13993TIP3   OH263469   3.687   6.530  16.627 -0.3756  0.3779 -0.9344
13993TIP3    H163470   3.701   6.622  16.606 -2.8060  0.7766 -1.0505
13993TIP3    H263471   3.681   6.527  16.722  1.1981  0.0591 -0.8167
13994TIP3   OH263472   2.432   5.752   0.492 -0.2484  0.3099  0.1241
13994TIP3    H163473   2.339   5.748   0.468  0.3977  0.3181 -2.6719
13994TIP3    H263474   2.453   5.845   0.488 -0.1065  0.3045  0.7244
13995TIP3   OH263475   0.213   2.896   1.777  0.1040  0.1208 -0.0589
13995TIP3    H163476   0.237   2.818   1.726  0.6669 -0.2468  0.7480
13995TIP3    H263477   0.118   2.901   1.770  0.0065 -0.9526  0.3003
13996TIP3   OH263478   0.303   2.351  14.264  0.3381  0.3215 -0.5145
13996TIP3    H163479   0.247   2.349  14.186 -0.3706  2.8130 -0.1489
13996TIP3    H263480   0.375   2.409  14.241  3.8848 -4.0010 -1.5338
13997TIP3   OH263481   5.882   4.807   0.897 -0.0340  0.5646 -0.2525
13997TIP3    H163482   5.931   4.851   0.967  0.4455 -0.6321  0.1978
13997TIP3    H263483   5.815   4.870   0.872  1.4099  2.0775 -0.5457
13998TIP3   OH263484   3.412   4.533   1.535 -0.4450  0.0534 -0.4630
13998TIP3    H163485   3.359   4.608   1.510 -1.2070 -0.8631 -1.6833
13998TIP3    H263486   3.458   4.508   1.454  2.7050  1.4261  0.7254
13999TIP3   OH263487   1.653   1.012  14.423  0.1522  0.1455 -0.0766
13999TIP3    H163488   1.708   1.054  14.489  0.7404  1.8263 -1.5543
13999TIP3    H263489   1.575   1.067  14.418 -0.3874 -0.5948 -0.0314
14000TIP3   OH263490   1.657   0.528  15.314  0.0578  0.0144  0.5975
14000TIP3    H163491   1.669   0.570  15.399  3.3307  0.0595  0.2458
14000TIP3    H263492   1.606   0.592  15.263  3.2396  2.9078  0.6882
14001TIP3   OH263493   6.143   6.433  11.461 -0.4206 -0.4991 -0.2821
14001TIP3    H163494   6.207   6.426  11.390  1.0411  0.0087  0.9315
14001TIP3    H263495   6.121   6.526  11.465  1.8731  0.0443  1.8498
14002TIP3   OH263496   1.465   0.872   2.473  0.0624 -0.1491 -0.2475
14002TIP3    H163497   1.479   0.938   2.406  0.8701  0.9548  0.9592
14002TIP3    H263498   1.553   0.842   2.497 -0.2848 -1.7487 -0.8112
14003TIP3   OH263499   1.301   5.723   5.640 -0.3175  0.5369 -0.5085
14003TIP3    H163500   1.218   5.733   5.686 -1.3243 -0.7984 -1.9097
14003TIP3    H263501   1.355   5.668   5.698 -0.1503  1.8750  0.6609
14004TIP3   OH263502   2.426   5.959   3.784 -0.3696 -0.0122  0.6365
14004TIP3    H163503   2.518   5.940   3.802  0.3052  3.5641  1.8090
14004TIP3    H263504   2.416   5.944   3.690  1.7461  0.5187  0.2848
14005TIP3   OH263505   5.559   3.025   1.430  0.5242 -0.0690  0.2446
14005TIP3    H163506   5.615   3.098   1.406 -0.4559  0.0303 -2.0046
14005TIP3    H263507   5.614   2.948   1.420  1.1344  0.2260  1.1756
14006TIP3   OH263508   6.022   3.336  15.670  0.4172  0.4053  0.5834
14006TIP3    H163509   6.040   3.310  15.579 -3.0319  0.3135 -0.2023
14006TIP3    H263510   6.025   3.432  15.668  0.6263  0.3984  0.4605
14007TIP3   OH263511   1.138   6.621  16.393  0.0481 -0.3714  0.2941
14007TIP3    H163512   1.126   6.652  16.483  0.6884  0.5624  0.0698
14007TIP3    H263513   1.058   6.648  16.348 -0.0215 -0.3243  0.4464
14008TIP3   OH263514   1.980   2.842  16.793  0.0177  0.3345 -0.0479
14008TIP3    H163515   1.961   2.915  16.853 -0.5681  0.4104 -0.3180
14008TIP3    H263516   1.968   2.764  16.847 -1.0871  0.3770 -0.1957
14009TIP3   OH263517   0.335   6.244   6.527 -0.4110  0.2883  0.1432
14009TIP3    H163518   0.420   6.246   6.571 -1.2191  1.7014  1.7420
14009TIP3    H263519   0.315   6.335   6.507 -1.5008 -0.0288 -0.3274
14010TIP3   OH263520   0.939   2.299  16.990 -0.0130 -0.4243  0.2537
14010TIP3    H163521   0.961   2.349  16.911 -2.0930  0.9051  0.4432
14010TIP3    H263522   1.005   2.326  17.054  0.1350  0.5280 -0.2697
14011TIP3   OH263523   5.613   4.937   5.949  0.4040 -0.0325 -0.3208
14011TIP3    H163524   5.665   5.013   5.975 -1.2867  1.5887 -1.4807
14011TIP3    H263525   5.526   4.972   5.932 -1.1947 -2.6694  1.7021
14012TIP3   OH263526   4.746   4.884   4.597 -0.1106  0.4795 -0.2847
14012TIP3    H163527   4.756   4.937   4.677  1.4987  0.5797 -0.5199
14012TIP3    H263528   4.757   4.794   4.627 -1.9382  0.2973 -0.0346
14013TIP3   OH263529   4.447   2.559   2.286  0.6346 -0.3421  0.3546
14013TIP3    H163530   4.480   2.522   2.368  2.5668 -1.4851 -0.8716
14013TIP3    H263531   4.395   2.488   2.247  0.6107 -0.1879  0.1018
14014TIP3   OH263532   6.158   5.663  12.957  0.0407 -0.3640  0.3000
14014TIP3    H163533   6.178   5.641  13.048 -1.5022 -0.2484  0.7040
14014TIP3    H263534   6.068   5.696  12.960  0.3662  0.7583 -1.1044
14015TIP3   OH263535   5.230   0.169   1.550 -0.2709 -0.4605  0.6590
14015TIP3    H163536   5.159   0.233   1.539  0.1402 -0.0642  0.2349
14015TIP3    H263537   5.214   0.104   1.482  1.2023  0.9949 -1.2144
14016TIP3   OH263538   5.400   3.250  11.566 -0.4005 -0.2606  0.3868
14016TIP3    H163539   5.479   3.199  11.583 -0.9922 -1.4425 -0.2998
14016TIP3    H263540   5.431   3.339  11.551  0.5401 -0.0036  3.1593
14017TIP3   OH263541   1.052   2.077  12.783 -0.0620 -0.8346 -0.0853
14017TIP3    H163542   1.103   2.049  12.859  0.7888  1.1348  0.1376
14017TIP3    H263543   1.116   2.085  12.712 -0.0673  1.1483  0.0652
14018TIP3   OH263544   6.280   3.188   5.856  0.4236 -0.2729  0.0179
14018TIP3    H163545   6.344   3.241   5.807 -0.3263 -0.1961 -0.9063
14018TIP3    H263546   6.213   3.251   5.883  0.3968 -0.4641  0.4008
14019TIP3   OH263547   4.559   6.026   0.343  0.1958 -0.0829 -0.1189
14019TIP3    H163548   4.612   6.008   0.264 -0.0250 -0.6115 -0.1512
14019TIP3    H263549   4.536   5.939   0.376  0.3635  0.1353  0.5876
14020TIP3   OH263550   1.450   0.186   1.304  0.2303 -0.3165  0.3159
14020TIP3    H163551   1.439   0.145   1.390  0.6618 -0.3316  0.3647
14020TIP3    H263552   1.527   0.144   1.268  0.5660  0.3225  0.2827
14021TIP3   OH263553   1.610   3.969   1.363  0.3094  0.1287 -0.2011
14021TIP3    H163554   1.528   4.008   1.393  1.2322  1.6359  0.4366
14021TIP3    H263555   1.586   3.922   1.283 -1.4291 -0.6366  0.7310
14022TIP3   OH263556   4.920   3.579   0.266  0.2054 -0.3924 -0.1280
14022TIP3    H163557   4.921   3.487   0.293  1.0349 -0.4980 -0.4730
14022TIP3    H263558   4.935   3.576   0.171  2.8913  0.1667  0.1825
14023TIP3   OH263559   5.281   0.468  14.702  0.1177  0.5611  0.2249
14023TIP3    H163560   5.352   0.521  14.667  2.0391 -0.8904  1.7385
14023TIP3    H263561   5.293   0.382  14.663 -2.3071  0.8183 -1.3366
14024TIP3   OH263562   5.057   3.273  15.732  0.2122  0.2498  0.3543
14024TIP3    H163563   5.141   3.309  15.763  0.2153  0.4987  0.0605
14024TIP3    H263564   5.035   3.206  15.796  1.0183 -0.3530  0.0220
14025TIP3   OH263565   1.030   2.115   4.080 -0.5954 -0.1921 -0.1315
14025TIP3    H163566   1.036   2.020   4.080 -1.1754 -0.3636 -3.6771
14025TIP3    H263567   1.106   2.145   4.130 -0.6072 -2.4620  1.3630
14026TIP3   OH263568   2.511   1.952  12.079  0.4170 -0.0328 -0.2568
14026TIP3    H163569   2.447   1.947  12.149 -0.6455  2.3683 -0.9306
14026TIP3    H263570   2.593   1.978  12.122 -0.5098  2.6438  0.0614
14027TIP3   OH263571   2.855   3.916  16.707 -0.1519 -0.8243 -0.3401
14027TIP3    H163572   2.842   3.822  16.704 -0.1728 -0.8092 -1.0231
14027TIP3    H263573   2.767   3.953  16.713 -0.4540 -0.7670 -3.4427
14028TIP3   OH263574   4.636   4.130   4.654 -0.0518  0.2331  0.7063
14028TIP3    H163575   4.568   4.197   4.651  1.9919  2.3891 -1.0567
14028TIP3    H263576   4.666   4.121   4.564  1.9556 -0.6672  1.3894
14029TIP3   OH263577   0.062   3.532  14.982  0.0555  0.1124  0.5275
14029TIP3    H163578   0.142   3.582  14.994 -0.7516  1.9033 -0.9954
14029TIP3    H263579   0.088   3.440  14.993  1.6120  0.7883  3.2995
14030TIP3   OH263580   3.182   1.685  11.103 -0.0526  0.0080 -0.2775
14030TIP3    H163581   3.136   1.651  11.180 -0.1597  0.1776 -0.2652
14030TIP3    H263582   3.226   1.764  11.134 -0.6388  0.4514 -0.5424
14031TIP3   OH263583   6.185   0.312  11.942 -0.3655  0.0232 -0.6837
14031TIP3    H163584   6.176   0.407  11.950  0.0552  0.0019  0.1368
14031TIP3    H263585   6.097   0.278  11.960 -0.1879  0.1859  0.6303
14032TIP3   OH263586   0.403   4.836  15.945 -0.5232 -0.1908  0.4623
14032TIP3    H163587   0.390   4.741  15.933 -0.1363  0.0544 -2.9259
14032TIP3    H263588   0.493   4.844  15.975 -0.4848 -0.8820  0.5503
14033TIP3   OH263589   0.288   6.794   0.571  0.2809  0.0436  0.0852
14033TIP3    H163590   0.360   6.834   0.522 -0.1857  0.5912 -0.1638
14033TIP3    H263591   0.298   6.829   0.660  0.1404  0.3669 -0.0243
14034TIP3   OH263592   5.294   2.271   3.193  0.0051  0.2148  0.4297
14034TIP3    H163593   5.355   2.216   3.143 -0.3707  1.3872 -1.4497
14034TIP3    H263594   5.330   2.359   3.184 -1.8713  0.9306 -0.6756
14035TIP3   OH263595   1.960   1.049   4.601 -0.0000 -0.4241 -0.1758
14035TIP3    H163596   2.048   1.012   4.595  0.3053  0.2758 -0.1500
14035TIP3    H263597   1.917   0.999   4.671  0.8789  0.1944  0.8385
14036TIP3   OH263598   4.421   4.878   3.928  0.2443 -0.2131 -0.3374
14036TIP3    H163599   4.372   4.874   4.010 -0.3146 -0.6188 -0.6918
14036TIP3    H263600   4.506   4.917   3.953  0.9215 -2.3115  0.8296
14037TIP3   OH263601   2.600   0.831   1.461 -0.4728 -0.5725 -0.0583
14037TIP3    H163602   2.647   0.884   1.397  0.6845 -1.9819 -0.4204
14037TIP3    H263603   2.535   0.783   1.409  0.2544 -1.4743 -0.1704
14038TIP3   OH263604   6.212   5.466  15.628 -0.4794 -0.0584  0.3352
14038TIP3    H163605   6.198   5.479  15.534 -1.9121  0.8012  0.6422
14038TIP3    H263606   6.133   5.422  15.659 -0.3190  0.2801  1.2667
14039TIP3   OH263607   0.426   2.481   2.208  0.0904  0.3526  0.0348
14039TIP3    H163608   0.433   2.504   2.300  1.3072 -0.9008  0.2937
14039TIP3    H263609   0.487   2.408   2.197 -1.5244 -0.8672 -1.3287
14040TIP3   OH263610   5.753   2.201  10.421 -0.8109  0.0950 -0.1724
14040TIP3    H163611   5.681   2.253  10.455 -1.5801 -0.9302 -0.1766
14040TIP3    H263612   5.822   2.264  10.402 -2.1526  1.2694 -1.3481
14041TIP3   OH263613   5.288   2.054  16.422 -0.4757  0.1992  0.3762
14041TIP3    H163614   5.285   2.033  16.329  0.3749  1.0959  0.1188
14041TIP3    H263615   5.269   1.972  16.466 -1.1391 -0.1839 -0.5880
14042TIP3   OH263616   3.847   3.333  14.177  0.1541  0.0200  0.5087
14042TIP3    H163617   3.921   3.333  14.117  0.7326 -3.9224  0.9807
14042TIP3    H263618   3.777   3.288  14.129 -1.4654  2.1392  0.7087
14043TIP3   OH263619   0.269   6.491   6.492 -0.3600  0.3175 -0.4876
14043TIP3    H163620   0.203   6.433   6.528  1.7254 -0.9092  1.5658
14043TIP3    H263621   0.240   6.579   6.517 -2.1865  0.0211 -1.3765
14044TIP3   OH263622   4.215   6.270  16.919  0.2258 -0.2991 -0.0851
14044TIP3    H163623   4.283   6.253  16.854  1.1348  1.4393  0.3415
14044TIP3    H263624   4.178   6.354  16.894 -0.2742 -0.2037  0.9162
14045TIP3   OH263625   5.509   4.131  16.290  0.1205  0.1912 -0.3096
14045TIP3    H163626   5.419   4.109  16.266  0.3167  0.3469 -1.2378
14045TIP3    H263627   5.558   4.050  16.275  0.3018  0.3794 -0.7549
14046TIP3   OH263628   5.626   3.897   4.795 -0.8823  0.0792  0.3807
14046TIP3    H163629   5.598   3.809   4.772  0.2471 -0.1344 -0.2554
14046TIP3    H263630   5.711   3.885   4.837 -0.7595  0.8501  0.3645
14047TIP3   OH263631   0.318   1.510   4.450  0.3964  0.4202  0.1127
14047TIP3    H163632   0.316   1.448   4.523  0.1344  1.8616  1.3764
14047TIP3    H263633   0.374   1.468   4.384 -0.0826 -1.3078  0.7622
14048TIP3   OH263634   2.021   0.967   6.438  0.2273 -0.1808  0.4793
14048TIP3    H163635   2.025   1.057   6.469  2.0893 -0.1526  0.2661
14048TIP3    H263636   2.026   0.974   6.343 -1.6224 -0.4448  0.3328
14049TIP3   OH263637   6.171   5.479  15.346  0.3001 -0.4959  0.6491
14049TIP3    H163638   6.087   5.502  15.306 -0.9271 -2.9661  1.5527
14049TIP3    H263639   6.212   5.420  15.283  1.1104  0.2584  0.4637
14050TIP3   OH263640   5.936   3.609  14.196 -0.0733  0.1522  0.5493
14050TIP3    H163641   6.010   3.631  14.252  0.5196 -0.1435 -0.1075
14050TIP3    H263642   5.971   3.546  14.133 -0.7772  0.3185 -0.0232
14051TIP3   OH263643   6.538   3.974  11.642 -0.4211  0.5151  0.0078
14051TIP3    H163644   6.584   3.903  11.597 -0.4795 -0.7110  1.7509
14051TIP3    H263645   6.451   3.975  11.603 -0.3857 -0.3398 -0.1176
14052TIP3   OH263646   4.463   0.788  16.500 -0.1255  0.0718  0.1229
14052TIP3    H163647   4.514   0.754  16.427 -0.6278 -1.3692  0.4175
14052TIP3    H263648   4.483   0.729  16.573 -0.4293  0.8749  0.8797
14053TIP3   OH263649   1.244   5.086  11.586  0.0646 -0.0564 -0.0215
14053TIP3    H163650   1.235   4.991  11.592  0.4418 -0.0496  0.7619
14053TIP3    H263651   1.314   5.107  11.647 -1.0852  0.8900  1.0161
14054TIP3   OH263652   4.159   2.003   5.740  0.6563  0.1787 -0.2729
14054TIP3    H163653   4.252   1.997   5.719  1.1409 -1.0794  1.8903
14054TIP3    H263654   4.117   1.939   5.683  1.5894 -1.4495  0.7748
14055TIP3   OH263655   2.065   5.767   2.461  0.0038  0.4401  0.2118
14055TIP3    H163656   2.062   5.749   2.555  0.5504  3.3625  0.8745
14055TIP3    H263657   1.974   5.786   2.438 -0.3103 -1.2891 -0.1541
14056TIP3   OH263658   0.859   6.341  14.895  0.2153 -0.3933 -0.1068
14056TIP3    H163659   0.849   6.430  14.930  2.5744 -0.4468  0.9008
14056TIP3    H263660   0.886   6.354  14.804  1.2201 -0.0363  0.2318
14057TIP3   OH263661   0.611   2.543   2.966  0.0002 -0.0915  0.2698
14057TIP3    H163662   0.543   2.607   2.987  0.8045  1.5967 -1.8960
14057TIP3    H263663   0.693   2.589   2.984  0.6006 -0.6403 -0.9279
14058TIP3   OH263664   3.605   1.804   3.366  0.3306  0.0785  0.2521
14058TIP3    H163665   3.667   1.754   3.420  0.9967 -1.3425 -1.7208
14058TIP3    H263666   3.661   1.855   3.308 -0.3126 -0.5761 -0.9840
14059TIP3   OH263667   0.482   4.420   2.721  0.6368  0.2272  0.4307
14059TIP3    H163668   0.482   4.337   2.675 -3.0549  0.4296 -0.2502
14059TIP3    H263669   0.535   4.478   2.666 -0.6233 -0.4900 -1.6477
14060TIP3   OH263670   0.798   0.031  13.506  0.1663  0.6134 -0.0039
14060TIP3    H163671   0.872  -0.030  13.512  0.3633  0.6629 -1.5596
14060TIP3    H263672   0.831   0.104  13.454 -0.4432  1.4887  0.8169
14061TIP3   OH263673   0.786   4.975   5.454 -0.3290  0.2055 -0.0102
14061TIP3    H163674   0.777   4.932   5.369 -1.5792  0.3056  0.0649
14061TIP3    H263675   0.783   5.069   5.434  1.7504  0.3152 -0.0987
14062TIP3   OH263676   0.899   5.149   2.308 -0.6178  0.8138 -0.2633
14062TIP3    H163677   0.855   5.141   2.392 -0.3588 -0.9912 -0.2590
14062TIP3    H263678   0.986   5.182   2.329  0.3721 -2.0743  0.5369
14063TIP3   OH263679   1.149   1.147   2.531  0.1096  0.3669 -0.1623
14063TIP3    H163680   1.086   1.081   2.560  0.9679  0.4031  1.9568
14063TIP3    H263681   1.225   1.134   2.589  0.9864  2.0469 -0.8926
14064TIP3   OH263682   0.620   5.082  17.031  0.9817  0.1196 -0.2499
14064TIP3    H163683   0.680   5.021  17.074 -1.3012 -1.4244  0.9842
14064TIP3    H263684   0.534   5.039  17.036 -0.2768  2.2304 -1.8311
14065TIP3   OH263685   3.760   1.724  15.129 -0.5869 -0.8867 -0.5946
14065TIP3    H163686   3.778   1.815  15.152  3.5154 -2.0419  1.7320
14065TIP3    H263687   3.721   1.687  15.207  0.3616 -1.7352 -0.5150
14066TIP3   OH263688   0.209   1.273   3.459  0.9141 -0.4832  0.5507
14066TIP3    H163689   0.248   1.316   3.384  0.4158  1.7945  1.5047
14066TIP3    H263690   0.260   1.303   3.534  0.2748 -1.2360  1.3170
14067TIP3   OH263691   3.094   2.198   2.786 -0.1008  0.6970  0.3363
14067TIP3    H163692   3.176   2.197   2.736  0.2215 -2.4888  0.6952
14067TIP3    H263693   3.120   2.229   2.873  0.9226 -0.7410  0.5963
14068TIP3   OH263694   0.205   5.287  13.866  0.0432 -0.2808  0.4392
14068TIP3    H163695   0.146   5.249  13.801 -0.3177  1.0161 -0.0368
14068TIP3    H263696   0.188   5.238  13.946 -1.3776 -0.2375  0.1868
14069TIP3   OH263697   2.225   3.929   0.211 -0.2954  0.7266 -0.0222
14069TIP3    H163698   2.275   3.873   0.151  3.6987  2.4129  1.4319
14069TIP3    H263699   2.201   4.005   0.158  1.8008  1.4715  0.0241
14070TIP3   OH263700   1.952   2.366   2.528  0.0651  0.3793  0.3353
14070TIP3    H163701   1.966   2.440   2.588  0.3141  0.8005 -0.2332
14070TIP3    H263702   1.858   2.370   2.508  0.0867  0.5678  0.2703
14071TIP3   OH263703   5.027   2.916  14.469  0.2605 -0.4868 -0.1763
14071TIP3    H163704   5.093   2.927  14.400  0.7303  0.1735  0.3573
14071TIP3    H263705   4.991   3.004  14.481  0.0975 -0.6207  0.3315
14072TIP3   OH263706   5.270   5.724  13.328 -0.0747 -0.3661 -0.4288
14072TIP3    H163707   5.209   5.797  13.326 -1.4154 -1.3997  0.8109
14072TIP3    H263708   5.356   5.765  13.316 -0.6243  1.6342  1.6763
14073TIP3   OH263709   6.211   2.838  11.208  0.3016  0.3530 -0.3797
14073TIP3    H163710   6.271   2.770  11.178 -0.8758 -0.8761 -0.0323
14073TIP3    H263711   6.200   2.821  11.302  3.6839  3.9361  0.9314
14074TIP3   OH263712   3.686   6.626   2.589 -0.4987  0.1532  0.1903
14074TIP3    H163713   3.636   6.580   2.656  2.2362 -1.5524  1.2653
14074TIP3    H263714   3.631   6.700   2.564 -2.9224 -0.8411  2.1270
14075TIP3   OH263715   1.468   3.622  14.084 -0.6099  0.2294 -0.0424
14075TIP3    H163716   1.429   3.536  14.100  2.1308 -0.9497  0.9123
14075TIP3    H263717   1.419   3.682  14.140 -1.5643 -0.9732  0.4569
14076TIP3   OH263718   5.323   3.789  13.403  0.3174  0.1980 -0.3850
14076TIP3    H163719   5.348   3.772  13.494  0.9443  0.3683 -0.5172
14076TIP3    H263720   5.275   3.871  13.405 -1.5576 -0.8625  0.0799
14077TIP3   OH263721   4.164   1.286   1.758 -0.2296 -0.4256  0.4616
14077TIP3    H163722   4.147   1.304   1.851 -0.4844  0.7420  0.1951
14077TIP3    H263723   4.259   1.270   1.754  0.2539  2.0586  0.5565
14078TIP3   OH263724   2.641   1.640  13.056 -0.2198  0.7791 -0.3710
14078TIP3    H163725   2.689   1.648  13.138  1.3118 -2.5239 -0.7706
14078TIP3    H263726   2.560   1.595  13.080  1.3521 -2.6225 -0.7712
14079TIP3   OH263727   1.134   2.822  14.349 -0.6190  0.3908 -0.0322
14079TIP3    H163728   1.087   2.748  14.309  2.0370 -0.8033 -1.1800
14079TIP3    H263729   1.108   2.818  14.441 -1.2400 -1.4441 -0.2265
14080TIP3   OH263730   1.362   2.995   3.945  0.5090 -0.1988 -0.3135
14080TIP3    H163731   1.451   2.995   3.981  0.7176 -0.2374 -0.8331
14080TIP3    H263732   1.325   2.912   3.975  0.1461  0.4458  1.1248
14081TIP3   OH263733   5.479   6.452   5.227  0.1798  0.4508 -0.3089
14081TIP3    H163734   5.434   6.373   5.200  0.5680  0.3365 -0.6370
14081TIP3    H263735   5.570   6.424   5.241 -0.0476  0.4392  1.3845
14082TIP3   OH263736   3.149   6.746   5.177  0.1074 -0.2480  0.4137
14082TIP3    H163737   3.226   6.696   5.150  0.8651  0.8027  0.5752
14082TIP3    H263738   3.107   6.773   5.094  0.3838 -0.1188  0.3150
14083TIP3   OH263739   6.718   0.476  13.706  0.4088  0.3494  0.3673
14083TIP3    H163740   6.812   0.466  13.723  0.7281 -0.8554 -1.7358
14083TIP3    H263741   6.710   0.561  13.664  1.0253 -0.5804 -1.8048
14084TIP3   OH263742   0.864   4.804   1.804 -0.3642  0.4054 -0.3633
14084TIP3    H163743   0.859   4.888   1.851 -0.9145  0.4959 -0.5728
14084TIP3    H263744   0.897   4.742   1.869  1.1269  1.0035 -0.5184
14085TIP3   OH263745   4.085   4.336   2.970  0.1944 -0.0225  0.2257
14085TIP3    H163746   4.053   4.252   2.939 -1.6328  1.0621 -1.0441
14085TIP3    H263747   4.105   4.386   2.891  0.7877  0.9261  0.9328
14086TIP3   OH263748   5.876   5.168  15.099 -0.4020 -0.1626  0.4401
14086TIP3    H163749   5.785   5.194  15.085 -0.3886 -0.0362  0.5827
14086TIP3    H263750   5.922   5.197  15.020 -0.3617  0.3728  0.6533
14087TIP3   OH263751   3.176   2.414  14.850 -0.1388 -0.3751  0.0169
14087TIP3    H163752   3.111   2.374  14.908 -1.5465 -1.2859 -2.0716
14087TIP3    H263753   3.246   2.350  14.845  1.1918  0.7326  2.5111
14088TIP3   OH263754   4.134   6.554   3.677 -0.2172 -0.0671  0.2356
14088TIP3    H163755   4.228   6.573   3.674 -0.0217 -0.8791  0.9185
14088TIP3    H263756   4.129   6.461   3.698 -1.1856  0.2906  1.7397
14089TIP3   OH263757   4.454   3.688   0.831  0.1603 -0.7144 -0.2279
14089TIP3    H163758   4.531   3.734   0.864  0.3223 -0.8476 -0.4126
14089TIP3    H263759   4.412   3.751   0.772  0.8106 -1.0664 -1.0846
14090TIP3   OH263760   3.192   0.462  13.202 -0.9356 -0.2223 -0.5696
14090TIP3    H163761   3.117   0.404  13.187 -0.3536 -1.3015  0.5425
14090TIP3    H263762   3.210   0.454  13.295 -1.3485  2.4295 -0.2126
14091TIP3   OH263763   3.052   3.181  15.612  0.5303  0.1571 -0.2884
14091TIP3    H163764   2.984   3.114  15.602  1.9566 -1.3304 -0.5214
14091TIP3    H263765   3.095   3.159  15.695  1.0371  0.7858 -0.3778
14092TIP3   OH263766   2.410   0.038  14.262 -0.3485  0.1940  0.0200
14092TIP3    H163767   2.443   0.005  14.178  0.5007  0.8365  0.0881
14092TIP3    H263768   2.386  -0.040  14.311  1.3422 -0.3298  0.0605
14093TIP3   OH263769   2.578   0.573  16.669 -0.2229 -0.0762 -0.2029
14093TIP3    H163770   2.541   0.554  16.756  2.5813  0.1839  1.1770
14093TIP3    H263771   2.581   0.669  16.665  1.1215 -0.0855  0.1521
14094TIP3   OH263772   0.466   3.467  13.702  0.2228 -0.2931  0.0415
14094TIP3    H163773   0.378   3.503  13.690  0.1804 -0.7609 -1.1720
14094TIP3    H263774   0.523   3.525  13.652  0.8555  0.8534  1.9652
14095TIP3   OH263775   0.808   5.064  17.294  0.3790  0.0908  0.4072
14095TIP3    H163776   0.888   5.092  17.338  0.2767  0.4098  0.3981
14095TIP3    H263777   0.807   4.969  17.303  0.0113  0.2027  1.6998
14096TIP3   OH263778   1.619   2.273  15.882  0.5875 -0.2353  0.0133
14096TIP3    H163779   1.558   2.227  15.825 -0.2250 -0.0746  0.7382
14096TIP3    H263780   1.586   2.363  15.885  2.1015  0.4331 -1.3161
14097TIP3   OH263781   0.800   1.606   1.981 -1.1583  0.1685 -0.6115
14097TIP3    H163782   0.880   1.644   1.945  0.1664 -3.6768 -2.2400
14097TIP3    H263783   0.825   1.574   2.067 -0.7220 -1.4653 -1.3145
14098TIP3   OH263784   5.068   1.441  13.610  0.2835  0.3405  0.2024
14098TIP3    H163785   5.154   1.481  13.625 -0.3760  1.2545  1.8374
14098TIP3    H263786   5.005   1.511  13.632 -0.8832 -0.5998 -0.0499
14099TIP3   OH263787   5.171   4.587  14.579 -0.3232  0.3004 -0.1229
14099TIP3    H163788   5.160   4.649  14.507  1.9946 -0.4495 -1.2084
14099TIP3    H263789   5.196   4.641  14.654 -1.7494  0.9797 -0.0937
14100TIP3   OH263790   3.027   3.774   5.008  0.4553  0.4356 -0.2501
14100TIP3    H163791   2.949   3.725   5.034 -0.3479  1.6837 -0.1956
14100TIP3    H263792   3.072   3.794   5.090  0.7851 -0.1871 -0.2726
14101TIP3   OH263793   6.456   0.129   3.582  0.2759 -0.1961  0.4681
14101TIP3    H163794   6.487   0.208   3.537  0.1541 -0.2343  0.3141
14101TIP3    H263795   6.384   0.160   3.638 -0.7855 -0.4245 -0.7160
14102TIP3   OH263796   0.160   2.468   2.262  0.5258 -0.4625 -0.4293
14102TIP3    H163797   0.246   2.466   2.220  1.1469  2.6998  0.4285
14102TIP3    H263798   0.172   2.421   2.344  1.1137 -0.9605 -0.7846
14103TIP3   OH263799   0.891   2.427   6.222  0.2946 -0.1831  0.6180
14103TIP3    H163800   0.826   2.475   6.172  0.7715  0.5149  0.6518
14103TIP3    H263801   0.888   2.466   6.310  1.9356  1.0463  0.1707
14104TIP3   OH263802   5.877   4.329  13.664 -0.0313 -0.1245  0.2271
14104TIP3    H163803   5.918   4.281  13.593 -3.3812 -0.1078 -1.9270
14104TIP3    H263804   5.909   4.419  13.653  0.6246 -0.4147 -0.3235
14105TIP3   OH263805   1.161   2.959  14.906 -0.5185 -0.1144  0.3122
14105TIP3    H163806   1.235   2.999  14.952 -0.9309  0.7498  0.2445
14105TIP3    H263807   1.100   3.031  14.892 -0.3211 -0.3166 -1.7914
14106TIP3   OH263808   1.175   2.218   4.626 -0.1610  0.0942  0.0000
14106TIP3    H163809   1.081   2.239   4.633 -0.3275  0.6641 -2.9041
14106TIP3    H263810   1.178   2.123   4.636 -0.9159  0.1455  0.9588
14107TIP3   OH263811   2.121   3.367  12.747  0.4886 -0.0001  0.3492
14107TIP3    H163812   2.129   3.293  12.806  0.2033 -1.0083 -0.8364
14107TIP3    H263813   2.210   3.404  12.743  0.3867  0.4609  1.8378
14108TIP3   OH263814   5.935   0.106   5.771 -0.3352  0.4134 -0.2676
14108TIP3    H163815   6.014   0.073   5.813 -1.0916 -0.4105  0.5736
14108TIP3    H263816   5.902   0.032   5.721  0.2674  1.2304 -1.9568
14109TIP3   OH263817   0.954   5.801   2.716  0.3647  0.3125  0.2229
14109TIP3    H163818   0.999   5.774   2.636 -1.5268 -0.2235 -0.7333
14109TIP3    H263819   0.996   5.750   2.785  1.2695 -0.0925 -0.5974
14110TIP3   OH263820   2.172   6.482   1.596  0.0092 -0.3213 -0.0465
14110TIP3    H163821   2.150   6.425   1.669  1.4003  0.2746  0.8887
14110TIP3    H263822   2.202   6.423   1.527  1.0270 -0.7606  0.7548
14111TIP3   OH263823   4.331   3.780   5.169 -0.7944 -0.0407  0.6582
14111TIP3    H163824   4.340   3.817   5.081  0.8169 -2.1000 -0.1013
14111TIP3    H263825   4.322   3.857   5.226 -2.4488  1.3428 -1.2956
14112TIP3   OH263826   6.525   2.363   1.702  0.1963 -0.5077 -0.5722
14112TIP3    H163827   6.467   2.316   1.642 -1.5677 -0.1752  0.7989
14112TIP3    H263828   6.598   2.304   1.716 -0.8992 -1.9229 -0.6089
14113TIP3   OH263829   3.178   5.580   0.944 -0.4137 -0.3211  0.6959
14113TIP3    H163830   3.155   5.556   1.033 -2.1125 -0.1094  0.3414
14113TIP3    H263831   3.105   5.634   0.913  0.8406  0.8783 -0.3242
14114TIP3   OH263832   5.518   4.862  11.322 -0.3963 -0.1748  0.2998
14114TIP3    H163833   5.505   4.768  11.310  0.4171 -0.2816  0.1690
14114TIP3    H263834   5.472   4.902  11.249 -0.1293 -0.5164 -0.0586
14115TIP3   OH263835   3.254   2.897  15.381  0.4766 -0.8283 -0.2366
14115TIP3    H163836   3.202   2.976  15.369  1.9663  0.1449 -0.4798
14115TIP3    H263837   3.264   2.889  15.476  0.0730 -0.9024 -0.1981
14116TIP3   OH263838   1.409   2.446   6.142  0.0289  0.8395  0.2235
14116TIP3    H163839   1.355   2.453   6.221  0.2129 -0.3713  0.4786
14116TIP3    H263840   1.475   2.381   6.164 -0.0596  0.3047 -1.0106
14117TIP3   OH263841   4.334   0.939   2.475  0.7767 -0.0784  0.1304
14117TIP3    H163842   4.261   0.992   2.505  2.5218  2.2438  0.6188
14117TIP3    H263843   4.370   0.988   2.401  1.2626 -1.6652 -0.7257
14118TIP3   OH263844   4.501   2.526   0.450 -0.0284 -0.1936  0.6102
14118TIP3    H163845   4.454   2.446   0.472 -0.1287 -0.5233 -0.7288
14118TIP3    H263846   4.583   2.497   0.411 -1.2042  0.2258 -2.4413
14119TIP3   OH263847   0.176   0.003  11.788 -0.7709 -0.0415  0.0095
14119TIP3    H163848   0.157   0.081  11.841  0.6245 -0.0904  0.6267
14119TIP3    H263849   0.096  -0.012  11.738 -1.1437  1.6591  0.0344
14120TIP3   OH263850   5.296   0.797  11.690 -0.5521 -0.0069 -0.4288
14120TIP3    H163851   5.206   0.811  11.718 -1.1290 -0.6632 -1.8388
14120TIP3    H263852   5.297   0.827  11.599  0.5889 -0.2867 -0.5221
14121TIP3   OH263853   4.101   4.120   5.889 -0.5045 -0.1958  0.1343
14121TIP3    H163854   4.185   4.083   5.863 -0.1597  0.1336  0.7568
14121TIP3    H263855   4.118   4.213   5.902 -0.6687 -0.3213  1.4142
14122TIP3   OH263856   3.727   1.476  13.402 -0.2527 -0.8739 -0.1124
14122TIP3    H163857   3.781   1.407  13.363  1.0555 -0.6674  1.2608
14122TIP3    H263858   3.694   1.437  13.483 -0.9999 -0.4833 -0.2178
14123TIP3   OH263859   5.408   4.315   4.668  0.6034  0.0380  0.4862
14123TIP3    H163860   5.439   4.317   4.578  1.7604 -0.6917  0.8508
14123TIP3    H263861   5.468   4.371   4.717  2.2471 -2.3618  1.4247
14124TIP3   OH263862   3.128   5.438  14.784  0.0481 -0.0542 -0.1005
14124TIP3    H163863   3.048   5.403  14.823 -1.6018  1.2649 -2.0923
14124TIP3    H263864   3.154   5.371  14.720 -0.3372  0.1804 -0.5075
14125TIP3   OH263865   4.149   3.653   3.170  0.1848 -0.6083 -0.3263
14125TIP3    H163866   4.219   3.718   3.176 -0.0911 -0.3724  0.4732
14125TIP3    H263867   4.123   3.636   3.261 -0.2129 -1.3308 -0.5594
14126TIP3   OH263868   3.918   1.131   3.225  0.9685  0.0368  0.0027
14126TIP3    H163869   3.873   1.057   3.184  2.0421 -0.0622 -1.0479
14126TIP3    H263870   3.997   1.093   3.263  1.2611  0.5565 -0.0796
14127TIP3   OH263871   0.282   2.422   4.751 -0.3334 -0.1308 -0.2424
14127TIP3    H163872   0.338   2.462   4.817 -1.0002 -1.5709  1.2631
14127TIP3    H263873   0.342   2.395   4.681  0.5750  0.0923  0.4382
14128TIP3   OH263874   3.982   1.554  16.652  0.7213  0.0983 -0.6706
14128TIP3    H163875   4.058   1.498  16.665  1.2665  0.9285 -0.1456
14128TIP3    H263876   3.921   1.530  16.721  1.9509  1.7519  1.1057
14129TIP3   OH263877   4.900   5.351  12.200 -0.1072 -0.1856  0.0120
14129TIP3    H163878   4.885   5.364  12.107  0.7760 -0.0367 -0.1212
14129TIP3    H263879   4.855   5.268  12.220  0.0934 -0.4621 -0.6496
14130TIP3   OH263880   5.362   2.705  14.783 -0.5791  0.1603  0.4132
14130TIP3    H163881   5.323   2.749  14.859 -1.4238  0.1265  0.0064
14130TIP3    H263882   5.415   2.773  14.741  0.8510 -0.1205  1.6679
14131TIP3   OH263883   3.610   1.091   5.632  0.0012  0.0986 -0.4390
14131TIP3    H163884   3.559   1.032   5.687  4.2575 -2.9301  0.8018
14131TIP3    H263885   3.630   1.165   5.689  1.0309 -1.1169  0.8644
14132TIP3   OH263886   5.457   2.009  12.077 -0.3812  0.4598  0.0302
14132TIP3    H163887   5.512   2.086  12.088 -0.8053  0.8646 -0.6572
14132TIP3    H263888   5.502   1.956  12.012  0.2246 -0.1781  0.9448
14133TIP3   OH263889   3.660   6.295  13.342 -0.1260  0.0881  0.1253
14133TIP3    H163890   3.658   6.330  13.253 -0.3914 -1.1103 -0.3686
14133TIP3    H263891   3.665   6.372  13.399  1.2695  0.8227 -0.9551
14134TIP3   OH263892   2.735   3.425  14.614 -0.0633 -0.1060 -0.1353
14134TIP3    H163893   2.799   3.439  14.544 -1.4304 -0.6389 -1.5510
14134TIP3    H263894   2.660   3.386  14.570 -0.8703 -0.7397  1.7007
14135TIP3   OH263895   1.315   2.707  16.238 -0.4022  0.0480  0.0982
14135TIP3    H163896   1.308   2.764  16.161  2.7863 -0.6131 -0.8560
14135TIP3    H263897   1.334   2.620  16.202  3.0981  0.0664  1.4817
14136TIP3   OH263898   4.860   6.036   0.436  0.5343  0.7824 -0.1042
14136TIP3    H163899   4.777   6.066   0.398  0.2001  0.2048  0.1533
14136TIP3    H263900   4.837   5.955   0.481  1.3941  0.2327 -0.6439
14137TIP3   OH263901   4.711   5.360  11.985 -0.2169  0.1456  0.0662
14137TIP3    H163902   4.675   5.302  12.052  1.2568 -1.2287 -0.2505
14137TIP3    H263903   4.635   5.396  11.940 -1.2284 -2.2029 -0.2477
14138TIP3   OH263904   2.810   6.494  17.278 -0.0078 -0.0211 -0.2583
14138TIP3    H163905   2.737   6.543  17.241 -2.1596 -1.1345  2.1602
14138TIP3    H263906   2.846   6.552  17.346  1.4826  0.5574 -1.4974
14139TIP3   OH263907   3.632   2.596   4.155  0.2963  0.8053 -0.7301
14139TIP3    H163908   3.685   2.614   4.233 -1.4324  2.9254  0.0611
14139TIP3    H263909   3.684   2.631   4.082  1.2193  0.2383 -0.3685
14140TIP3   OH263910   0.451   4.993   5.625  0.6221 -0.1123  0.5537
14140TIP3    H163911   0.492   4.907   5.616  2.1879  0.5000  1.4954
14140TIP3    H263912   0.394   5.000   5.548  0.7206 -1.8244  0.2701
14141TIP3   OH263913   6.345   2.784   4.119 -0.0230 -0.1316 -0.2582
14141TIP3    H163914   6.310   2.724   4.053  0.0011 -0.3191 -0.0989
14141TIP3    H263915   6.270   2.838   4.143 -0.2102 -0.5430  0.0951
14142TIP3   OH263916   3.005   4.645   4.650  0.1630  0.7624  0.0672
14142TIP3    H163917   2.962   4.637   4.735  2.1797 -0.6079  1.0616
14142TIP3    H263918   3.082   4.699   4.667 -0.1534  1.6579 -1.2289
14143TIP3   OH263919   4.410   3.499   1.255  0.0219  0.1809 -0.0787
14143TIP3    H163920   4.350   3.564   1.218 -0.2875  0.3284  0.6725
14143TIP3    H263921   4.461   3.548   1.319  0.8945  0.0379 -0.6403
14144TIP3   OH263922   4.698   4.440  13.166  0.4538 -0.4172 -0.0134
14144TIP3    H163923   4.618   4.462  13.213 -0.5140  0.1557 -1.8105
14144TIP3    H263924   4.763   4.501  13.199 -0.3621  0.4108  0.1172
14145TIP3   OH263925   3.380   4.637   1.032  0.0773 -0.3439  0.1717
14145TIP3    H163926   3.407   4.606   0.945 -0.7886  0.7513 -0.5317
14145TIP3    H263927   3.423   4.722   1.040 -1.6628  0.6372 -0.2302
14146TIP3   OH263928   1.873   3.642  12.819 -0.3492 -0.6098 -0.4525
14146TIP3    H163929   1.827   3.573  12.771  0.2803 -2.2500  1.1816
14146TIP3    H263930   1.923   3.595  12.886 -0.6311  1.5125  1.3419
14147TIP3   OH263931   1.920   3.560   2.508 -0.1270  0.0893  0.6848
14147TIP3    H163932   1.986   3.534   2.572 -0.0042 -0.6376  0.2674
14147TIP3    H263933   1.841   3.575   2.560  0.5464  1.8083  1.3072
14148TIP3   OH263934   4.825   5.309   0.178 -0.1318  0.0266  0.3110
14148TIP3    H163935   4.849   5.400   0.162  1.1375 -0.5611 -1.3855
14148TIP3    H263936   4.846   5.264   0.096  0.0890 -1.9518  1.3996
14149TIP3   OH263937   6.439   6.529   6.848  0.0463 -0.0273  0.0108
14149TIP3    H163938   6.367   6.577   6.890  0.8120  1.3957 -0.2413
14149TIP3    H263939   6.489   6.597   6.803  1.4345 -1.0191  0.0130
14150TIP3   OH263940   2.977   3.763   0.236 -0.1640  0.4079 -0.0564
14150TIP3    H163941   3.009   3.673   0.236 -1.3855 -0.0549  1.4129
14150TIP3    H263942   2.902   3.762   0.176  0.3827  0.6849 -0.7629
14151TIP3   OH263943   1.139   3.613  14.984  0.1327  0.5651 -0.0729
14151TIP3    H163944   1.166   3.672  14.914  0.1812  0.9193  0.2421
14151TIP3    H263945   1.090   3.668  15.045 -1.2086 -0.0312 -0.5721
14152TIP3   OH263946   4.289   3.601   4.682  0.1228 -0.2408 -0.1183
14152TIP3    H163947   4.343   3.573   4.607  1.7923  1.6771  0.2862
14152TIP3    H263948   4.349   3.598   4.756 -0.5350  1.2212  0.4937
14153TIP3   OH263949   4.678   3.339  14.091 -0.2803 -0.0490  0.3259
14153TIP3    H163950   4.612   3.295  14.036  1.7508 -2.1745 -0.5798
14153TIP3    H263951   4.632   3.357  14.173 -2.2108 -0.7131 -0.5501
14154TIP3   OH263952   6.518   2.322   3.154  0.7525 -0.6471 -0.1403
14154TIP3    H163953   6.561   2.264   3.091  1.0234  0.3271 -0.8698
14154TIP3    H263954   6.506   2.267   3.232  1.3094 -1.5808 -0.6886
14155TIP3   OH263955   3.514   3.054   3.015  0.2071 -0.1031 -0.0227
14155TIP3    H163956   3.519   2.963   3.045  0.5501 -0.2666 -0.5711
14155TIP3    H263957   3.587   3.098   3.058  0.1529 -0.1255  0.0939
14156TIP3   OH263958   3.083   5.734   1.611  0.1195 -0.4633 -0.4314
14156TIP3    H163959   3.061   5.657   1.558  2.0468  0.7863 -3.2761
14156TIP3    H263960   3.157   5.706   1.664 -0.9800 -1.3253  0.7323
14157TIP3   OH263961   5.518   5.669   2.144 -0.2886  0.0778  0.1060
14157TIP3    H163962   5.541   5.655   2.236  0.1302 -2.3547 -0.3035
14157TIP3    H263963   5.429   5.704   2.147 -0.1567  0.3553  1.4386
14158TIP3   OH263964   4.185   6.082   0.649  0.2849 -0.5996 -0.2183
14158TIP3    H163965   4.238   6.003   0.661 -1.4999 -2.2800 -2.5016
14158TIP3    H263966   4.099   6.059   0.683 -0.2980  0.3320 -1.0118
14159TIP3   OH263967   0.324   0.754  13.984  0.2344  0.2668  0.0652
14159TIP3    H163968   0.324   0.664  13.953  1.4500  0.5575 -0.8374
14159TIP3    H263969   0.249   0.759  14.044 -0.0558 -1.2332 -0.1460
14160TIP3   OH263970   2.228   3.245  16.796  0.0781 -0.1546  0.5555
14160TIP3    H163971   2.183   3.161  16.782  0.8784 -0.7332  1.3762
14160TIP3    H263972   2.176   3.308  16.745 -0.4439 -1.1631 -0.2085
14161TIP3   OH263973   3.100   0.242  17.202 -0.0637 -0.4154 -0.3660
14161TIP3    H163974   3.041   0.296  17.150 -0.2145 -1.1055 -0.9321
14161TIP3    H263975   3.074   0.152  17.182  0.7019 -0.7133 -0.0566
14162TIP3   OH263976   4.887   6.284   5.671  0.2910  0.0698 -0.9934
14162TIP3    H163977   4.964   6.228   5.678  0.0961  0.0295  1.3564
14162TIP3    H263978   4.844   6.278   5.756 -1.2546  1.6217 -1.6021
14163TIP3   OH263979   6.209   1.915   5.093 -0.0592  0.7606  0.0335
14163TIP3    H163980   6.216   1.826   5.058 -0.3085  0.5509  0.5056
14163TIP3    H263981   6.222   1.972   5.018 -1.9458  0.3132 -0.6772
14164TIP3   OH263982   2.708   3.288  10.946  0.0244  0.4236  0.2967
14164TIP3    H163983   2.787   3.265  10.993  1.7308  2.3623 -1.4175
14164TIP3    H263984   2.715   3.242  10.863  0.1029  1.6799 -0.4234
14165TIP3   OH263985   0.807   3.581   4.079 -0.0632 -0.0477  0.2021
14165TIP3    H163986   0.882   3.543   4.034  1.2347  1.9206  0.5529
14165TIP3    H263987   0.802   3.534   4.162  1.2939  0.2551  0.4931
14166TIP3   OH263988   2.374   2.216   5.882 -0.1656  0.2740 -0.2767
14166TIP3    H163989   2.301   2.154   5.879  1.1287 -1.3599  0.2296
14166TIP3    H263990   2.450   2.164   5.854  0.9330  1.7047 -0.0425
14167TIP3   OH263991   2.664   4.647   4.500 -0.2937 -0.1307 -0.0856
14167TIP3    H163992   2.597   4.691   4.449 -2.7668 -0.6190  2.5066
14167TIP3    H263993   2.696   4.714   4.562 -1.6832 -0.9713  1.6399
14168TIP3   OH263994   1.956   6.006  12.899 -0.4566 -0.0196 -0.2406
14168TIP3    H163995   1.883   6.069  12.907  1.0420  1.9219 -0.9920
14168TIP3    H263996   2.004   6.015  12.981  0.4903  0.8250 -0.8653
14169TIP3   OH263997   6.653   4.190   4.192  0.3716 -0.6859 -0.3223
14169TIP3    H163998   6.637   4.257   4.126  0.7144  1.1879  1.4094
14169TIP3    H263999   6.596   4.215   4.265 -1.6177 -3.8818 -0.6005
14170TIP3   OH264000   5.415   0.634   2.326 -0.4420  0.7361  0.2969
14170TIP3    H164001   5.395   0.545   2.354  2.2946  0.2448  0.9638
14170TIP3    H264002   5.441   0.625   2.234  1.0275  0.5791  0.6939
14171TIP3   OH264003   2.817   5.503   2.015  0.0776  0.1108 -0.1381
14171TIP3    H164004   2.762   5.549   2.079  0.8631  1.1837 -0.2264
14171TIP3    H264005   2.844   5.570   1.953  1.9841 -0.2515  0.2414
14172TIP3   OH264006   2.595   1.858  16.801  0.2490  0.0397  0.1358
14172TIP3    H164007   2.544   1.939  16.804 -1.6221 -1.0496 -0.3297
14172TIP3    H264008   2.604   1.832  16.892  0.3000  0.4496  0.2501
14173TIP3   OH264009   1.480   1.854  16.534  0.1037  0.0534  0.0061
14173TIP3    H164010   1.542   1.858  16.607  1.1029  0.9219 -0.8555
14173TIP3    H264011   1.413   1.793  16.563  1.7703 -1.5525  0.6617
14174TIP3   OH264012   4.084   4.434   5.360  0.2571 -0.3624 -0.3616
14174TIP3    H164013   4.173   4.458   5.387 -0.4502  2.9674 -0.5321
14174TIP3    H264014   4.033   4.442   5.440 -0.5786  2.3011 -1.0559
14175TIP3   OH264015   0.016   4.880  16.560  0.5189  0.0075 -0.4901
14175TIP3    H164016   0.016   4.784  16.554  1.0109 -0.1655  1.6109
14175TIP3    H264017   0.076   4.908  16.490 -0.8099 -1.0715 -2.1638
14176TIP3   OH264018   5.779   5.820  15.075  0.0215  0.4324 -0.2849
14176TIP3    H164019   5.867   5.788  15.094 -0.1771  0.2772  0.3691
14176TIP3    H264020   5.794   5.909  15.042  0.3572  0.7948  0.8094
14177TIP3   OH264021   5.270   5.905  17.132 -0.1386 -0.2910  0.0116
14177TIP3    H164022   5.304   5.888  17.044 -0.9430 -2.4043  0.0351
14177TIP3    H264023   5.263   6.000  17.137  2.3644  0.0416 -1.2297
14178TIP3   OH264024   5.503   2.664  11.222  0.7431 -0.0253 -0.7179
14178TIP3    H164025   5.495   2.613  11.303  1.8912 -1.3096 -1.3812
14178TIP3    H264026   5.453   2.615  11.157 -0.1127  0.9604 -0.8293
14179TIP3   OH264027   5.150   1.957  13.758 -0.0240  0.3354 -0.1673
14179TIP3    H164028   5.183   2.031  13.706 -1.8480  1.6241  0.3954
14179TIP3    H264029   5.108   1.998  13.833 -0.4151 -1.3474  0.5697
14180TIP3   OH264030   1.185   4.557   5.472 -0.3130 -0.0941  0.3092
14180TIP3    H164031   1.278   4.557   5.449 -0.0497  3.6248  0.7927
14180TIP3    H264032   1.165   4.466   5.493  2.8818 -1.2154 -0.9846
14181TIP3   OH264033   1.838   3.799  12.090 -0.2807 -0.2740 -0.1505
14181TIP3    H164034   1.825   3.752  12.172 -0.0686  0.4877  0.3218
14181TIP3    H264035   1.852   3.730  12.025 -1.8773 -0.9461  0.1817
14182TIP3   OH264036   0.790   5.017   5.904 -0.0613 -0.2982 -0.3291
14182TIP3    H164037   0.801   5.104   5.867 -2.6250 -0.5493 -1.8847
14182TIP3    H264038   0.773   4.960   5.829 -1.0590 -1.6289  0.8406
14183TIP3   OH264039   0.708   4.862  11.849  0.9979 -0.0291  0.2343
14183TIP3    H164040   0.749   4.788  11.895  0.7715  0.3171  1.0167
14183TIP3    H264041   0.627   4.877  11.897 -0.1051 -0.7527 -1.3405
14184TIP3   OH264042   5.678   2.477  14.990 -0.1670  0.4636 -0.3135
14184TIP3    H164043   5.735   2.401  14.998 -1.2146 -0.1988  1.4690
14184TIP3    H264044   5.734   2.552  15.007  0.9199  0.1723 -2.2506
14185TIP3   OH264045   2.622   5.408  11.892  0.0537  0.0439  0.0891
14185TIP3    H164046   2.540   5.406  11.843  0.0271 -1.8218  0.1506
14185TIP3    H264047   2.686   5.369  11.834  0.3188 -0.9235  0.9988
14186TIP3   OH264048   3.904   5.240  15.707 -0.3034  0.0870  0.3347
14186TIP3    H164049   3.995   5.262  15.684 -0.6139  0.5477 -0.4824
14186TIP3    H264050   3.851   5.300  15.655 -1.0770  0.1784  1.1945
14187TIP3   OH264051   5.480   3.302  16.389  0.2188 -0.4405  0.2007
14187TIP3    H164052   5.544   3.373  16.382 -0.2429 -0.1773 -2.8361
14187TIP3    H264053   5.493   3.251  16.309 -2.0370 -1.5210  0.4666
14188TIP3   OH264054   2.352   5.835   1.221  0.6486 -0.2362  0.6752
14188TIP3    H164055   2.295   5.760   1.231 -1.0131  0.5870 -1.8051
14188TIP3    H264056   2.364   5.869   1.310 -2.5442 -0.6094  1.3373
14189TIP3   OH264057   1.641   5.182  15.990  1.0891 -0.4981 -0.0482
14189TIP3    H164058   1.725   5.137  15.979  1.0773 -0.5616  0.1108
14189TIP3    H264059   1.664   5.269  16.021  1.0424 -1.1206  1.8921
14190TIP3   OH264060   3.334   1.450  13.519 -0.0023 -0.0891  0.0560
14190TIP3    H164061   3.261   1.438  13.458  0.8102 -1.5058 -0.6973
14190TIP3    H264062   3.350   1.363  13.555  0.0813  0.5634  1.7014
14191TIP3   OH264063   0.855   2.872   5.665  0.4098 -0.1282  0.0781
14191TIP3    H164064   0.928   2.875   5.728 -0.0207 -2.0756  0.7547
14191TIP3    H264065   0.816   2.785   5.678 -2.1779  0.9154 -0.1177
14192TIP3   OH264066   1.337   1.729   3.658  0.2658  0.2281 -0.0452
14192TIP3    H164067   1.329   1.639   3.691  1.8632  0.6480  1.6684
14192TIP3    H264068   1.360   1.719   3.566 -1.5650 -1.0554 -0.4173
14193TIP3   OH264069   4.077   5.139  10.546 -0.2863 -0.6208 -0.1800
14193TIP3    H164070   4.075   5.054  10.503  1.2361  0.0539 -1.7169
14193TIP3    H264071   4.166   5.171  10.532 -1.1397  1.7655 -0.8172
14194TIP3   OH264072   1.419   1.315  15.102  0.0511  0.5023 -0.6284
14194TIP3    H164073   1.325   1.300  15.097 -0.0171  0.3092  0.7824
14194TIP3    H264074   1.458   1.243  15.053 -0.5568  1.8158 -3.1905
14195TIP3   OH264075   0.714   3.434  11.821 -0.1715  0.4145 -0.4768
14195TIP3    H164076   0.779   3.386  11.769 -1.0225 -1.2961 -0.0333
14195TIP3    H264077   0.718   3.523  11.787  1.1885 -0.0320 -1.6233
14196TIP3   OH264078   0.913   3.811   6.548  0.5596 -0.0668  0.1864
14196TIP3    H164079   0.871   3.739   6.502 -0.7216  0.7228  0.1012
14196TIP3    H264080   0.846   3.879   6.555  0.7693 -0.0127  2.9065
14197TIP3   OH264081   5.105   6.605  14.163  0.1163  0.0299  0.0156
14197TIP3    H164082   5.123   6.683  14.110 -2.4043  0.1425 -0.7708
14197TIP3    H264083   5.011   6.605  14.175  0.2977 -1.7451  1.8718
14198TIP3   OH264084   5.159   0.984  13.867 -0.3750 -0.2030  0.3536
14198TIP3    H164085   5.173   1.000  13.960  1.3586  0.8505 -0.0581
14198TIP3    H264086   5.149   1.071  13.828  0.9587 -0.4940 -0.7299
14199TIP3   OH264087   5.518   1.163   6.639 -0.2303  0.0997  0.5094
14199TIP3    H164088   5.596   1.179   6.692 -0.7932  1.0755  1.0554
14199TIP3    H264089   5.515   1.067   6.629  0.2334 -0.0515  1.6984
14200TIP3   OH264090   6.818   0.804   2.390  0.6361 -0.0342 -0.2927
14200TIP3    H164091   6.775   0.733   2.438 -0.2979 -1.3824 -2.9035
14200TIP3    H264092   6.837   0.766   2.304  3.4698  1.7984 -0.5963
14201TIP3   OH264093   2.504   1.428  15.218 -0.0609 -0.3427 -0.1525
14201TIP3    H164094   2.562   1.474  15.279 -2.2787  1.0871  0.9721
14201TIP3    H264095   2.448   1.375  15.274 -1.7270  0.5093 -0.9532
14202TIP3   OH264096   1.471   4.069   3.445 -0.2795 -0.4478 -0.5516
14202TIP3    H164097   1.527   4.033   3.514 -0.2167  0.2843 -0.2173
14202TIP3    H264098   1.482   4.164   3.452 -0.1911 -0.3624 -1.6312
14203TIP3   OH264099   4.893   1.787  13.895 -0.0850 -0.0964  0.1777
14203TIP3    H164100   4.849   1.708  13.926 -0.2030 -0.0370  0.1635
14203TIP3    H264101   4.940   1.821  13.971  1.8705 -1.4433 -0.3570
14204TIP3   OH264102   0.758   6.402  13.469  0.1878 -0.0828  0.1990
14204TIP3    H164103   0.765   6.493  13.438 -0.3753 -0.5004 -1.2889
14204TIP3    H264104   0.848   6.375  13.487  0.4284  0.5708  0.0051
14205TIP3   OH264105   3.380   5.649  10.796 -0.2715  0.0355 -0.3269
14205TIP3    H164106   3.439   5.606  10.857 -0.4329 -0.7615 -0.7256
14205TIP3    H264107   3.344   5.578  10.742 -0.2775  0.7002 -1.2260
14206TIP3   OH264108   5.562   4.991  10.341  0.1276  0.0984  0.5361
14206TIP3    H164109   5.636   5.026  10.391  0.5230 -0.8989  0.6620
14206TIP3    H264110   5.546   4.904  10.378 -1.7526  0.6621  1.1747
14207TIP3   OH264111   4.332   2.995  14.065  0.2123 -0.0401  1.0023
14207TIP3    H164112   4.324   2.903  14.090 -2.2582  0.1481  1.0969
14207TIP3    H264113   4.395   2.995  13.992  0.5537 -1.7254  1.2580
14208TIP3   OH264114   1.630   4.658   2.721 -0.0437  0.0784  0.3002
14208TIP3    H164115   1.608   4.724   2.654  0.3083  0.5603  0.6466
14208TIP3    H264116   1.723   4.675   2.740 -0.5627  1.0884  2.1405
14209TIP3   OH264117   3.522   3.320  15.495 -0.3784 -0.1585 -0.3008
14209TIP3    H164118   3.595   3.376  15.522  0.8144 -1.3632 -0.8869
14209TIP3    H264119   3.456   3.381  15.462  0.2763  0.9853  0.4239
14210TIP3   OH264120   3.239   2.677   3.716  0.1606  0.5059 -0.1434
14210TIP3    H164121   3.232   2.587   3.684  1.1781 -0.2800  1.6712
14210TIP3    H264122   3.153   2.715   3.698  0.0751 -0.4307 -1.9956
14211TIP3   OH264123   6.438   2.211  11.535  0.6396 -0.4937 -0.1722
14211TIP3    H164124   6.482   2.246  11.458 -1.5267 -1.3207 -1.8792
14211TIP3    H264125   6.371   2.276  11.557 -0.2977 -1.3424 -0.4606
14212TIP3   OH264126   5.411   5.295  15.695  0.6399  0.5701  0.2247
14212TIP3    H164127   5.422   5.200  15.689 -0.2404  0.4952 -0.4518
14212TIP3    H264128   5.499   5.330  15.690  1.2023 -0.2995  2.6103
14213TIP3   OH264129   0.879   2.986  13.141 -0.2509 -0.4618 -0.6373
14213TIP3    H164130   0.935   2.963  13.215  1.0148  0.6323 -1.2110
14213TIP3    H264131   0.850   2.902  13.106 -0.2765 -1.0148  0.6307
14214TIP3   OH264132   3.649   1.707   0.182 -0.0588  0.2656  0.1821
14214TIP3    H164133   3.646   1.770   0.254 -0.7859 -0.6734  1.0052
14214TIP3    H264134   3.557   1.686   0.164 -0.0288  1.7913 -2.2515
14215TIP3   OH264135   0.717   5.700  14.409  0.1301  0.9608  0.2493
14215TIP3    H164136   0.695   5.658  14.493  1.1681  0.8285  0.4662
14215TIP3    H264137   0.795   5.752  14.428  2.2405 -1.4273 -1.2863
14216TIP3   OH264138   3.957   1.677  14.079  0.3440  0.0181 -0.8932
14216TIP3    H164139   3.904   1.686  14.000 -0.1997 -0.9024 -0.6438
14216TIP3    H264140   3.901   1.711  14.149 -0.5079 -2.1459 -0.4218
14217TIP3   OH264141   0.286   6.257   2.067 -0.3925 -0.0897 -0.5755
14217TIP3    H164142   0.380   6.256   2.087 -0.1855 -0.5080 -1.5459
14217TIP3    H264143   0.246   6.213   2.142  0.2076 -0.2031 -0.3107
14218TIP3   OH264144   3.538   3.863  12.178  0.3223  0.7005 -0.2318
14218TIP3    H164145   3.495   3.867  12.093 -0.3450 -0.5072  0.0206
14218TIP3    H264146   3.540   3.769  12.199  0.5178  0.9742  1.0573
14219TIP3   OH264147   0.842   1.932   0.569 -0.2210 -0.0814  0.1250
14219TIP3    H164148   0.893   1.946   0.648  0.7726  0.0198 -0.5135
14219TIP3    H264149   0.883   1.989   0.503 -0.2671 -1.0525 -0.7719
14220TIP3   OH264150   2.280   0.416   4.191  0.3750 -0.3287  0.7941
14220TIP3    H164151   2.254   0.337   4.239 -0.9788  0.7078  1.8510
14220TIP3    H264152   2.255   0.397   4.100 -0.9494 -0.7291  1.2120
14221TIP3   OH264153   3.563   4.540  14.031  0.2505  0.0204 -0.0302
14221TIP3    H164154   3.581   4.452  13.998  2.8657  0.0883  1.0452
14221TIP3    H264155   3.475   4.533  14.070  0.9254 -2.5316  1.2740
14222TIP3   OH264156   2.224   4.759   3.598  0.0902 -0.0193 -0.4348
14222TIP3    H164157   2.152   4.802   3.645  0.0049  0.3753 -0.9259
14222TIP3    H264158   2.252   4.689   3.657  2.2615  2.5168  1.7824
14223TIP3   OH264159   1.148   6.427   2.806  0.1910  0.7698 -0.3867
14223TIP3    H164160   1.079   6.493   2.815  0.6824  1.4322 -1.3286
14223TIP3    H264161   1.125   6.379   2.727 -0.0482 -0.0745  0.1810
14224TIP3   OH264162   5.391   4.528  13.571  0.3043  0.6146  0.1455
14224TIP3    H164163   5.324   4.583  13.530 -2.2445 -0.7883  2.1146
14224TIP3    H264164   5.405   4.568  13.657  1.3698  0.3673  0.0975
14225TIP3   OH264165   1.480   6.604  12.937  0.1059 -0.3301 -0.1976
14225TIP3    H164166   1.536   6.611  12.859 -0.4985 -0.6061 -0.6668
14225TIP3    H264167   1.500   6.682  12.989  0.9907 -0.4722 -0.3135
14226TIP3   OH264168   1.036   5.303   0.447  0.2506  0.3796 -0.3704
14226TIP3    H164169   1.033   5.267   0.535  0.2423  1.0400 -0.0909
14226TIP3    H264170   0.947   5.294   0.414  0.5511 -1.1333 -0.8508
14227TIP3   OH264171   5.594   4.876  13.578 -0.1862 -0.0851 -0.3571
14227TIP3    H164172   5.585   4.856  13.485  0.6638  1.6440 -0.8488
14227TIP3    H264173   5.504   4.891  13.608 -0.3726  0.5145 -1.1888
14228TIP3   OH264174   1.200   1.576   1.133 -0.1670  0.0268  0.9316
14228TIP3    H164175   1.259   1.578   1.057 -0.5608 -0.5276  0.6103
14228TIP3    H264176   1.237   1.509   1.190  0.2397  0.5784  1.3281
14229TIP3   OH264177   5.534   3.453  15.313 -0.0353  0.0952 -0.4346
14229TIP3    H164178   5.541   3.409  15.398  1.0351 -0.5642 -0.8495
14229TIP3    H264179   5.533   3.546  15.335 -2.9252 -0.0417  0.4940
14230TIP3   OH264180   2.569   3.635   5.930 -0.1866 -0.3937 -0.3076
14230TIP3    H164181   2.635   3.587   5.981 -0.3421  0.4656  0.7339
14230TIP3    H264182   2.488   3.586   5.944  0.0374 -0.9207 -0.8286
14231TIP3   OH264183   4.878   6.780  14.221  0.4890 -0.4117 -0.0420
14231TIP3    H164184   4.787   6.749  14.214 -0.2293  1.7644 -1.3215
14231TIP3    H264185   4.880   6.832  14.301  0.0589  1.0269 -0.9207
14232TIP3   OH264186   0.711   6.770  15.750 -0.2448  0.6907  0.0398
14232TIP3    H164187   0.797   6.781  15.792 -0.2189  1.2702 -0.1663
14232TIP3    H264188   0.648   6.785  15.821 -0.1904  1.1630 -0.0077
14233TIP3   OH264189   6.238   6.769  16.425  0.5872 -0.0419 -0.0715
14233TIP3    H164190   6.213   6.822  16.501 -0.6633 -2.5211  1.3776
14233TIP3    H264191   6.328   6.744  16.441  0.0678 -1.2529  1.0824
14234TIP3   OH264192   4.695   6.667   3.000  0.0438  0.0785  0.1019
14234TIP3    H164193   4.618   6.650   3.055  0.7707 -0.1314  1.0746
14234TIP3    H264194   4.708   6.761   3.006  1.0143 -0.1264  1.5321
14235TIP3   OH264195   0.974   1.501   5.206  0.3647 -0.1017 -0.3343
14235TIP3    H164196   1.055   1.457   5.231  0.3443  0.7834  1.5201
14235TIP3    H264197   0.951   1.553   5.283 -2.3887 -0.9158 -0.5071
14236TIP3   OH264198   3.538   5.948   2.635 -0.0022  0.1800  0.1245
14236TIP3    H164199   3.489   5.941   2.717  2.8149 -1.5066  1.8404
14236TIP3    H264200   3.481   5.910   2.569 -1.7549  0.1253  1.6108
14237TIP3   OH264201   4.043   5.232  16.329  0.2552 -0.1969  0.5138
14237TIP3    H164202   3.956   5.202  16.303  1.0277 -3.6910  1.4545
14237TIP3    H264203   4.039   5.328  16.321 -2.9750 -0.3513 -1.4348
14238TIP3   OH264204   1.224   3.768   2.961  0.2663 -0.7549  0.4252
14238TIP3    H164205   1.205   3.860   2.942  5.1515  0.1148 -1.8332
14238TIP3    H264206   1.282   3.771   3.037  0.1313 -2.0523  0.5974
14239TIP3   OH264207   5.415   3.831   6.531 -0.2566  0.0453  0.0623
14239TIP3    H164208   5.389   3.911   6.578  1.6340  1.2899 -0.8849
14239TIP3    H264209   5.492   3.800   6.578  0.7968  0.4948 -1.3085
14240TIP3   OH264210   0.393   0.126  11.387  0.0028  0.2827 -0.3855
14240TIP3    H164211   0.479   0.167  11.394  0.2596 -0.4012  0.6371
14240TIP3    H264212   0.372   0.131  11.294  0.2709  2.2121 -0.3813
14241TIP3   OH264213   6.325   6.446  14.586  0.0606  0.5177  0.1505
14241TIP3    H164214   6.400   6.471  14.640 -0.8087  1.4048  1.0047
14241TIP3    H264215   6.267   6.400  14.647 -0.6003  0.8647 -0.2017
14242TIP3   OH264216   1.793   0.941  10.931 -0.1986 -0.3906 -0.0015
14242TIP3    H164217   1.819   0.851  10.910  1.0967 -0.5071  1.8236
14242TIP3    H264218   1.697   0.939  10.927 -0.2342 -2.0514  0.6463
14243TIP3   OH264219   5.687   1.470  16.140  0.0298 -0.2406 -0.1675
14243TIP3    H164220   5.682   1.566  16.136  1.9229 -0.1334 -3.0037
14243TIP3    H264221   5.612   1.440  16.088  0.0017 -0.2740 -0.1084
14244TIP3   OH264222   4.408   5.409   0.295 -0.0771 -0.4497  0.1602
14244TIP3    H164223   4.401   5.483   0.355  1.7704  0.5997 -0.8203
14244TIP3    H264224   4.482   5.358   0.328  0.8851  0.0732 -1.0881
14245TIP3   OH264225   3.129   5.701  13.482 -0.1005  0.0668 -0.6354
14245TIP3    H164226   3.187   5.772  13.509  1.7032 -1.0472 -1.3212
14245TIP3    H264227   3.084   5.734  13.405  0.0720  0.7570 -0.4433
14246TIP3   OH264228   6.060   4.348  14.138 -0.1522  0.1583 -0.1596
14246TIP3    H164229   6.043   4.349  14.044 -0.8109  1.4257 -0.0523
14246TIP3    H264230   6.156   4.345  14.145 -0.0227  1.4625 -0.9137
14247TIP3   OH264231   2.108   3.954   4.135  0.4108  0.1762  0.1813
14247TIP3    H164232   2.201   3.932   4.130  0.1691 -0.8508  0.1027
14247TIP3    H264233   2.095   3.983   4.225  0.3281 -1.9894  0.9020
14248TIP3   OH264234   2.262   6.817   3.340 -0.3812  0.0689 -0.3393
14248TIP3    H164235   2.246   6.724   3.327  2.4723 -0.3985 -1.0207
14248TIP3    H264236   2.310   6.822   3.423 -0.3193  0.9388 -0.4145
14249TIP3   OH264237   5.100   5.254   4.462  0.1677 -0.3483  0.0475
14249TIP3    H164238   5.038   5.226   4.396  0.6359 -1.0297 -0.1208
14249TIP3    H264239   5.180   5.205   4.442  0.6283  0.2038  0.4995
14250TIP3   OH264240   4.759   1.802  16.678  0.1297 -0.5149  0.8702
14250TIP3    H164241   4.720   1.741  16.615  2.1099 -0.7538 -0.2044
14250TIP3    H264242   4.710   1.884  16.665 -1.7588 -1.4858  1.4958
14251TIP3   OH264243   0.716   3.195   1.620  0.0042  0.3254 -0.4489
14251TIP3    H164244   0.772   3.272   1.630  0.4488 -0.1908  1.6043
14251TIP3    H264245   0.647   3.207   1.686 -0.6168 -0.4579 -0.9381
14252TIP3   OH264246   2.842   6.136   5.788  0.1565  0.4667 -0.4453
14252TIP3    H164247   2.769   6.114   5.845 -0.1937  0.1657 -1.0048
14252TIP3    H264248   2.885   6.210   5.831 -1.4152  1.7020 -0.9121
14253TIP3   OH264249   5.839   3.530  16.638  0.2402 -0.1814  0.3002
14253TIP3    H164250   5.774   3.469  16.673  0.3379 -1.1086 -1.0312
14253TIP3    H264251   5.895   3.552  16.713 -1.2662  0.2279  1.3478
14254TIP3   OH264252   6.620   4.959  13.707 -0.4777  0.0636  0.4189
14254TIP3    H164253   6.645   4.912  13.627  2.0192  0.3592  0.9700
14254TIP3    H264254   6.531   4.928  13.725 -0.5309 -1.1689 -1.6051
14255TIP3   OH264255   5.688   0.849  16.580  0.2549 -0.7322 -0.1256
14255TIP3    H164256   5.615   0.792  16.558  0.7822 -1.5212  0.1131
14255TIP3    H264257   5.764   0.807  16.540  0.8314 -0.8058  0.9964
14256TIP3   OH264258   3.340   0.193   0.622  0.0636  0.6066  0.7412
14256TIP3    H164259   3.376   0.106   0.605  0.2914  0.7998  0.2364
14256TIP3    H264260   3.291   0.183   0.704  1.1570  0.3122  1.3765
14257TIP3   OH264261   2.120   0.910   1.872 -0.6981 -0.1894 -0.0651
14257TIP3    H164262   2.075   0.986   1.909 -0.8210 -0.4604  0.3555
14257TIP3    H264263   2.205   0.909   1.916 -1.5173 -1.5648  1.6316
14258TIP3   OH264264   4.697   1.509  12.577  0.5046 -0.0808  0.5272
14258TIP3    H164265   4.755   1.475  12.509 -0.4871 -0.7237 -0.0188
14258TIP3    H264266   4.610   1.510  12.536 -0.1027 -0.4074  1.7653
14259TIP3   OH264267   6.738   3.945   5.944 -0.0094 -0.2010  0.6134
14259TIP3    H164268   6.832   3.954   5.925 -0.0221 -0.8614  0.1965
14259TIP3    H264269   6.734   3.891   6.023 -0.0388 -0.4744  0.4287
14260TIP3   OH264270   4.447   1.738  13.143  0.2567 -0.2409  0.4745
14260TIP3    H164271   4.473   1.830  13.144  0.1549 -0.1575 -1.1813
14260TIP3    H264272   4.468   1.709  13.055 -5.2445 -0.1150 -1.2510
14261TIP3   OH264273   0.554   1.301  17.065  0.4521  0.5317  0.1929
14261TIP3    H164274   0.486   1.234  17.059 -0.8007  1.6979  1.0985
14261TIP3    H264275   0.593   1.289  17.152  2.4245 -1.0086 -0.7934
14262TIP3   OH264276   5.935   3.253  14.787 -0.0353  0.7654  0.7409
14262TIP3    H164277   5.974   3.186  14.731 -1.2387  0.1945  0.5487
14262TIP3    H264278   5.882   3.306  14.727 -0.2615  0.9806  1.1231
14263TIP3   OH264279   0.315   6.637   2.351 -0.3203  0.1922 -0.2076
14263TIP3    H164280   0.241   6.681   2.394 -0.8723 -0.3922 -0.5384
14263TIP3    H264281   0.274   6.566   2.300  0.4844 -0.2324 -0.2744
14264TIP3   OH264282   5.894   3.110  15.021 -0.1603 -0.3267 -0.1334
14264TIP3    H164283   5.899   3.177  14.953  0.8003  0.5028  0.7221
14264TIP3    H264284   5.832   3.146  15.085  1.1984  0.3163  0.8839
14265TIP3   OH264285   0.233   2.826   4.422  0.5038 -0.1428 -0.3537
14265TIP3    H164286   0.193   2.755   4.472  0.5741  0.4760  0.6006
14265TIP3    H264287   0.203   2.811   4.332  1.0064 -1.7244 -0.2950
14266TIP3   OH264288   1.773   6.450  11.967 -0.5984  0.1218 -0.3363
14266TIP3    H164289   1.683   6.431  11.993 -0.3637  0.0815  0.4629
14266TIP3    H264290   1.765   6.520  11.902 -1.2291 -0.1688 -0.5752
14267TIP3   OH264291   6.545   3.529  11.957  0.1340  0.3324  0.2754
14267TIP3    H164292   6.481   3.511  12.025 -1.0269  1.1253 -0.5500
14267TIP3    H264293   6.513   3.482  11.880  1.0668 -0.0230  0.0855
14268TIP3   OH264294   5.834   5.673   1.572 -0.1731  0.4569  0.3641
14268TIP3    H164295   5.890   5.666   1.495 -1.2631 -0.1194 -0.4063
14268TIP3    H264296   5.863   5.753   1.616  0.9664  0.3873 -0.2238
14269TIP3   OH264297   0.967   6.013   5.486  0.0279 -0.3318  0.1443
14269TIP3    H164298   0.987   5.928   5.447  0.2021 -0.3518  0.2760
14269TIP3    H264299   0.964   5.996   5.580 -0.7409 -0.3547  0.1216
14270TIP3   OH264300   3.116   5.963  14.030 -0.2563 -0.5139  0.5781
14270TIP3    H164301   3.155   5.999  14.109 -0.6139 -0.0628  0.5574
14270TIP3    H264302   3.106   6.039  13.972 -0.8325 -0.6799  0.4521
14271TIP3   OH264303   6.092   6.611   2.811  0.2178 -0.2886  0.5763
14271TIP3    H164304   6.037   6.533   2.818  0.1573 -0.2940  0.0731
14271TIP3    H264305   6.155   6.603   2.884  0.5492 -1.0708  0.2159
14272TIP3   OH264306   0.237   3.378   1.468 -0.2447  0.4667  0.3192
14272TIP3    H164307   0.300   3.356   1.536  0.3514 -0.0055 -0.3753
14272TIP3    H264308   0.152   3.376   1.512  0.1428  0.2624  1.0646
14273TIP3   OH264309   3.097   3.434   4.006  0.5239  0.4496 -0.6072
14273TIP3    H164310   3.162   3.398   4.066  0.2250 -1.3517 -1.3032
14273TIP3    H264311   3.094   3.528   4.027 -1.2300 -0.3394  3.8225
14274TIP3   OH264312   2.922   1.531   5.860 -0.3883  0.1683 -0.5677
14274TIP3    H164313   2.965   1.549   5.944 -2.5114 -0.3477  0.7051
14274TIP3    H264314   2.915   1.435   5.857  1.0385  0.0791 -2.0973
14275TIP3   OH264315   1.918   3.026   4.218 -0.2865  0.2437 -0.3279
14275TIP3    H164316   1.912   2.960   4.288 -0.5785  1.6488  1.0188
14275TIP3    H264317   1.834   3.022   4.174 -0.8445  0.6827  0.6679
14276TIP3   OH264318   6.613   4.850  12.585 -0.0032 -0.0539 -0.1665
14276TIP3    H164319   6.560   4.835  12.507  0.5600 -1.1157 -0.3594
14276TIP3    H264320   6.548   4.864  12.655 -0.5572 -1.0259 -0.4594
14277TIP3   OH264321   6.584   1.571  13.979  0.2374  0.1515 -0.6952
14277TIP3    H164322   6.625   1.643  14.027  0.3715  0.2087 -0.8965
14277TIP3    H264323   6.594   1.595  13.887  0.4929 -0.2429 -0.7672
14278TIP3   OH264324   0.024   5.516   5.824  0.0800  0.2325 -0.0575
14278TIP3    H164325  -0.019   5.437   5.857 -0.2122  0.5701  0.3741
14278TIP3    H264326   0.044   5.496   5.733 -1.2204  0.1601 -0.3473
14279TIP3   OH264327   1.874   1.506  15.617 -0.1150  0.5033 -0.3672
14279TIP3    H164328   1.837   1.532  15.532 -0.5067  0.1399 -0.3143
14279TIP3    H264329   1.853   1.579  15.675  0.0921  0.7233 -0.5691
14280TIP3   OH264330   1.655   4.297  16.215 -0.9851 -0.0028 -0.1262
14280TIP3    H164331   1.572   4.289  16.261 -0.6481  3.1277  1.3300
14280TIP3    H264332   1.651   4.383  16.173  1.3886  0.1558 -0.1918
14281TIP3   OH264333   3.256   3.495  15.767  0.2168  0.0736  0.8577
14281TIP3    H164334   3.334   3.474  15.818  0.8706  0.1818 -0.0578
14281TIP3    H264335   3.192   3.429  15.792  0.2546  0.5762  2.3623
14282TIP3   OH264336   4.514   2.738  16.363 -0.0722 -0.2870 -0.1200
14282TIP3    H164337   4.535   2.646  16.376 -0.5205 -0.2243  1.2113
14282TIP3    H264338   4.447   2.757  16.429 -0.1740  0.9277 -0.5451
14283TIP3   OH264339   5.886   1.479   2.716 -0.3535 -0.6404  0.5127
14283TIP3    H164340   5.818   1.542   2.693  0.5267  0.6798  1.4183
14283TIP3    H264341   5.931   1.461   2.634 -0.9938 -0.5773  0.1401
14284TIP3   OH264342   4.056   3.185   1.509  0.7330 -0.8553  0.4411
14284TIP3    H164343   4.066   3.269   1.463  0.0955  0.4464  2.5151
14284TIP3    H264344   4.133   3.180   1.566  0.3513 -1.2460  0.9331
14285TIP3   OH264345   0.915   0.045  15.187 -0.0766  0.1121 -0.5701
14285TIP3    H164346   0.829   0.024  15.150  0.1596 -2.4542  0.1078
14285TIP3    H264347   0.915   0.002  15.272  2.4818 -1.5599 -1.2952
14286TIP3   OH264348   1.940   0.360   1.024  0.0423  0.2821 -0.1514
14286TIP3    H164349   1.952   0.448   0.989 -0.4713  0.7926  0.8914
14286TIP3    H264350   1.851   0.336   0.998 -0.1002  0.3933  0.2289
14287TIP3   OH264351   2.205   2.979   5.067  0.0446  0.4034 -0.6254
14287TIP3    H164352   2.166   3.017   5.145 -0.0036  0.8236 -0.8481
14287TIP3    H264353   2.149   2.905   5.044  0.5786 -0.2927  0.2629
14288TIP3   OH264354   3.324   2.803  13.089 -0.7158 -0.1490 -0.7215
14288TIP3    H164355   3.286   2.716  13.091 -2.1283  0.4387 -0.6704
14288TIP3    H264356   3.265   2.856  13.143  1.5301  0.3212  1.4497
14289TIP3   OH264357   3.374   3.035  12.135  0.2294 -0.0119 -0.1639
14289TIP3    H164358   3.339   3.123  12.124  1.5510  0.6679  0.8402
14289TIP3    H264359   3.468   3.047  12.144  0.4851 -1.5702 -0.3598
14290TIP3   OH264360   2.341   0.554   4.846  0.1551 -0.2104  0.5812
14290TIP3    H164361   2.336   0.476   4.901  0.7771 -0.1189  0.7815
14290TIP3    H264362   2.432   0.555   4.814 -0.5533 -1.0797 -1.6586
14291TIP3   OH264363   3.759   6.579  13.560  0.5237  0.1676 -0.4836
14291TIP3    H164364   3.708   6.657  13.537  1.4832  1.3466  1.1112
14291TIP3    H264365   3.695   6.517  13.594 -0.1293  0.6943 -0.7395
14292TIP3   OH264366   5.328   4.986  11.083 -0.3778  0.2905 -0.0583
14292TIP3    H164367   5.248   5.036  11.097 -0.5680 -0.2057  0.6930
14292TIP3    H264368   5.327   4.966  10.989 -1.3833 -0.1015  0.0201
14293TIP3   OH264369   4.472   1.103  12.588  0.3819 -0.2259 -0.6705
14293TIP3    H164370   4.557   1.096  12.545  1.8332  1.7810  1.6219
14293TIP3    H264371   4.459   1.017  12.629  1.0591 -0.6871 -1.3965
14294TIP3   OH264372   2.263   4.898  15.837 -0.0294 -0.0878 -0.1139
14294TIP3    H164373   2.265   4.851  15.754  1.0900 -1.5501  0.6918
14294TIP3    H264374   2.337   4.862  15.886  1.6118  3.3175  0.1668
14295TIP3   OH264375   2.177   5.357  16.943  0.1220  0.2566 -0.3395
14295TIP3    H164376   2.211   5.336  16.856 -2.5170 -0.6639 -1.2379
14295TIP3    H264377   2.204   5.283  16.998 -1.3008 -1.0059 -1.2946
14296TIP3   OH264378   2.557   0.080  13.287  0.0707 -0.5098  0.1106
14296TIP3    H164379   2.638   0.062  13.335  0.1436 -0.6601 -0.0661
14296TIP3    H264380   2.512  -0.004  13.284 -0.2304 -0.3621  0.4631
14297TIP3   OH264381   0.419   6.608   3.353  0.2897  0.1333  0.4611
14297TIP3    H164382   0.489   6.643   3.299  1.3853 -2.5862 -0.0530
14297TIP3    H264383   0.448   6.626   3.443 -0.6816  3.0913  0.2693
14298TIP3   OH264384   5.712   0.025   0.592 -0.3233 -0.0212 -0.0766
14298TIP3    H164385   5.719  -0.059   0.547 -0.6877 -0.2618  0.3046
14298TIP3    H264386   5.801   0.047   0.617 -0.2703 -0.4683  0.1294
14299TIP3   OH264387   4.029   3.621   5.458 -0.2710  0.6918  0.3285
14299TIP3    H164388   4.072   3.594   5.377  0.7989  1.1062  0.7292
14299TIP3    H264389   3.993   3.541   5.495  0.7371  0.2051  0.2931
14300TIP3   OH264390   3.858   1.692  14.661 -0.2285 -0.2036  0.4519
14300TIP3    H164391   3.876   1.661  14.749  2.8464 -0.7522 -0.2475
14300TIP3    H264392   3.817   1.618  14.617  1.3382 -1.1792  0.5477
14301TIP3   OH264393   5.939   0.789   2.611 -0.5789  0.3421 -0.2098
14301TIP3    H164394   5.984   0.717   2.569  0.9807  0.1169  1.7003
14301TIP3    H264395   5.893   0.749   2.686  1.2107  1.3845  1.5445
14302TIP3   OH264396   5.592   6.463   6.668 -0.0464 -0.1076  0.0533
14302TIP3    H164397   5.602   6.550   6.630 -0.3286  0.1595  0.5855
14302TIP3    H264398   5.512   6.468   6.721 -1.2240 -1.2624 -1.5045
14303TIP3   OH264399   2.264   6.530  15.379  0.0053 -0.1453 -0.1576
14303TIP3    H164400   2.277   6.512  15.286 -1.7368 -1.9547 -0.1141
14303TIP3    H264401   2.246   6.445  15.418  0.4305  0.6115  1.8162
14304TIP3   OH264402   4.018   4.496   1.769  0.7196  0.3151  0.6700
14304TIP3    H164403   3.929   4.472   1.743  0.7218 -0.1012  1.0358
14304TIP3    H264404   4.006   4.558   1.842  0.7123  1.5418 -0.3298
14305TIP3   OH264405   4.389   2.139  15.909 -0.5622 -0.6753 -0.1962
14305TIP3    H164406   4.338   2.086  15.970  0.7858 -2.1200 -0.2468
14305TIP3    H264407   4.364   2.229  15.929 -0.8294 -1.1502  1.8910
14306TIP3   OH264408   0.650   1.687   3.715  0.2398  0.9798 -0.3798
14306TIP3    H164409   0.638   1.756   3.780 -0.4720 -1.0886  1.8254
14306TIP3    H264410   0.565   1.682   3.670  0.5603  2.0553 -1.1404
14307TIP3   OH264411   5.228   6.588   4.177 -0.2486 -0.2675  0.5758
14307TIP3    H164412   5.264   6.515   4.226  1.8915  0.3813  0.0884
14307TIP3    H264413   5.243   6.664   4.233  1.8652  0.4210 -0.7766
14308TIP3   OH264414   0.727   6.526   3.305  0.2176 -0.1576 -0.6166
14308TIP3    H164415   0.697   6.445   3.346  0.4523  0.1254  0.1455
14308TIP3    H264416   0.686   6.526   3.219 -2.8744  0.6453  0.6746
14309TIP3   OH264417   5.256   0.209   2.174 -0.1696  0.0427  0.1139
14309TIP3    H164418   5.343   0.176   2.193  0.0762  0.7059  0.1861
14309TIP3    H264419   5.263   0.250   2.088 -0.1019  1.0832  0.5860
14310TIP3   OH264420   1.393   1.715   4.556 -0.4676 -0.2218  0.1147
14310TIP3    H164421   1.435   1.638   4.596  0.0136  0.6083  1.2754
14310TIP3    H264422   1.302   1.689   4.544 -0.8504 -0.2798  2.5530
14311TIP3   OH264423   1.989   0.053  11.289 -0.2534  0.4757  0.5368
14311TIP3    H164424   2.054  -0.011  11.260 -0.0319  0.9182  0.0529
14311TIP3    H264425   2.033   0.137  11.281 -1.1817  0.8662 -0.6755
14312TIP3   OH264426   2.902   6.539  15.370  0.4442  1.1256  0.7104
14312TIP3    H164427   2.988   6.549  15.409  0.9145 -0.7591  0.2407
14312TIP3    H264428   2.853   6.484  15.431  0.5831 -0.3029 -0.4100
14313TIP3   OH264429   3.129   1.373  13.914  0.0399 -0.5125 -0.2251
14313TIP3    H164430   3.184   1.297  13.935  1.2588  0.5961  0.7761
14313TIP3    H264431   3.073   1.383  13.991  1.5346  0.9749  0.7439
14314TIP3   OH264432   4.571   4.093   5.601 -0.7180 -0.0220  0.1432
14314TIP3    H164433   4.550   4.124   5.514  0.0222 -2.3881 -0.9834
14314TIP3    H264434   4.656   4.132   5.621 -0.2604 -0.4887 -0.8110
14315TIP3   OH264435   2.082   4.066   0.861  0.0835  0.2232  0.1626
14315TIP3    H164436   2.118   4.088   0.776  1.2554 -0.2811  0.5045
14315TIP3    H264437   2.133   4.117   0.923  1.6225 -1.9618  0.8123
14316TIP3   OH264438   2.236   3.830   3.636 -0.0186 -0.1976  0.0912
14316TIP3    H164439   2.317   3.837   3.687 -0.6889  0.9100  1.0499
14316TIP3    H264440   2.240   3.903   3.575  0.0858 -0.6522 -0.4593
14317TIP3   OH264441   2.891   3.170   0.966 -0.3739 -0.5996 -0.0965
14317TIP3    H164442   2.821   3.126   1.015 -1.8839  1.4849 -0.2406
14317TIP3    H264443   2.846   3.215   0.894  1.3617 -0.6486 -1.2825
14318TIP3   OH264444   3.226   3.252  10.703 -0.3587  0.2912 -0.0955
14318TIP3    H164445   3.136   3.278  10.683 -0.5855 -0.7513 -0.4704
14318TIP3    H264446   3.268   3.334  10.729 -1.2466  0.9096 -0.5124
14319TIP3   OH264447   3.680   3.385   4.048 -0.2562  0.2353 -0.0517
14319TIP3    H164448   3.705   3.441   4.121  1.2895 -1.1762  0.5697
14319TIP3    H264449   3.601   3.426   4.011  1.5043  3.5364 -0.4887
14320TIP3   OH264450   2.128   2.276   2.336  0.2563 -0.5594 -0.3903
14320TIP3    H164451   2.100   2.302   2.248  0.3686  2.9175  0.4633
14320TIP3    H264452   2.057   2.304   2.394  2.0414  1.3985  1.0093
14321TIP3   OH264453   4.232   0.307  17.083  0.1564  0.3607  0.3251
14321TIP3    H164454   4.138   0.291  17.074 -0.0057  1.2183  0.4177
14321TIP3    H264455   4.255   0.265  17.166  0.0974 -0.8380 -0.2453
14322TIP3   OH264456   6.351   0.656  13.378 -0.5962  0.2286  0.2873
14322TIP3    H164457   6.394   0.588  13.430 -1.1295 -0.6083 -0.3470
14322TIP3    H264458   6.259   0.632  13.377 -0.5227 -0.1938 -1.6111
14323TIP3   OH264459   1.559   6.101   1.567  0.3128  0.3518 -0.0741
14323TIP3    H164460   1.622   6.053   1.512  0.5871  1.5521 -0.8342
14323TIP3    H264461   1.473   6.071   1.536  0.4819  0.2855 -0.4879
14324TIP3   OH264462   0.865   6.616   5.140  0.1169  0.0782  0.4510
14324TIP3    H164463   0.950   6.572   5.137 -0.6982 -1.5884  0.4287
14324TIP3    H264464   0.828   6.591   5.224 -1.1324 -0.8054 -0.3296
14325TIP3   OH264465   0.330   5.094  16.577 -0.4079  0.0723 -0.3989
14325TIP3    H164466   0.335   5.114  16.670 -0.2949  0.0747 -0.4053
14325TIP3    H264467   0.293   5.172  16.537  2.9310  1.6100 -0.8427
14326TIP3   OH264468   3.207   1.569   1.013 -0.6158  0.0990  0.2582
14326TIP3    H164469   3.146   1.529   0.951 -0.1121  0.0041 -0.1776
14326TIP3    H264470   3.270   1.616   0.958  0.3918 -0.7751  0.6453
14327TIP3   OH264471   2.782   1.736  13.760 -0.2520 -0.2812 -0.0235
14327TIP3    H164472   2.792   1.646  13.791 -0.2938  0.2450  1.5843
14327TIP3    H264473   2.718   1.775  13.819 -1.3505  0.4142 -1.6041
14328TIP3   OH264474   4.913   2.278  15.118  0.4639 -0.0879  0.2917
14328TIP3    H164475   4.990   2.245  15.072  0.2944  0.5768 -0.4836
14328TIP3    H264476   4.885   2.355  15.068 -0.9567 -0.5599  0.3072
14329TIP3   OH264477   0.352   2.386  11.350 -0.2323  0.0446 -0.6235
14329TIP3    H164478   0.344   2.478  11.324  0.1121 -0.3899 -2.3967
14329TIP3    H264479   0.374   2.340  11.269  1.1834 -1.4013  0.5111
14330TIP3   OH264480   5.690   2.218  11.720  0.1563  0.1912  0.3043
14330TIP3    H164481   5.705   2.135  11.765  1.0367  0.4476  0.4987
14330TIP3    H264482   5.600   2.241  11.743  0.0169 -0.5320  0.5290
14331TIP3   OH264483   3.122   5.837  15.676  0.1781  0.0780 -0.3299
14331TIP3    H164484   3.176   5.913  15.701  0.0222  0.0357  0.1404
14331TIP3    H264485   3.037   5.875  15.653  0.7293  0.2725 -2.2047
14332TIP3   OH264486   4.206   3.174   2.640 -0.2512 -0.1112  0.7327
14332TIP3    H164487   4.253   3.098   2.606 -1.6421 -0.2909 -0.8888
14332TIP3    H264488   4.119   3.168   2.601 -1.4316  0.6134  3.0524
14333TIP3   OH264489   1.319   3.338  16.044  0.0605  0.4266  0.3438
14333TIP3    H164490   1.348   3.246  16.049 -1.0601  0.0993  1.2717
14333TIP3    H264491   1.243   3.335  15.987 -2.0771  0.1508  2.9915
14334TIP3   OH264492   6.036   6.051  12.194 -0.2806 -0.1374  0.3231
14334TIP3    H164493   6.044   5.956  12.183  1.7625 -0.1251  1.2344
14334TIP3    H264494   6.036   6.086  12.105  1.2651 -0.8820 -0.0034
14335TIP3   OH264495   0.616   2.709  14.503 -0.4339  0.2761  0.0565
14335TIP3    H164496   0.692   2.741  14.552 -0.7501  2.0932 -0.5347
14335TIP3    H264497   0.574   2.645  14.561  1.1810 -0.2937  0.6461
14336TIP3   OH264498   2.791   1.795  15.846 -0.1094 -0.1028  0.0649
14336TIP3    H164499   2.788   1.775  15.753  0.6156 -2.0213  0.4082
14336TIP3    H264500   2.721   1.859  15.859 -0.9877 -0.6635 -1.5941
14337TIP3   OH264501   2.952   3.244   0.156  0.3501  0.7590 -0.5616
14337TIP3    H164502   2.861   3.260   0.130  0.2233 -0.2897 -0.8340
14337TIP3    H264503   2.995   3.218   0.074  0.6045  0.0856 -0.2179
14338TIP3   OH264504   0.225   6.128   4.006  0.2143  0.1184  0.4432
14338TIP3    H164505   0.248   6.105   3.916  1.5491  0.8992  0.5679
14338TIP3    H264506   0.178   6.051   4.039  0.8486 -0.6991 -0.4971
14339TIP3   OH264507   2.288   4.888  11.105 -0.5343 -0.0661  0.1181
14339TIP3    H164508   2.234   4.877  11.027 -2.4684 -0.7950  1.4968
14339TIP3    H264509   2.231   4.931  11.168  0.9394  0.3754  1.2072
14340TIP3   OH264510   4.065   0.349  15.100 -0.1347  0.4158  0.5018
14340TIP3    H164511   4.058   0.421  15.037 -0.9642  1.9093  2.1986
14340TIP3    H264512   4.147   0.366  15.147  1.2648 -1.5264 -1.0508
14341TIP3   OH264513   5.463   0.901   4.235  0.3792 -0.0578 -0.2496
14341TIP3    H164514   5.468   0.857   4.150  0.7817 -0.9671  0.2397
14341TIP3    H264515   5.435   0.990   4.213 -1.3745 -0.7834 -1.1799
14342TIP3   OH264516   4.517   3.211   4.476 -0.1146 -0.3183 -0.3232
14342TIP3    H164517   4.609   3.203   4.502 -0.1286 -1.9926 -0.6533
14342TIP3    H264518   4.471   3.146   4.530 -1.4235  1.7017  1.1094
14343TIP3   OH264519   0.277   6.123  14.039 -0.1599  0.4634  0.1404
14343TIP3    H164520   0.276   6.052  13.974 -0.3152 -0.1015  0.7551
14343TIP3    H264521   0.189   6.125  14.074  0.5880 -1.1202  2.3302
14344TIP3   OH264522   4.859   0.088   1.677  0.0402  0.5263  0.1808
14344TIP3    H164523   4.884   0.129   1.760 -1.5110  1.0869  0.4113
14344TIP3    H264524   4.781   0.037   1.698  0.1246 -0.0188 -0.7643
14345TIP3   OH264525   6.747   4.430   2.749  0.1326  0.5871  0.1195
14345TIP3    H164526   6.838   4.424   2.720  0.6661 -0.9520  1.9003
14345TIP3    H264527   6.740   4.517   2.789  1.3646  0.0598  1.5528
14346TIP3   OH264528   0.465   0.748   6.614 -0.6173  0.9039 -0.6371
14346TIP3    H164529   0.395   0.744   6.549  0.3543  2.5500 -1.8626
14346TIP3    H264530   0.523   0.817   6.583  1.0142  0.3061  0.8908
14347TIP3   OH264531   6.294   3.003  15.433 -0.2324  0.1834  0.4865
14347TIP3    H164532   6.235   3.053  15.378 -0.6984 -0.9189 -0.0580
14347TIP3    H264533   6.350   3.068  15.475 -2.3319  1.3169  1.6388
14348TIP3   OH264534   2.284   4.286   2.195  0.0629  0.2954 -1.0517
14348TIP3    H164535   2.210   4.345   2.181 -0.0137  0.1734 -1.1656
14348TIP3    H264536   2.263   4.238   2.274  1.0139  1.7859  0.1618
14349TIP3   OH264537   4.962   4.623  11.997 -0.5704  0.2289  0.2671
14349TIP3    H164538   4.880   4.617  11.947 -0.2760 -1.7095 -0.0625
14349TIP3    H264539   4.974   4.536  12.034  1.2033  0.5533  0.5443
14350TIP3   OH264540   5.504   5.555  14.913  0.0863 -0.6167 -0.0194
14350TIP3    H164541   5.516   5.526  14.822 -1.1144  0.4494 -0.5540
14350TIP3    H264542   5.441   5.627  14.907 -0.5932 -1.0164  1.7499
14351TIP3   OH264543   0.540   3.791   5.726  0.5894 -0.1664  0.1835
14351TIP3    H164544   0.509   3.852   5.659 -1.8568 -2.6324 -1.1627
14351TIP3    H264545   0.633   3.813   5.738  0.6431  1.6346 -2.6199
14352TIP3   OH264546   4.651   0.859  16.135  0.1134 -0.1689  0.5932
14352TIP3    H164547   4.690   0.857  16.223 -1.0195 -2.9826  1.1454
14352TIP3    H264548   4.726   0.859  16.076  0.9109  2.5214  1.4502
14353TIP3   OH264549   6.289   1.703   5.523  0.3702 -0.0735  0.4356
14353TIP3    H164550   6.311   1.747   5.605 -1.7381  0.0912  0.9771
14353TIP3    H264551   6.234   1.766   5.477 -1.1895 -1.3934  0.4109
14354TIP3   OH264552   0.081   6.388   4.556 -0.1312  0.1055  0.7855
14354TIP3    H164553   0.162   6.346   4.586  0.7844  1.0826 -0.2323
14354TIP3    H264554   0.066   6.353   4.469 -0.4980  0.3343  0.7535
14355TIP3   OH264555   2.681   5.225  14.725  0.4491 -0.4195 -0.1051
14355TIP3    H164556   2.682   5.195  14.815  3.3393 -0.8934 -0.1920
14355TIP3    H264557   2.625   5.303  14.726 -1.9611 -2.0427  1.4137
14356TIP3   OH264558   2.180   5.386   5.380  0.2844  0.5581  0.0073
14356TIP3    H164559   2.268   5.393   5.417  0.5053 -0.0400 -0.3818
14356TIP3    H264560   2.184   5.436   5.299  0.4649 -0.0177 -0.3448
14357TIP3   OH264561   3.043   6.751  13.035 -0.2356 -0.3611  0.2112
14357TIP3    H164562   3.058   6.810  13.108  0.2398  0.0073 -0.1757
14357TIP3    H264563   3.127   6.708  13.020  0.2729  1.0869 -1.4212
14358TIP3   OH264564   2.320   3.054  11.362 -0.0752 -0.1341 -0.1770
14358TIP3    H164565   2.233   3.073  11.326 -0.1178 -0.0786 -0.0477
14358TIP3    H264566   2.365   3.005  11.293  0.1809  0.7923 -0.6818
14359TIP3   OH264567   2.810   1.645  11.341 -0.4300 -0.5922  0.8139
14359TIP3    H164568   2.838   1.633  11.250 -3.2325 -0.3611 -0.1811
14359TIP3    H264569   2.748   1.718  11.337 -0.2120 -0.2087  3.0473
14360TIP3   OH264570   0.831   3.329   5.746  0.0076  0.1742 -0.2671
14360TIP3    H164571   0.924   3.308   5.743  0.9714  3.5764  0.9830
14360TIP3    H264572   0.817   3.389   5.672 -0.4557  1.8295  1.0807
14361TIP3   OH264573   6.656   3.976  14.384  0.0425  0.3261  0.0504
14361TIP3    H164574   6.635   3.969  14.477  1.2902 -0.6874  0.2880
14361TIP3    H264575   6.750   3.992  14.382  0.1512 -0.3495 -1.0440
14362TIP3   OH264576   3.034   0.769  15.206  0.4330  0.0336 -0.1360
14362TIP3    H164577   3.063   0.810  15.288  2.0807 -2.6697  0.7619
14362TIP3    H264578   3.034   0.675  15.224 -2.2312 -0.5354 -2.3481
14363TIP3   OH264579   5.283   6.248  12.944  0.4961 -0.4423  0.1146
14363TIP3    H164580   5.200   6.294  12.934  0.5940 -0.3571 -0.3490
14363TIP3    H264581   5.262   6.171  12.997  0.3696  0.2312  1.0627
14364TIP3   OH264582   1.606   4.843  13.323 -0.6260  0.0699 -0.2265
14364TIP3    H164583   1.659   4.791  13.383 -0.1508  1.6826  0.8031
14364TIP3    H264584   1.663   4.914  13.295 -1.9311  1.3541  0.2056
14365TIP3   OH264585   0.191   2.510  13.933 -0.0865  0.0140 -0.3436
14365TIP3    H164586   0.193   2.603  13.957 -2.6600 -0.0310  0.3090
14365TIP3    H264587   0.205   2.510  13.838  0.6069  0.9881 -0.2573
14366TIP3   OH264588   5.087   2.024  12.776  0.3797  0.1330  0.6028
14366TIP3    H164589   5.168   2.001  12.730 -0.9228  1.8128 -2.8390
14366TIP3    H264590   5.115   2.085  12.844  2.1946 -0.9254  0.8893
14367TIP3   OH264591   4.792   3.080  14.710  0.0587  0.0112  0.2991
14367TIP3    H164592   4.727   3.058  14.644 -0.1538  0.8115  0.2298
14367TIP3    H264593   4.857   3.133  14.664 -0.2110  0.7690  0.7663
14368TIP3   OH264594   6.147   1.942  15.568 -0.4650  0.0672 -0.1003
14368TIP3    H164595   6.223   1.937  15.625 -0.1611 -1.6881 -0.6079
14368TIP3    H264596   6.141   2.034  15.544 -0.7059  0.9510  2.8450
14369TIP3   OH264597   5.964   5.058  12.369  0.0931  0.5929  0.1285
14369TIP3    H164598   6.022   4.986  12.344  0.3013  1.0941 -0.8799
14369TIP3    H264599   5.948   5.045  12.462 -0.5357 -1.2406 -0.1856
14370TIP3   OH264600   3.451   1.808  11.740  0.0234 -0.2863  0.1137
14370TIP3    H164601   3.376   1.851  11.781 -1.2736 -2.2969 -0.0160
14370TIP3    H264602   3.470   1.732  11.795  2.8543  0.8266  0.8606
14371TIP3   OH264603   2.910   5.126  13.799  0.0123  0.1785 -0.9154
14371TIP3    H164604   2.993   5.119  13.751 -0.0772  1.1723 -1.2425
14371TIP3    H264605   2.847   5.079  13.744  0.5802 -1.7440 -0.0214
14372TIP3   OH264606   4.792   3.236  15.722  0.1955 -0.1356  0.3311
14372TIP3    H164607   4.753   3.315  15.759  0.5517  0.9236 -1.4165
14372TIP3    H264608   4.886   3.249  15.732  0.2281 -1.2930  1.8285
14373TIP3   OH264609   3.963   3.366  16.115  0.3088 -0.2753  0.6731
14373TIP3    H164610   4.008   3.441  16.155 -0.0378 -0.8624  2.2673
14373TIP3    H264611   4.012   3.290  16.145 -0.1494 -0.7680  0.1953
14374TIP3   OH264612   3.562   0.187   5.618 -0.5805  0.0438 -0.4371
14374TIP3    H164613   3.650   0.223   5.618 -0.3932 -0.2979  1.5856
14374TIP3    H264614   3.564   0.117   5.554  1.4822 -1.8231  1.5216
14375TIP3   OH264615   1.556   3.291  14.862  1.0172  0.3360 -0.3297
14375TIP3    H164616   1.643   3.327  14.844  2.2913 -0.7438  2.8092
14375TIP3    H264617   1.503   3.366  14.888  2.0936  0.6691  1.0419
14376TIP3   OH264618   1.031   4.884   0.418  0.3721 -0.5902  0.2788
14376TIP3    H164619   1.022   4.834   0.499 -0.9498  0.5459  0.8796
14376TIP3    H264620   0.967   4.955   0.426  2.4666  1.5022 -0.3026
14377TIP3   OH264621   6.534   6.822  14.475  0.4806 -0.0787 -0.0800
14377TIP3    H164622   6.623   6.838  14.506  0.5738  0.0021 -0.3866
14377TIP3    H264623   6.516   6.730  14.497  0.3235  0.1525  0.7542
14378TIP3   OH264624   0.380   6.796  15.305  0.6121  0.3181  0.2400
14378TIP3    H164625   0.465   6.789  15.262  0.1774 -0.9163 -0.4786
14378TIP3    H264626   0.378   6.722  15.367  0.0485  0.2984  0.2059
14379TIP3   OH264627   3.597   6.714  14.833 -0.1328  1.0526 -0.2497
14379TIP3    H164628   3.537   6.669  14.773  2.5769 -0.6940 -1.8352
14379TIP3    H264629   3.618   6.797  14.788 -1.2868  1.6737  0.3156
14380TIP3   OH264630   1.247   2.878  15.956 -0.2029  0.0102 -0.7968
14380TIP3    H164631   1.151   2.874  15.955 -0.2613  0.9155 -0.2042
14380TIP3    H264632   1.270   2.928  15.878 -0.2417  0.0639 -0.7749
14381TIP3   OH264633   3.126   2.628  11.283  0.4283  0.5760  0.6674
14381TIP3    H164634   3.091   2.548  11.244 -1.6664  1.2179  1.1032
14381TIP3    H264635   3.211   2.602  11.318 -0.2614 -1.4991  0.9476
14382TIP3   OH264636   1.501   6.267   2.900 -0.3357  0.7233  0.6262
14382TIP3    H164637   1.414   6.267   2.941 -0.3454  0.4509  0.6121
14382TIP3    H264638   1.525   6.359   2.893  0.8225  0.7644  3.7024
14383TIP3   OH264639   1.802   4.331   3.794 -0.0004  0.5082  0.3798
14383TIP3    H164640   1.803   4.400   3.860  0.6893  0.7729  0.0931
14383TIP3    H264641   1.761   4.256   3.838 -4.2345  2.1204 -0.3417
14384TIP3   OH264642   4.681   3.774   2.480  0.2914  0.2016  0.3589
14384TIP3    H164643   4.754   3.718   2.452  0.4797  1.3924 -1.7321
14384TIP3    H264644   4.605   3.740   2.432  0.3337  1.4588 -0.6547
14385TIP3   OH264645   0.339   1.030  14.028  0.2429  0.5548  0.0117
14385TIP3    H164646   0.347   1.000  14.119 -0.8117  1.1324  0.3094
14385TIP3    H264647   0.350   0.951  13.976  0.9015  0.2197  0.6296
14386TIP3   OH264648   6.689   1.707   0.951 -0.5190 -0.1730  0.2034
14386TIP3    H164649   6.657   1.661   1.029 -0.2700 -0.3928  0.1772
14386TIP3    H264650   6.627   1.683   0.882  1.1409 -2.7979 -0.5310
14387TIP3   OH264651   6.758   0.088  16.749 -0.2230  0.6536  0.0043
14387TIP3    H164652   6.713   0.162  16.790 -3.2209 -0.3390 -1.2127
14387TIP3    H264653   6.823   0.129  16.692 -0.2490  2.2254  1.0248
14388TIP3   OH264654   5.556   1.203   5.021  0.3034 -0.2591 -0.3056
14388TIP3    H164655   5.545   1.296   5.037 -0.4960 -0.5713  1.0739
14388TIP3    H264656   5.477   1.163   5.055  0.3127 -1.3977 -1.5158
14389TIP3   OH264657   6.077   2.445  11.431 -0.5639  0.3733 -0.4425
14389TIP3    H164658   5.995   2.441  11.481 -1.0035  0.7195 -1.1145
14389TIP3    H264659   6.144   2.416  11.492 -1.4126 -1.5965 -0.3758
14390TIP3   OH264660   6.400   6.560  16.866  0.4446  0.2865  0.1400
14390TIP3    H164661   6.343   6.525  16.797 -0.3409  0.6402  0.6046
14390TIP3    H264662   6.411   6.487  16.927 -1.7545  0.9768  1.4692
14391TIP3   OH264663   3.751   1.750   5.518  0.1765  0.5234  0.2463
14391TIP3    H164664   3.702   1.704   5.450 -0.3426 -0.1241  1.0427
14391TIP3    H264665   3.783   1.681   5.576  2.4500  0.8975 -0.4904
14392TIP3   OH264666   6.420   2.988  16.271  0.1302 -0.6992  1.0226
14392TIP3    H164667   6.386   3.028  16.191 -0.5356 -0.4150  1.4438
14392TIP3    H264668   6.367   2.910  16.284  0.5467 -1.0017  0.9358
14393TIP3   OH264669   1.588   0.380   5.872  0.6287 -0.6517 -0.1659
14393TIP3    H164670   1.545   0.354   5.790  1.4331 -1.0995 -0.4515
14393TIP3    H264671   1.534   0.341   5.940 -0.8014  0.8002 -0.4078
14394TIP3   OH264672   6.700   2.937  16.185 -0.5023 -0.1918 -0.0400
14394TIP3    H164673   6.768   2.960  16.248 -0.8763  1.0566 -0.0719
14394TIP3    H264674   6.623   2.917  16.239 -0.4004 -0.5927 -0.0441
14395TIP3   OH264675   1.670   1.508   1.087  0.0179 -0.4207 -0.2899
14395TIP3    H164676   1.631   1.595   1.094 -0.0389 -0.4949  0.3331
14395TIP3    H264677   1.659   1.469   1.174  2.2816 -0.1115  0.1994
14396TIP3   OH264678   4.767   1.069   2.356  0.2355  0.5258 -0.2404
14396TIP3    H164679   4.720   1.152   2.362  1.8065  1.4420  0.0741
14396TIP3    H264680   4.701   1.005   2.330 -1.0920  1.7966 -0.0949
14397TIP3   OH264681   2.595   4.138  13.745 -0.4539  0.0560  0.0010
14397TIP3    H164682   2.606   4.224  13.786 -2.2033 -0.2327  1.1843
14397TIP3    H264683   2.609   4.154  13.652  0.1011  1.4446  0.2907
14398TIP3   OH264684   2.786   3.986   3.998 -0.2412 -0.3085  0.5613
14398TIP3    H164685   2.784   3.892   3.981  0.6376 -0.7948  2.7989
14398TIP3    H264686   2.702   4.005   4.039 -0.3578 -0.1483  0.2476
14399TIP3   OH264687   0.920   0.478  13.368  0.4788  0.0287 -0.1013
14399TIP3    H164688   0.899   0.570  13.387 -0.3922 -0.1256 -0.2547
14399TIP3    H264689   1.015   0.474  13.371  0.4908  0.5685  1.6912
14400TIP3   OH264690   2.646   1.259  14.726 -0.6322 -0.1977  0.2379
14400TIP3    H164691   2.658   1.343  14.683 -2.4011  0.3085  0.6594
14400TIP3    H264692   2.603   1.280  14.809  1.1848 -1.3077  1.5589
14401TIP3   OH264693   5.922   6.595   4.102  0.3961 -0.3633 -0.2296
14401TIP3    H164694   5.872   6.517   4.076  1.6144 -1.8031  1.5050
14401TIP3    H264695   5.879   6.625   4.182 -0.2010  0.9397 -1.0039
14402TIP3   OH264696   5.801   5.236   4.387  0.4797  0.1552  0.7097
14402TIP3    H164697   5.854   5.298   4.437 -1.2740  0.4584  2.2797
14402TIP3    H264698   5.763   5.288   4.317  1.4525  0.1314  0.1351
14403TIP3   OH264699   3.073   4.271  11.418 -0.4644  0.4184  0.4048
14403TIP3    H164700   3.167   4.285  11.416 -0.0059 -1.6516  2.8520
14403TIP3    H264701   3.055   4.216  11.342  0.3980  0.2337  0.3291
14404TIP3   OH264702   0.536   0.596  16.662  0.2201 -0.7520  0.1197
14404TIP3    H164703   0.446   0.623  16.645  1.5767  4.4902 -0.5553
14404TIP3    H264704   0.549   0.615  16.755  0.8774 -0.4712 -0.0216
14405TIP3   OH264705   6.483   4.407   1.053 -0.3487 -0.0342  0.0122
14405TIP3    H164706   6.554   4.356   1.090  0.0791  0.2549 -0.4023
14405TIP3    H264707   6.501   4.497   1.080  1.3243  0.5917 -2.8446
14406TIP3   OH264708   0.036   2.358   3.383 -0.4720 -0.1003  0.4595
14406TIP3    H164709   0.013   2.327   3.471  0.6522  0.3032  0.9152
14406TIP3    H264710   0.072   2.445   3.397 -2.3469  0.9280 -0.6674
14407TIP3   OH264711   2.935   6.139   6.228 -0.0438 -0.3154  0.4841
14407TIP3    H164712   2.975   6.078   6.167 -1.6126  0.4701 -1.4387
14407TIP3    H264713   2.988   6.219   6.222 -1.3765  0.4938 -1.5500
14408TIP3   OH264714   5.098   4.818   3.710  0.2079 -0.2627  0.8369
14408TIP3    H164715   5.065   4.824   3.621 -0.7897 -0.4089  1.1799
14408TIP3    H264716   5.142   4.733   3.714 -1.5745 -1.2118  1.0493
14409TIP3   OH264717   1.676   2.481   0.831 -0.3161 -0.7552  0.3469
14409TIP3    H164718   1.753   2.527   0.865 -0.1699 -1.1002  0.4894
14409TIP3    H264719   1.660   2.412   0.895 -1.8125  0.3790  1.2712
14410TIP3   OH264720   1.740   3.933  12.328  0.3986  0.1298 -0.1393
14410TIP3    H164721   1.699   3.876  12.393 -0.5496  1.0094  0.0584
14410TIP3    H264722   1.760   3.875  12.254 -1.1378 -0.3474 -0.2054
14411TIP3   OH264723   4.300   5.558  14.521  0.1168 -0.3210 -0.2374
14411TIP3    H164724   4.378   5.580  14.572  1.0943 -1.4370 -1.1965
14411TIP3    H264725   4.275   5.471  14.550  0.3028 -0.7064 -1.1944
14412TIP3   OH264726   3.819   2.293   0.416  0.2604 -0.6408 -0.0691
14412TIP3    H164727   3.753   2.362   0.418 -0.6250 -1.3244 -2.4277
14412TIP3    H264728   3.815   2.254   0.503  1.6975  2.9591  1.8631
14413TIP3   OH264729   1.277   1.845   1.216  0.3437  0.1683 -0.3665
14413TIP3    H164730   1.207   1.859   1.151  0.6272  1.9900 -0.3337
14413TIP3    H264731   1.337   1.784   1.173 -1.2217 -1.4390 -0.3996
14414TIP3   OH264732   0.868   3.983  13.529 -0.6800  0.2814 -0.9779
14414TIP3    H164733   0.909   4.068  13.536 -1.5895  0.7556 -1.1658
14414TIP3    H264734   0.794   3.987  13.590  0.6884 -1.2795  0.9190
14415TIP3   OH264735   1.723   3.098   2.331  0.7254 -0.2794 -0.0101
14415TIP3    H164736   1.651   3.059   2.280 -1.3888  1.3671  1.5172
14415TIP3    H264737   1.793   3.111   2.267 -0.1228 -2.3998 -1.4834
14416TIP3   OH264738   6.223   4.938   3.162 -0.1606  0.0448 -0.4134
14416TIP3    H164739   6.151   4.884   3.193 -1.8331  3.0865  1.3818
14416TIP3    H264740   6.277   4.953   3.239  1.8680 -1.2303 -1.4911
14417TIP3   OH264741   3.446   3.483   3.005 -0.0671  0.1826 -0.1406
14417TIP3    H164742   3.461   3.479   3.100  0.8872  1.1513 -0.2308
14417TIP3    H264743   3.362   3.438   2.992  0.4339 -1.1498  0.9957
14418TIP3   OH264744   1.843   0.822  15.440 -0.3288 -0.4457  0.4306
14418TIP3    H164745   1.824   0.801  15.348 -0.0887  0.9151  0.0600
14418TIP3    H264746   1.769   0.785  15.488 -0.8977 -0.4166 -0.3959
14419TIP3   OH264747   4.865   2.663  15.018 -0.0628  0.3248  0.3257
14419TIP3    H164748   4.854   2.754  14.989  0.7664  0.3245 -0.0039
14419TIP3    H264749   4.920   2.669  15.095  0.9201  0.0257 -0.3352
14420TIP3   OH264750   1.856   2.352  10.296 -0.0554  0.0108 -0.3289
14420TIP3    H164751   1.940   2.345  10.250 -0.4474  0.9181 -1.2350
14420TIP3    H264752   1.879   2.377  10.385  0.6229  1.1701 -0.8020
14421TIP3   OH264753   4.947   0.782   5.603 -0.0009  0.4951 -0.4899
14421TIP3    H164754   4.977   0.845   5.537 -0.4395  1.5359  0.2756
14421TIP3    H264755   5.028   0.746   5.639  0.2441 -0.1631 -1.6446
14422TIP3   OH264756   5.490   6.518  13.297 -0.7832  0.3458 -0.3651
14422TIP3    H164757   5.430   6.582  13.335 -0.2635  0.7062 -0.1310
14422TIP3    H264758   5.455   6.433  13.324 -0.6922  0.5807  0.5280
14423TIP3   OH264759   4.019   5.716  15.392  0.5277 -0.2820  0.3016
14423TIP3    H164760   3.956   5.712  15.464 -0.6630  0.5650 -0.6407
14423TIP3    H264761   3.990   5.790  15.339  2.2468  0.0444 -0.2639
14424TIP3   OH264762   5.006   4.425  12.405  0.2552  0.0348 -0.0394
14424TIP3    H164763   5.030   4.505  12.453  3.7005  0.7787 -2.6120
14424TIP3    H264764   5.060   4.357  12.446  0.6190 -0.0254 -0.6113
14425TIP3   OH264765   5.409   6.019   2.414 -0.1045 -0.3317 -0.3195
14425TIP3    H164766   5.342   6.087   2.406  0.2357  0.1778  1.0011
14425TIP3    H264767   5.467   6.049   2.484  1.2320 -1.0082 -1.0892
14426TIP3   OH264768   5.754   4.459  11.396  0.4480 -0.1880  0.3132
14426TIP3    H164769   5.662   4.474  11.375  0.0381 -0.7491  1.6417
14426TIP3    H264770   5.789   4.545  11.418  1.5255  0.9669 -4.6004
14427TIP3   OH264771   2.349   2.490   3.259 -0.3888  0.1584  0.3661
14427TIP3    H164772   2.379   2.548   3.189  0.8603  0.1628  0.8872
14427TIP3    H264773   2.415   2.421   3.264 -0.9334 -0.3361  0.9372
14428TIP3   OH264774   1.966   4.006  13.260 -0.0065  0.0614 -0.3360
14428TIP3    H164775   1.892   3.964  13.216 -0.8626  0.4743  0.6879
14428TIP3    H264776   1.975   4.090  13.216  2.1076 -1.3086 -2.8264
14429TIP3   OH264777   0.926   4.691   6.442 -0.7437 -0.4296  0.2086
14429TIP3    H164778   1.006   4.666   6.396 -1.5007 -0.1749 -1.2789
14429TIP3    H264779   0.899   4.773   6.402 -1.9664 -0.7139  0.4153
14430TIP3   OH264780   0.095   5.916  11.772  0.0889 -0.2574 -0.3486
14430TIP3    H164781   0.098   5.866  11.854 -0.5507 -0.5609 -0.4974
14430TIP3    H264782   0.120   6.005  11.797  0.7072 -0.5274  0.0237
14431TIP3   OH264783   3.017   3.480  16.591  0.3562 -0.2437 -0.1376
14431TIP3    H164784   3.086   3.545  16.585  0.5619 -0.4819 -0.3751
14431TIP3    H264785   3.052   3.402  16.547 -0.4442 -0.0419 -1.1859
14432TIP3   OH264786   3.428   6.139  11.198  0.1742 -0.3669  0.3292
14432TIP3    H164787   3.481   6.099  11.129  0.3054  1.5507 -0.7498
14432TIP3    H264788   3.346   6.161  11.154  0.5711  1.6474  0.5266
14433TIP3   OH264789   5.353   0.173   5.925  0.2410 -0.1966 -0.2979
14433TIP3    H164790   5.285   0.238   5.904  0.4110 -0.3500 -1.3784
14433TIP3    H264791   5.435   0.223   5.925  0.2290 -0.1728  0.1610
14434TIP3   OH264792   2.465   6.344   0.106 -0.0875  0.3322  0.1692
14434TIP3    H164793   2.380   6.389   0.104 -0.8009 -0.9729 -0.6501
14434TIP3    H264794   2.508   6.370   0.025 -1.5867 -2.3375 -1.6192
14435TIP3   OH264795   5.783   0.590  15.480 -0.1781 -0.1322  0.5045
14435TIP3    H164796   5.814   0.508  15.519 -0.0899  0.8151  2.5264
14435TIP3    H264797   5.862   0.640  15.461 -0.2845  0.8373  2.4156
14436TIP3   OH264798   4.058   6.197  15.902 -0.4322 -0.0728 -0.2810
14436TIP3    H164799   4.023   6.138  15.968 -0.6374  1.5975  1.1783
14436TIP3    H264800   4.046   6.151  15.819 -0.2306 -2.1978  0.8145
14437TIP3   OH264801   1.749   2.989   5.163 -0.6365  0.4339  0.0471
14437TIP3    H164802   1.754   2.948   5.250 -0.5674 -0.5793 -0.4132
14437TIP3    H264803   1.730   2.916   5.104  1.2692  0.7548 -1.0473
14438TIP3   OH264804   6.451   5.640   4.637  0.5659  0.2220  0.0325
14438TIP3    H164805   6.454   5.579   4.710  0.3547  0.1618 -0.0094
14438TIP3    H264806   6.490   5.593   4.563  1.1937  0.4389  0.2185
14439TIP3   OH264807   0.441   0.923   3.837  0.2299 -0.3371 -0.9063
14439TIP3    H164808   0.507   0.861   3.804 -0.4262 -0.4950 -1.9536
14439TIP3    H264809   0.488   1.006   3.845  1.2239 -1.0055  0.8606
14440TIP3   OH264810   1.051   5.807   5.334 -0.0289  0.1191 -0.1591
14440TIP3    H164811   1.040   5.880   5.274  0.2072  0.0856 -0.2444
14440TIP3    H264812   1.016   5.731   5.287  1.2966 -0.1465 -0.7648
14441TIP3   OH264813   5.240   2.386   1.069 -0.3647  0.1172  0.2372
14441TIP3    H164814   5.205   2.357   1.153  3.6877 -2.5704  1.2942
14441TIP3    H264815   5.263   2.478   1.082 -1.6978  0.3121  1.3293
14442TIP3   OH264816   4.389   2.861  14.499  0.1830 -1.2308 -0.6641
14442TIP3    H164817   4.437   2.826  14.574 -0.1307  0.3645  0.3439
14442TIP3    H264818   4.335   2.788  14.469  1.4631 -2.3500 -0.3236
14443TIP3   OH264819   2.471   5.642   1.926  0.8816 -0.5225  0.1270
14443TIP3    H164820   2.476   5.574   1.993  1.7532  0.4223  1.0591
14443TIP3    H264821   2.470   5.595   1.843  0.2954 -1.7008  0.7843
14444TIP3   OH264822   5.538   1.719   2.480 -0.1554  0.5018  0.1033
14444TIP3    H164823   5.620   1.768   2.483 -0.3865  0.9097 -0.1754
14444TIP3    H264824   5.554   1.641   2.534  0.9787 -0.3138 -1.3448
14445TIP3   OH264825   2.347   2.003   1.041 -0.1693 -0.0296 -0.3955
14445TIP3    H164826   2.294   2.029   1.116 -2.6715 -1.9375 -1.3484
14445TIP3    H264827   2.303   2.041   0.966  0.0282 -1.2952 -1.1862
14446TIP3   OH264828   0.229   6.163   4.677  0.4600 -0.2327 -0.3547
14446TIP3    H164829   0.214   6.080   4.721 -0.5829 -1.1715 -2.3340
14446TIP3    H264830   0.323   6.166   4.662  0.5575 -0.8548  0.1013
14447TIP3   OH264831   5.991   0.591   0.237  0.2540 -0.7013 -0.1137
14447TIP3    H164832   5.939   0.563   0.161  2.3530 -2.7410 -0.9606
14447TIP3    H264833   6.071   0.539   0.230  1.1574  0.1540  2.7198
14448TIP3   OH264834   1.494   3.458   2.161  0.2024 -0.6450  0.3168
14448TIP3    H164835   1.409   3.438   2.201 -1.0291  0.4692 -1.5222
14448TIP3    H264836   1.526   3.374   2.129 -1.1929 -0.8559 -0.6515
14449TIP3   OH264837   2.269   0.119   1.320  0.0190  0.6156  0.2058
14449TIP3    H164838   2.224   0.058   1.378 -0.9924  1.0391 -0.1105
14449TIP3    H264839   2.361   0.091   1.321 -0.6279 -1.7305 -0.9670
14450TIP3   OH264840   4.716   3.344  11.958  0.5537  0.1729  0.3667
14450TIP3    H164841   4.621   3.348  11.969  0.2442  0.9572 -2.0482
14450TIP3    H264842   4.730   3.279  11.889  1.8943 -0.7818  1.4647
14451TIP3   OH264843   2.886   3.027   3.701  0.0417 -0.0631  0.1285
14451TIP3    H164844   2.802   3.074   3.700  1.5127  2.7880 -0.9369
14451TIP3    H264845   2.895   2.996   3.791 -2.4642 -1.1643  0.0791
14452TIP3   OH264846   2.393   6.151   5.003  0.1392 -0.0129 -0.8059
14452TIP3    H164847   2.423   6.221   5.060 -0.7706 -0.5986  0.4288
14452TIP3    H264848   2.427   6.174   4.916  3.0250  0.0230  0.2301
14453TIP3   OH264849   1.418   3.498  15.781 -0.0261 -1.1107  0.1170
14453TIP3    H164850   1.420   3.412  15.740 -0.4309 -1.4632  0.8179
14453TIP3    H264851   1.510   3.526  15.782  0.0624 -1.3733 -0.4378
14454TIP3   OH264852   5.773   2.010  10.632 -0.1160 -0.2181  0.4269
14454TIP3    H164853   5.777   2.067  10.708 -1.6412 -0.1766  0.5138
14454TIP3    H264854   5.774   2.069  10.557  1.7767 -0.2744  0.3522
14455TIP3   OH264855   1.589   6.640  16.836 -0.2103  0.0797 -0.6131
14455TIP3    H164856   1.632   6.666  16.755 -0.9663 -0.0594 -1.0756
14455TIP3    H264857   1.599   6.545  16.839 -0.4184  0.0545 -0.6866
14456TIP3   OH264858   1.561   0.046   3.668  0.5304  0.1866  0.0677
14456TIP3    H164859   1.550   0.110   3.598  0.1923  0.8569  0.7164
14456TIP3    H264860   1.492   0.068   3.731 -0.7040 -1.8689 -0.4683
14457TIP3   OH264861   0.454   1.328   4.221 -0.5937  0.6878 -0.2900
14457TIP3    H164862   0.486   1.418   4.217  2.3505 -0.1306  1.7381
14457TIP3    H264863   0.502   1.282   4.151 -0.1167  0.1912  0.3526
14458TIP3   OH264864   2.892   0.081  15.389 -0.6255  0.0415  0.2069
14458TIP3    H164865   2.926  -0.005  15.365  0.6852  0.5062  0.3213
14458TIP3    H264866   2.839   0.108  15.314  3.0444  1.3069 -2.2666
14459TIP3   OH264867   1.611   0.326   4.357  0.1889 -0.2410  0.3661
14459TIP3    H164868   1.556   0.350   4.282  1.3248  1.1026 -0.0845
14459TIP3    H264869   1.553   0.278   4.416 -1.1659  0.1830 -0.5860
14460TIP3   OH264870   4.922   6.615   4.374  0.8417 -0.3715  0.0002
14460TIP3    H164871   4.930   6.688   4.435 -2.8439 -0.6768  1.1208
14460TIP3    H264872   4.845   6.637   4.321  0.2264 -2.9353 -0.3191
14461TIP3   OH264873   5.630   5.078   3.295  0.5074 -0.0442 -0.3640
14461TIP3    H164874   5.639   5.166   3.331  0.7360 -0.2741  0.1537
14461TIP3    H264875   5.572   5.089   3.220 -0.5124  0.3398  0.4614
14462TIP3   OH264876   2.359   0.158  11.805  0.5559 -0.2161  0.0547
14462TIP3    H164877   2.290   0.104  11.766  1.2648 -0.7027 -0.5463
14462TIP3    H264878   2.385   0.218  11.736  1.0735 -0.3596  0.1217
14463TIP3   OH264879   5.917   6.362   1.487  0.0221 -0.0312  0.2921
14463TIP3    H164880   5.867   6.440   1.511 -0.3254 -0.9177  2.7241
14463TIP3    H264881   5.863   6.289   1.517  1.4328 -1.1272  0.2722
14464TIP3   OH264882   3.317   0.711  12.891 -0.3978  0.0906  0.5696
14464TIP3    H164883   3.352   0.798  12.869  0.4412 -0.3542  0.0863
14464TIP3    H264884   3.287   0.720  12.981 -1.0331  1.0922  0.2821
14465TIP3   OH264885   6.327   6.359  14.253  0.1274 -0.4335 -0.1772
14465TIP3    H164886   6.310   6.301  14.178 -0.5588 -0.3067 -0.1242
14465TIP3    H264887   6.260   6.335  14.317  2.3497 -2.4847  1.5643
14466TIP3   OH264888   2.536   6.094   2.239 -0.3045 -0.2154 -0.0495
14466TIP3    H164889   2.514   6.060   2.152  1.2389 -1.7892  0.1284
14466TIP3    H264890   2.453   6.129   2.272 -1.2053 -0.7180 -1.6496
14467TIP3   OH264891   5.814   2.900  10.963 -0.0883 -0.3214  0.5534
14467TIP3    H164892   5.821   2.978  11.018  0.4328 -1.3376  1.9935
14467TIP3    H264893   5.722   2.896  10.938  0.2760  1.9771 -1.4817
14468TIP3   OH264894   2.865   0.609  10.954 -0.4835  0.3812 -0.3427
14468TIP3    H164895   2.870   0.705  10.954 -2.7592  0.5788  0.8131
14468TIP3    H264896   2.808   0.588  10.880 -2.5213  0.2245  1.1653
14469TIP3   OH264897   0.062   4.242  13.280  0.1855  0.0318  0.0035
14469TIP3    H164898   0.056   4.323  13.332 -2.7476  0.1727 -0.3723
14469TIP3    H264899   0.031   4.267  13.193  2.9206 -0.7080 -1.3030
14470TIP3   OH264900   3.928   0.053  10.615 -0.0638  0.0585 -0.1858
14470TIP3    H164901   3.878   0.134  10.622  0.3473  0.2970  0.0472
14470TIP3    H264902   3.990   0.070  10.543  1.4233  0.7293  1.1866
14471TIP3   OH264903   3.575   6.009  11.013 -0.6880 -1.1269 -0.0029
14471TIP3    H164904   3.636   5.946  11.051  0.2573 -0.5657 -0.5390
14471TIP3    H264905   3.566   5.981  10.922  2.1399  1.1579 -1.1361
14472TIP3   OH264906   3.307   5.271   5.844 -0.0911  0.0837  0.2459
14472TIP3    H164907   3.279   5.193   5.892 -0.1178  0.4350  0.8071
14472TIP3    H264908   3.285   5.344   5.902 -1.1179  0.5966 -0.7692
14473TIP3   OH264909   0.891   2.452   1.475  0.0452 -0.3328 -0.7213
14473TIP3    H164910   0.909   2.543   1.501 -0.6170 -0.3580 -0.1445
14473TIP3    H264911   0.963   2.402   1.514 -1.1456 -0.4247  1.4944
14474TIP3   OH264912   0.824   6.165   1.199 -0.2417  0.1744  0.6156
14474TIP3    H164913   0.894   6.208   1.149 -0.2691  0.6823  0.9991
14474TIP3    H264914   0.743   6.193   1.157 -0.2095 -1.6324 -0.7976
14475TIP3   OH264915   0.385   1.429  13.213 -0.4826 -0.1818  0.2995
14475TIP3    H164916   0.466   1.439  13.164 -1.4821 -0.4545 -1.4978
14475TIP3    H264917   0.373   1.335  13.223 -1.4250 -0.2355 -1.0193
14476TIP3   OH264918   3.914   1.443   2.934 -0.2925 -0.3868 -0.0095
14476TIP3    H164919   3.933   1.399   2.851 -1.3568  1.1057 -1.1078
14476TIP3    H264920   3.969   1.522   2.932 -0.7641 -0.0444  0.4258
14477TIP3   OH264921   0.471   3.476  15.522  0.1009 -0.6968  0.1096
14477TIP3    H164922   0.384   3.465  15.560 -1.1902  0.9766 -2.1160
14477TIP3    H264923   0.466   3.560  15.475  1.7711 -2.1289 -2.8996
14478TIP3   OH264924   5.621   2.921  11.274  0.5692  0.3553  0.0838
14478TIP3    H164925   5.561   2.968  11.217 -0.0272 -1.0762 -0.5368
14478TIP3    H264926   5.603   2.828  11.255 -0.0429 -0.2015  2.9869
14479TIP3   OH264927   6.231   1.249  12.696 -0.7035 -0.6778 -0.3543
14479TIP3    H164928   6.194   1.218  12.779  0.2933 -2.2518 -0.4559
14479TIP3    H264929   6.156   1.283  12.647 -1.5395 -1.1115  0.5943
14480TIP3   OH264930   2.282   2.589   0.359  0.3744  0.6999  0.2272
14480TIP3    H164931   2.286   2.682   0.378  1.1226  0.8867 -0.7511
14480TIP3    H264932   2.231   2.552   0.431 -0.5226  1.9485  0.2713
14481TIP3   OH264933   0.081   2.931  17.174 -0.6471 -0.2789  0.1137
14481TIP3    H164934  -0.011   2.926  17.199 -1.0250 -1.2000 -1.3475
14481TIP3    H264935   0.118   2.847  17.202  0.1043  0.5655  1.8424
14482TIP3   OH264936   3.810   4.556   5.419  0.0749  0.2188  0.1884
14482TIP3    H164937   3.883   4.547   5.358  0.1003  0.2792  0.2097
14482TIP3    H264938   3.850   4.549   5.505 -0.0570 -0.5666  0.1886
14483TIP3   OH264939   3.056   6.232   6.672 -0.3883 -0.1648 -0.0513
14483TIP3    H164940   3.077   6.315   6.628 -0.7903  0.2239  0.4759
14483TIP3    H264941   2.968   6.245   6.706 -0.0282 -0.4093  0.9999
14484TIP3   OH264942   1.582   2.678   1.282 -0.1737  0.5520  0.6799
14484TIP3    H164943   1.661   2.629   1.303 -1.2209 -3.1100 -2.5565
14484TIP3    H264944   1.515   2.642   1.341 -0.7168 -1.5350 -1.0378
14485TIP3   OH264945   4.446   4.970  17.001  0.7870  0.8003 -0.6218
14485TIP3    H164946   4.462   5.064  16.990  1.0862  0.7273 -0.8080
14485TIP3    H264947   4.507   4.944  17.071 -1.3927  1.3505  1.6113
14486TIP3   OH264948   0.694   2.175  16.929  0.0187  0.1580 -0.3077
14486TIP3    H164949   0.644   2.257  16.934 -0.5163 -0.1825 -0.0299
14486TIP3    H264950   0.780   2.198  16.964 -0.3232  0.4493  0.3640
14487TIP3   OH264951   3.167   6.647   2.737  0.1473  0.6110 -0.5531
14487TIP3    H164952   3.134   6.613   2.654  0.3627 -1.1015  0.0238
14487TIP3    H264953   3.218   6.725   2.713 -0.1031  0.3565 -1.9700
14488TIP3   OH264954   5.339   0.218   3.502  0.1457  0.3089  0.2827
14488TIP3    H164955   5.336   0.122   3.501  0.5745  0.2374 -3.1532
14488TIP3    H264956   5.248   0.245   3.514 -0.3539 -0.5911 -1.2895
14489TIP3   OH264957   1.119   5.548  11.946 -0.0540  0.7167  0.0837
14489TIP3    H164958   1.125   5.551  12.042 -1.5338  0.2367  0.2256
14489TIP3    H264959   1.046   5.488  11.929  1.9130 -1.4084 -1.4244
14490TIP3   OH264960   3.774   6.512  12.656 -0.0896  0.3976 -0.6866
14490TIP3    H164961   3.693   6.500  12.705  0.0424  0.1057 -0.5387
14490TIP3    H264962   3.771   6.603  12.627 -1.4118 -0.1506 -2.4029
14491TIP3   OH264963   3.492   2.272   3.432 -0.4784  0.2924  0.8602
14491TIP3    H164964   3.491   2.198   3.493  0.8398  0.0824  0.6383
14491TIP3    H264965   3.520   2.235   3.349  1.4552  1.2385  1.0461
14492TIP3   OH264966   1.240   3.839  13.039  0.6916  0.2268 -0.6272
14492TIP3    H164967   1.330   3.808  13.044  0.8754  0.7353 -0.6848
14492TIP3    H264968   1.194   3.790  13.107  1.2499  0.7409  0.1387
14493TIP3   OH264969   4.473   3.999  11.825 -0.1076  0.3798 -0.7577
14493TIP3    H164970   4.481   4.078  11.772  0.7520  0.7344 -0.1070
14493TIP3    H264971   4.379   3.994  11.845 -0.2781  0.8281 -1.3948
14494TIP3   OH264972   4.493   5.751  15.859  0.6641  0.1826 -0.1467
14494TIP3    H164973   4.536   5.686  15.803  2.8459  0.1832  1.4105
14494TIP3    H264974   4.558   5.821  15.868 -1.0231  1.8555 -0.4705
14495TIP3   OH264975   3.528   4.825  14.086  0.2865  0.0134 -0.7054
14495TIP3    H164976   3.579   4.895  14.126  0.8695 -0.7146 -0.1497
14495TIP3    H264977   3.589   4.751  14.079 -0.6377 -0.8469 -0.1064
14496TIP3   OH264978   1.001   1.369  12.293  0.4243 -0.1474  0.1304
14496TIP3    H164979   1.024   1.277  12.284 -1.0610 -0.9191  2.9161
14496TIP3    H264980   0.959   1.391  12.210  2.1945 -1.4703 -1.1918
14497TIP3   OH264981   5.810   1.519  15.765 -0.1899  0.2060 -0.1326
14497TIP3    H164982   5.805   1.565  15.681 -0.7079  0.5814  0.1020
14497TIP3    H264983   5.723   1.481  15.776  0.2848 -1.0229 -0.4265
14498TIP3   OH264984   6.604   5.846  14.142  0.3118 -0.1328  0.0729
14498TIP3    H164985   6.584   5.911  14.074  5.8309  0.0935 -1.8206
14498TIP3    H264986   6.569   5.885  14.222 -2.1490  2.0017 -1.8218
14499TIP3   OH264987   0.187   6.339   0.950  0.0981  0.3427  0.2009
14499TIP3    H164988   0.132   6.287   0.891 -0.0634  0.3611  0.3362
14499TIP3    H264989   0.242   6.391   0.891 -0.4892  0.8179  0.0611
14500TIP3   OH264990   5.132   6.568  12.522  0.2533 -0.1828  0.5226
14500TIP3    H164991   5.183   6.637  12.480 -0.8298 -1.0028 -2.3513
14500TIP3    H264992   5.147   6.490  12.468 -1.6837 -1.1642  1.2943
14501TIP3   OH264993   0.733   3.471  17.017  0.2584  0.9149 -0.5206
14501TIP3    H164994   0.733   3.393  16.962 -0.3963  0.4417  0.1389
14501TIP3    H264995   0.751   3.543  16.957  2.4921  0.1126 -0.9156
14502TIP3   OH264996   4.773   0.892  12.517  0.3674  0.3048  0.0217
14502TIP3    H164997   4.841   0.827  12.503 -1.4606 -1.6460 -0.2925
14502TIP3    H264998   4.763   0.896  12.613  1.0903  0.8498  0.0886
14503TIP3   OH264999   1.721   5.371   2.772 -0.0944 -0.1261 -0.3027
14503TIP3    H165000   1.669   5.391   2.850 -0.0498 -0.2408 -0.2431
14503TIP3    H265001   1.677   5.297   2.732 -0.9707  0.8522 -1.2016
14504TIP3   OH265002   4.340   5.748  12.193 -0.0471  0.4764  0.2673
14504TIP3    H165003   4.418   5.747  12.138  0.2840  2.9440  0.5514
14504TIP3    H265004   4.346   5.670  12.247  1.7004  0.1044 -0.4216
14505TIP3   OH265005   3.349   2.653  16.111 -0.1229 -0.2774 -0.3786
14505TIP3    H165006   3.427   2.598  16.112  0.3156  0.3148  1.0456
14505TIP3    H265007   3.279   2.595  16.081  0.9532 -0.6551 -2.2738
14506TIP3   OH265008   0.243   0.529   4.961  0.8218  0.1614 -0.0788
14506TIP3    H165009   0.175   0.477   4.918  1.5973  1.0560 -2.5576
14506TIP3    H265010   0.194   0.588   5.020 -0.3971 -0.2826 -0.6081
14507TIP3   OH265011   3.352   6.811  16.680  0.2913  0.0178 -0.1891
14507TIP3    H165012   3.345   6.724  16.643  0.0709  0.1237 -0.3936
14507TIP3    H265013   3.262   6.842  16.688  0.3261 -0.0189  0.4757
14508TIP3   OH265014   5.518   1.882  10.828 -0.3011 -0.5401 -0.1833
14508TIP3    H165015   5.426   1.869  10.850 -0.7282  1.1082 -0.8738
14508TIP3    H265016   5.521   1.879  10.733  0.2071  0.2684 -0.2049
14509TIP3   OH265017   1.916   0.616   4.734 -0.5320 -0.2142 -0.5358
14509TIP3    H165018   1.970   0.658   4.801 -2.9024 -0.3385  1.6008
14509TIP3    H265019   1.966   0.538   4.708  0.8580  0.3299  0.3940
14510TIP3   OH265020   4.211   0.797  16.381 -0.0593 -0.0503 -0.1788
14510TIP3    H165021   4.277   0.786  16.449 -0.1741 -0.2281 -0.0944
14510TIP3    H265022   4.182   0.708  16.362  0.8417 -0.1159 -1.3301
14511TIP3   OH265023   5.994   2.214   5.357  0.3881 -0.4457  0.9451
14511TIP3    H165024   6.067   2.231   5.298  0.0858 -3.0588 -0.3287
14511TIP3    H265025   5.934   2.287   5.344  1.1213 -0.1113 -0.7352
14512TIP3   OH265026   2.622   1.229  11.994 -0.4530 -0.1837 -0.5125
14512TIP3    H165027   2.568   1.299  12.030  0.1842  0.7237 -1.2659
14512TIP3    H265028   2.612   1.236  11.899 -1.3843 -1.9489 -0.6003
14513TIP3   OH265029   3.217   5.461   3.596  0.2483  0.1349 -0.3343
14513TIP3    H165030   3.200   5.441   3.688 -0.6416 -0.4715 -0.6251
14513TIP3    H265031   3.168   5.542   3.580 -0.4214 -0.3045 -0.5341
14514TIP3   OH265032   6.530   6.347   2.640  0.2373  0.2591 -0.0776
14514TIP3    H165033   6.587   6.323   2.713  1.2714 -0.1016 -0.9749
14514TIP3    H265034   6.445   6.309   2.663  0.8778 -0.9816  0.3321
14515TIP3   OH265035   2.218   4.157   5.545 -0.3017  0.1209 -0.0865
14515TIP3    H165036   2.149   4.115   5.493  0.3058 -0.8304 -0.1595
14515TIP3    H265037   2.179   4.239   5.575 -1.4697 -0.3968 -0.1163
14516TIP3   OH265038   0.700   1.642   1.445  0.0603  0.0130  0.4208
14516TIP3    H165039   0.658   1.607   1.524 -0.5186  1.3030  0.7173
14516TIP3    H265040   0.669   1.584   1.374 -1.2043  0.1573  0.8283
14517TIP3   OH265041   4.636   5.368  14.125 -0.1822  0.1229  0.0857
14517TIP3    H165042   4.587   5.443  14.159  0.4193  0.4143  0.3266
14517TIP3    H265043   4.728   5.391  14.140  0.0235 -0.4733 -0.2377
14518TIP3   OH265044   3.996   0.203  12.220 -0.8392  0.5300  0.4493
14518TIP3    H165045   4.034   0.288  12.239  0.3373  0.0706  0.2379
14518TIP3    H265046   3.962   0.210  12.131 -0.8575  0.8104  0.4793
14519TIP3   OH265047   3.848   3.829   2.761  0.7190 -0.4768  0.0632
14519TIP3    H165048   3.755   3.809   2.753  0.5544  0.8114 -1.8894
14519TIP3    H265049   3.866   3.824   2.855 -1.1649 -1.3362  0.4186
14520TIP3   OH265050   6.302   4.008  12.700  0.6334  0.1340  0.2175
14520TIP3    H165051   6.378   3.988  12.756  0.4983  1.4641  0.9052
14520TIP3    H265052   6.229   4.016  12.761  0.5031  1.7160 -0.1221
14521TIP3   OH265053   2.041   6.557   0.017  0.1247 -0.0917 -0.0883
14521TIP3    H165054   1.972   6.501   0.053 -0.5563  1.1124  0.5486
14521TIP3    H265055   2.122   6.513   0.042 -0.3630 -0.2028  1.4707
14522TIP3   OH265056   2.244   4.345   1.500  0.9873 -0.0495  0.4855
14522TIP3    H165057   2.237   4.367   1.593  0.1129  1.3093  0.1276
14522TIP3    H265058   2.271   4.253   1.499 -1.1276 -0.7568  2.0802
14523TIP3   OH265059   4.725   1.800  12.716 -0.3037  0.8092  0.5641
14523TIP3    H165060   4.743   1.878  12.664  2.7799 -0.8152 -1.1086
14523TIP3    H265061   4.694   1.735  12.652  2.4751 -0.8896  0.7850
14524TIP3   OH265062   1.628   4.635  16.804  0.3971  0.0047  0.1853
14524TIP3    H165063   1.685   4.680  16.741  0.5161  0.0085  0.2951
14524TIP3    H265064   1.596   4.705  16.861 -0.0848  0.0683 -0.1553
14525TIP3   OH265065   3.013   0.690  10.456  0.4840  0.2190 -0.3891
14525TIP3    H165066   3.055   0.620  10.505  0.7827  0.2000 -0.6687
14525TIP3    H265067   3.057   0.770  10.485 -0.4383  0.4056  0.5723
14526TIP3   OH265068   4.729   3.595   3.276 -0.4712 -0.2767  0.2780
14526TIP3    H165069   4.796   3.663   3.277 -0.0729 -0.6727  1.3020
14526TIP3    H265070   4.681   3.607   3.357 -0.7547 -0.8705  0.2038
14527TIP3   OH265071   6.634   0.726  10.844  0.2307 -0.0119 -0.7740
14527TIP3    H165072   6.728   0.741  10.842 -0.0064  1.5512 -1.3634
14527TIP3    H265073   6.616   0.701  10.935  1.1404  0.2335 -0.5149
14528TIP3   OH265074   6.085   1.261  13.067 -0.7517 -0.5629  0.0345
14528TIP3    H165075   6.007   1.206  13.077 -0.8912 -0.0485  2.1191
14528TIP3    H265076   6.150   1.203  13.027 -2.0367 -1.1120 -1.3750
14529TIP3   OH265077   1.328   5.678   1.636 -0.8266 -0.7629  0.4498
14529TIP3    H165078   1.319   5.606   1.698  0.1712 -1.6100 -0.3571
14529TIP3    H265079   1.238   5.705   1.618 -1.3333 -2.7816 -0.3223
14530TIP3   OH265080   3.282   1.127  13.392  0.3620 -0.1615 -0.0634
14530TIP3    H165081   3.202   1.111  13.442 -0.1732  0.2219 -0.7660
14530TIP3    H265082   3.353   1.123  13.456  0.0790 -3.1205  0.2154
14531TIP3   OH265083   0.195   3.135   2.196 -0.2690  0.2770  0.4956
14531TIP3    H165084   0.126   3.107   2.256 -0.8905 -2.0941 -1.1906
14531TIP3    H265085   0.267   3.163   2.253 -1.6263  0.2398  2.3031
14532TIP3   OH265086   0.068   0.157   5.849 -0.2688 -1.0560  0.3611
14532TIP3    H165087   0.124   0.111   5.787  0.4012 -1.2771  1.1081
14532TIP3    H265088   0.012   0.212   5.795  1.6765  0.3076 -0.3809
14533TIP3   OH265089   6.090   0.607  13.371 -0.3436  0.0639  0.8407
14533TIP3    H165090   6.008   0.656  13.370 -0.0032  0.6521  1.1403
14533TIP3    H265091   6.065   0.517  13.353 -0.7684  0.6438 -1.8588
14534TIP3   OH265092   3.957   1.987   4.636 -0.4756  0.8023  0.2561
14534TIP3    H165093   4.028   2.004   4.575 -1.1874 -0.1303 -0.8960
14534TIP3    H265094   3.933   2.073   4.670 -1.2153  1.6347 -2.1455
14535TIP3   OH265095   4.866   2.047   4.306 -0.1848  0.2279  0.9012
14535TIP3    H165096   4.934   1.980   4.299 -0.3415  0.1957 -0.6725
14535TIP3    H265097   4.894   2.116   4.245 -0.8545  0.8506  1.2806
14536TIP3   OH265098   0.584   1.749   2.313 -0.0355  0.3400  0.6066
14536TIP3    H165099   0.541   1.741   2.227  0.2917 -0.9428  0.5447
14536TIP3    H265100   0.647   1.678   2.314  1.3168  1.5102  1.1580
14537TIP3   OH265101   2.514   1.324   0.632  0.2671  0.1787 -0.2501
14537TIP3    H165102   2.540   1.415   0.614  1.3225 -0.0683 -0.0151
14537TIP3    H265103   2.483   1.326   0.722  1.1899  0.1244  0.0737
14538TIP3   OH265104   6.684   1.461  16.853 -0.3432 -0.5933 -0.2994
14538TIP3    H165105   6.750   1.409  16.898  0.2178  1.2108  1.0709
14538TIP3    H265106   6.610   1.464  16.914 -0.3153  0.2844 -0.2953
14539TIP3   OH265107   2.245   1.362  11.586 -0.0077 -0.0158 -0.3844
14539TIP3    H165108   2.328   1.349  11.540  0.8860  2.5551  0.3377
14539TIP3    H265109   2.178   1.354  11.517  1.2516  3.1830 -2.1858
14540TIP3   OH265110   3.069   5.071   3.098  0.3763 -0.5263 -0.1222
14540TIP3    H165111   2.998   5.124   3.063  1.1627 -0.2244 -1.3087
14540TIP3    H265112   3.075   4.997   3.038  0.8477 -0.7274  0.1689
14541TIP3   OH265113   3.933   0.297   4.839 -0.2330  0.1682  0.2707
14541TIP3    H165114   3.913   0.380   4.796 -1.3462  1.3773  2.8622
14541TIP3    H265115   3.849   0.250   4.839  0.0622 -0.3625  0.0151
14542TIP3   OH265116   3.466   2.717  14.960 -0.1437 -0.0123 -0.0207
14542TIP3    H165117   3.509   2.680  15.037  1.6571 -0.7200 -1.2883
14542TIP3    H265118   3.430   2.800  14.990  0.7144 -0.1683  1.5297
14543TIP3   OH265119   6.701   2.821  13.467  0.2389 -0.3928  0.3084
14543TIP3    H165120   6.661   2.772  13.396 -0.0168  0.1011  0.1022
14543TIP3    H265121   6.795   2.803  13.459  0.1143 -1.1533  0.4812
14544TIP3   OH265122   1.816   5.051  13.249  0.2332 -0.2215  0.4030
14544TIP3    H165123   1.803   5.020  13.160  1.2725 -0.9644  0.4920
14544TIP3    H265124   1.906   5.025  13.271  0.5745  1.3965  1.0792
14545TIP3   OH265125   4.413   3.911  13.946 -0.1565 -0.2400 -0.3503
14545TIP3    H165126   4.327   3.940  13.915 -0.9034 -1.9144  0.0378
14545TIP3    H265127   4.470   3.920  13.870 -0.6639  0.8791 -0.6203
14546TIP3   OH265128   6.474   6.083   3.737  0.0004 -0.2298 -0.4677
14546TIP3    H165129   6.508   5.993   3.742 -0.9607 -0.5287  1.2682
14546TIP3    H265130   6.379   6.072   3.737 -0.1430  0.8297  1.2161
14547TIP3   OH265131   4.869   4.880  13.622  0.3422  0.5124 -0.5543
14547TIP3    H165132   4.845   4.926  13.702 -0.0935 -1.5487  0.5875
14547TIP3    H265133   4.827   4.929  13.552  0.9263  2.5066  0.4241
14548TIP3   OH265134   0.080   2.316  12.108 -0.2610 -0.0972  0.2499
14548TIP3    H165135   0.132   2.395  12.089  0.3396 -0.4903  0.2393
14548TIP3    H265136   0.137   2.262  12.162 -1.1598  0.0399  1.3729
14549TIP3   OH265137   4.310   3.260   2.294 -0.1609  0.2832 -0.2560
14549TIP3    H165138   4.256   3.207   2.352 -0.5389 -0.4951 -1.3054
14549TIP3    H265139   4.349   3.326   2.352 -3.0401  1.5742  0.4031
14550TIP3   OH265140   2.949   1.465  13.532 -0.1390  0.1836  0.5629
14550TIP3    H165141   3.004   1.395  13.566 -1.3664 -1.1792 -0.1407
14550TIP3    H265142   2.888   1.484  13.604  0.2685  0.6432  0.7962
14551TIP3   OH265143   2.578   0.837  16.071  0.6329 -0.4436 -0.1282
14551TIP3    H165144   2.506   0.847  16.008  2.1763 -0.1628 -1.9365
14551TIP3    H265145   2.588   0.924  16.110  0.2353 -0.3944 -0.1356
14552TIP3   OH265146   0.793   0.584   2.225  0.6111  0.2646  0.0970
14552TIP3    H165147   0.812   0.664   2.177 -2.6757  1.5942  0.6900
14552TIP3    H265148   0.878   0.554   2.257  2.0771  3.0966 -0.7621
14553TIP3   OH265149   6.571   5.283   0.204 -0.1747  0.1142  0.5311
14553TIP3    H165150   6.544   5.312   0.116 -1.4848 -0.1694  0.8082
14553TIP3    H265151   6.665   5.267   0.196  0.0845  1.8423 -0.3291
14554TIP3   OH265152   6.299   1.163  11.338 -0.5505  0.3444 -0.4469
14554TIP3    H165153   6.336   1.123  11.259 -0.6288 -0.0676 -0.2769
14554TIP3    H265154   6.375   1.187  11.390 -0.5052 -0.3312 -0.1837
14555TIP3   OH265155   2.896   0.802   5.450  0.2766 -0.1936 -0.0192
14555TIP3    H165156   2.966   0.847   5.496 -1.9089  1.5674  1.8532
14555TIP3    H265157   2.881   0.722   5.500  0.3919 -0.1424  0.0967
14556TIP3   OH265158   3.132   0.124  12.550  0.2398 -0.1553 -0.1194
14556TIP3    H165159   3.118   0.156  12.461  2.7607  1.1848 -0.1432
14556TIP3    H265160   3.078   0.046  12.556 -2.0041  1.1267 -1.9324
14557TIP3   OH265161   2.730   2.278  17.229 -0.2080  0.4956 -0.0182
14557TIP3    H165162   2.679   2.302  17.306  0.7979  0.2966  0.7187
14557TIP3    H265163   2.779   2.200  17.255  0.3935  0.6128 -0.7481
14558TIP3   OH265164   5.162   3.581  14.215  0.7684  0.0257 -0.4742
14558TIP3    H165165   5.158   3.656  14.274 -0.4358  0.1143 -0.6425
14558TIP3    H265166   5.256   3.567  14.200  1.1661 -0.2992  1.8236
14559TIP3   OH265167   5.349   3.199  11.195 -0.4068  0.4471 -0.4848
14559TIP3    H165168   5.301   3.236  11.121  1.8665  2.3999 -1.1038
14559TIP3    H265169   5.437   3.181  11.160  0.4830  0.6448  1.5322
14560TIP3   OH265170   3.790   5.034   2.967  0.3470 -0.1145  0.1000
14560TIP3    H165171   3.706   5.079   2.961  0.6746  0.4948 -0.0388
14560TIP3    H265172   3.835   5.077   3.039  0.7622 -0.0563 -0.1910
14561TIP3   OH265173   2.215   0.394   3.881 -0.5517 -0.6470 -0.1093
14561TIP3    H165174   2.147   0.461   3.881 -0.3425 -0.4052 -1.6278
14561TIP3    H265175   2.182   0.325   3.824 -0.9722 -2.1144  1.8013
14562TIP3   OH265176   2.009   1.256   1.501 -0.0733 -0.4331 -0.6308
14562TIP3    H165177   2.096   1.273   1.466 -0.4757  0.0109 -1.4415
14562TIP3    H265178   1.949   1.289   1.434 -0.8929  1.8016  1.0750
14563TIP3   OH265179   5.435   4.761   0.337 -0.1055 -0.4747  0.5588
14563TIP3    H165180   5.409   4.669   0.335  0.5662 -0.6738  0.7015
14563TIP3    H265181   5.362   4.805   0.380 -0.7798 -0.8173 -0.2114
14564TIP3   OH265182   6.225   1.045  12.949 -0.8667  0.5461  1.0302
14564TIP3    H165183   6.225   0.951  12.966  0.1005  0.4714  0.6976
14564TIP3    H265184   6.314   1.074  12.970 -1.2880  1.4826  1.5993
14565TIP3   OH265185   0.014   2.673  16.364 -0.0439 -0.2564  0.2387
14565TIP3    H165186   0.095   2.621  16.356  0.9471  1.4104 -1.3150
14565TIP3    H265187   0.044   2.763  16.370 -1.8114  0.3980 -0.2157
14566TIP3   OH265188   2.426   4.139  12.092 -0.3373 -0.8341  0.7379
14566TIP3    H165189   2.459   4.064  12.043  1.0280  1.5230 -2.3044
14566TIP3    H265190   2.501   4.169  12.144 -0.6828 -1.1950  1.4477
14567TIP3   OH265191   5.046   2.337  14.215  0.9599  0.0966 -0.1215
14567TIP3    H165192   5.093   2.273  14.161  0.2251  0.4792 -1.2620
14567TIP3    H265193   5.102   2.349  14.292  0.9670 -2.1372  0.2859
14568TIP3   OH265194   2.508   1.485   1.121 -0.8868 -0.0061 -0.5447
14568TIP3    H165195   2.481   1.397   1.094  0.3745 -0.2365 -1.1482
14568TIP3    H265196   2.448   1.544   1.077 -1.7215 -0.5526 -0.1705
14569TIP3   OH265197   2.495   0.695  15.142 -0.8984  0.3331  0.4091
14569TIP3    H165198   2.419   0.653  15.103 -0.4740 -0.9777  0.9428
14569TIP3    H265199   2.567   0.633  15.129 -0.1678  1.0571  0.8772
14570TIP3   OH265200   3.064   3.835   2.101  0.1796  0.6565 -0.0799
14570TIP3    H165201   3.029   3.811   2.015  1.1421  1.6749 -0.7841
14570TIP3    H265202   3.139   3.777   2.113  0.2589  0.7584 -0.0852
14571TIP3   OH265203   0.476   3.606   1.953  0.3428  0.0865  0.2438
14571TIP3    H165204   0.383   3.630   1.948  0.0293 -1.1469  0.0399
14571TIP3    H265205   0.519   3.688   1.979 -0.6216  1.0252 -0.9521
14572TIP3   OH265206   3.686   5.864   8.009 -0.6175  0.7624  0.0567
14572TIP3    H165207   3.688   5.958   8.028  1.1359  0.6209  0.8196
14572TIP3    H265208   3.596   5.846   7.984 -1.3749  2.3597  1.4470
14573TIP3   OH265209   6.365   1.412  13.776  0.3547  0.2254 -0.0143
14573TIP3    H165210   6.461   1.404  13.774  0.3256 -0.2793  0.4112
14573TIP3    H265211   6.342   1.442  13.688  0.9178  0.5449 -0.0614
14574TIP3   OH265212   2.664   4.288   4.399 -0.3290 -0.4361  0.4199
14574TIP3    H165213   2.711   4.284   4.483 -0.2604 -0.2307  0.3908
14574TIP3    H265214   2.673   4.199   4.363  0.6764 -0.2151  0.0732
14575TIP3   OH265215   2.409   1.179   3.237 -0.3161  0.1128  0.1978
14575TIP3    H165216   2.479   1.200   3.299 -0.1935  0.2253  0.0233
14575TIP3    H265217   2.329   1.206   3.282 -0.3554 -0.9774  0.8308
14576TIP3   OH265218   3.343   2.369   1.721  0.0612  0.2062  0.3281
14576TIP3    H165219   3.267   2.350   1.667 -0.8875  2.1854  0.8595
14576TIP3    H265220   3.367   2.458   1.698  1.4293  0.0627  1.0959
14577TIP3   OH265221   2.059   2.088  13.004  0.0203 -0.4659 -0.4170
14577TIP3    H165222   1.994   2.156  13.025  0.3174 -0.2368 -0.2272
14577TIP3    H265223   2.143   2.133  13.013  0.2214 -0.8895 -0.1943
14578TIP3   OH265224   5.167   3.257  10.960  0.4621  0.0536  0.0867
14578TIP3    H165225   5.241   3.315  10.977 -0.3846  0.8805  1.1350
14578TIP3    H265226   5.090   3.314  10.965 -0.5907 -1.3634  2.9539
14579TIP3   OH265227   3.248   6.481  12.909  0.1461 -0.4093 -0.4140
14579TIP3    H165228   3.245   6.391  12.877 -1.3473 -0.4881 -0.1167
14579TIP3    H265229   3.211   6.533  12.838  0.8419 -0.0479 -0.5132
14580TIP3   OH265230   6.018   0.954  11.357 -0.0171 -0.4433  0.1500
14580TIP3    H165231   5.925   0.965  11.377  0.2469  1.2026  0.5916
14580TIP3    H265232   6.020   0.934  11.264 -0.7274  1.6679 -0.3664
14581TIP3   OH265233   1.733   5.850  16.588  0.6817  0.3495  0.0594
14581TIP3    H165234   1.679   5.878  16.514 -0.6052 -0.4512  0.6540
14581TIP3    H265235   1.794   5.786  16.551 -0.8198 -1.0422 -0.1330
14582TIP3   OH265236   4.020   1.287   1.518  0.0872 -0.0987 -0.3558
14582TIP3    H165237   4.024   1.378   1.490  0.0268 -0.0154 -0.0980
14582TIP3    H265238   4.055   1.287   1.607 -0.9879 -0.1350  0.0854
14583TIP3   OH265239   3.295   5.839  11.155  0.3416 -0.4737  0.1096
14583TIP3    H165240   3.337   5.923  11.174 -0.0900 -0.3015  0.3077
14583TIP3    H265241   3.288   5.837  11.059 -0.7264  0.2469  0.1653
14584TIP3   OH265242   1.771   2.680  13.807 -0.4624  0.4702  0.2638
14584TIP3    H165243   1.807   2.747  13.865  0.8849 -0.9199  1.1101
14584TIP3    H265244   1.841   2.663  13.744 -0.9098  0.0501 -0.1271
14585TIP3   OH265245   5.858   4.889  15.102 -0.5128 -0.3831 -0.0645
14585TIP3    H165246   5.869   4.985  15.102 -0.2971 -0.4065  0.0778
14585TIP3    H265247   5.764   4.876  15.112 -0.4526 -0.1914  0.8843
14586TIP3   OH265248   1.050   4.475  14.007 -0.2953  0.2076 -0.5223
14586TIP3    H165249   0.970   4.431  14.036 -1.6110  1.8059 -1.5624
14586TIP3    H265250   1.121   4.427  14.050 -1.7712 -1.5233  0.0947
14587TIP3   OH265251   3.820   5.707  13.575  0.6310  0.0372 -0.1312
14587TIP3    H165252   3.861   5.766  13.638  0.4742 -1.3434  1.3286
14587TIP3    H265253   3.883   5.636  13.564 -0.0989 -0.6225 -0.1633
14588TIP3   OH265254   5.074   0.437  12.626  0.0683 -0.1225  0.2159
14588TIP3    H165255   5.077   0.424  12.531 -0.6300  0.3503  0.1167
14588TIP3    H265256   5.126   0.516  12.641  1.1427 -0.8465  0.3693
14589TIP3   OH265257   1.775   1.961  14.061 -0.3355 -0.1986  0.1926
14589TIP3    H165258   1.752   2.048  14.094  0.3807  0.2574 -0.4718
14589TIP3    H265259   1.694   1.927  14.023 -1.0914 -0.5960  2.0579
14590TIP3   OH265260   3.567   3.086  16.043 -0.1575 -0.6255  0.0491
14590TIP3    H165261   3.478   3.108  16.070 -0.0232  0.6440 -0.4786
14590TIP3    H265262   3.556   3.008  15.988 -1.0863  0.1002 -0.8463
14591TIP3   OH265263   5.686   4.857   5.691 -0.2330  0.0076 -0.5485
14591TIP3    H165264   5.652   4.891   5.774 -0.2981  1.1410 -1.0157
14591TIP3    H265265   5.774   4.827   5.711 -0.7112 -0.9690  0.2089
14592TIP3   OH265266   4.056   4.929   1.371  0.0813 -0.2811  0.2231
14592TIP3    H165267   4.090   4.988   1.438  1.9284 -0.1191 -0.7819
14592TIP3    H265268   4.059   4.842   1.411 -1.1307  0.0866  1.1555
14593TIP3   OH265269   3.773   0.402  13.808 -0.5332 -0.2990  0.4570
14593TIP3    H165270   3.869   0.398  13.800 -0.4369  0.5172  1.0545
14593TIP3    H265271   3.754   0.353  13.888 -0.7683 -1.7152 -0.4301
14594TIP3   OH265272   4.919   3.212  16.823 -0.7426  0.0840 -0.4181
14594TIP3    H165273   4.857   3.182  16.890 -0.8166  0.5264 -0.2896
14594TIP3    H265274   4.928   3.306  16.838  1.0737 -0.1841  0.5061
14595TIP3   OH265275   6.371   6.544  16.069  0.1834 -0.3074 -0.2173
14595TIP3    H165276   6.394   6.469  16.125 -1.2285 -0.5574  0.0695
14595TIP3    H265277   6.387   6.621  16.123 -1.9280 -0.5710  0.8990
14596TIP3   OH265278   2.332   0.509  15.030  0.3363 -0.4235 -0.7698
14596TIP3    H165279   2.384   0.468  14.960  1.4054 -0.8976  0.2681
14596TIP3    H265280   2.290   0.435  15.075 -1.0951 -0.0623 -1.4397
14597TIP3   OH265281   1.115   3.107  14.346  0.3804 -0.1126 -0.2358
14597TIP3    H165282   1.112   3.012  14.339  1.1435 -0.2192  0.7427
14597TIP3    H265283   1.140   3.137  14.258 -1.4130 -0.6933 -1.0006
14598TIP3   OH265284   2.138   3.703   0.591  0.2331  0.1888 -0.2790
14598TIP3    H165285   2.190   3.781   0.611  0.7860 -0.1923 -0.2241
14598TIP3    H265286   2.172   3.673   0.506 -0.0923  0.1022 -0.3803
14599TIP3   OH265287   3.913   6.448   2.675 -0.0358  0.2073 -0.2558
14599TIP3    H165288   3.831   6.486   2.644 -0.1084 -0.5719 -1.0617
14599TIP3    H265289   3.924   6.369   2.623 -0.1857 -1.2128  1.7341
14600TIP3   OH265290   3.433   5.002  14.931  0.1733  0.1478 -0.5367
14600TIP3    H165291   3.338   4.990  14.940  0.3670 -1.6595 -0.6742
14600TIP3    H265292   3.442   5.090  14.895 -1.4044  0.6795  0.2694
14601TIP3   OH265293   4.928   3.674  16.675  0.2704 -0.8854 -0.1419
14601TIP3    H165294   5.012   3.718  16.682  0.7009 -1.8340  0.9442
14601TIP3    H265295   4.920   3.650  16.582  0.1943  1.0884 -0.6774
14602TIP3   OH265296   1.344   4.716  12.584 -0.0154 -0.9169  0.0365
14602TIP3    H165297   1.329   4.732  12.677 -0.5705 -1.5851  0.0797
14602TIP3    H265298   1.375   4.625  12.580 -1.5413 -1.4519 -0.5361
14603TIP3   OH265299   6.156   4.081  14.429  0.5787  0.1108  0.2668
14603TIP3    H165300   6.156   3.987  14.446  0.2170  0.3381  1.6013
14603TIP3    H265301   6.135   4.121  14.513  1.9084  1.4488 -0.0034
14604TIP3   OH265302   4.193   3.229  12.204 -0.4328 -0.4469  0.0393
14604TIP3    H165303   4.156   3.143  12.184  1.6481 -1.4056  0.0391
14604TIP3    H265304   4.127   3.292  12.173 -1.5308 -2.0132 -0.9130
14605TIP3   OH265305   3.389   6.197   2.523  0.4948 -0.2707 -0.2831
14605TIP3    H165306   3.298   6.224   2.521 -0.5476 -3.4204 -1.4112
14605TIP3    H265307   3.406   6.174   2.614 -0.5507 -1.6399 -0.4031
14606TIP3   OH265308   4.027   0.195  11.321  0.0458 -0.4602  0.2884
14606TIP3    H165309   3.932   0.202  11.316 -0.2112 -2.3210  1.6774
14606TIP3    H265310   4.056   0.283  11.347 -1.3726 -0.0930  0.7110
14607TIP3   OH265311   1.553   2.986  17.024  0.1247  0.0077  0.0625
14607TIP3    H165312   1.511   3.022  16.946  0.8123  0.3533 -0.1509
14607TIP3    H265313   1.641   2.962  16.996  0.9719  1.7017  1.1281
14608TIP3   OH265314   0.909   4.549  15.365  0.4413 -0.4238 -0.2608
14608TIP3    H165315   0.980   4.537  15.302  1.2105 -2.2714  0.8820
14608TIP3    H265316   0.857   4.621  15.328  2.3196  0.3295 -1.6337
14609TIP3   OH265317   0.536   1.803  13.280 -0.2501 -0.5011  0.2748
14609TIP3    H165318   0.457   1.795  13.225 -0.7093 -0.9267  0.9831
14609TIP3    H265319   0.569   1.714  13.287 -0.2302 -0.4574  0.7384
14610TIP3   OH265320   3.425   6.658  13.882  0.3241 -0.2044 -0.7826
14610TIP3    H165321   3.366   6.722  13.841 -1.0600  0.8491  2.5355
14610TIP3    H265322   3.376   6.624  13.956  2.5568 -2.1691 -0.0891
14611TIP3   OH265323   6.102   0.126   2.562  0.0207  0.3431  0.0711
14611TIP3    H165324   6.042   0.200   2.551  0.0169  0.6775  2.0335
14611TIP3    H265325   6.083   0.092   2.649  0.1816 -1.8579 -0.6959
14612TIP3   OH265326   2.250   1.227   2.075 -0.0617 -1.2630 -0.7371
14612TIP3    H165327   2.191   1.232   2.150  0.2423 -0.4050 -0.5425
14612TIP3    H265328   2.203   1.173   2.011 -2.4301  1.6955 -1.7512
14613TIP3   OH265329   4.701   0.503  14.623 -0.0480  0.4055 -0.1063
14613TIP3    H165330   4.700   0.475  14.714 -0.1927 -0.1461 -0.2770
14613TIP3    H265331   4.668   0.593  14.625 -0.2028  0.3374  0.3610
14614TIP3   OH265332   5.008   1.504  16.533 -0.3240  0.2308  0.3019
14614TIP3    H165333   5.009   1.585  16.583 -0.2374  1.0834 -1.0328
14614TIP3    H265334   4.935   1.514  16.472  0.4375 -0.1529 -0.7102
14615TIP3   OH265335   2.439   0.111   5.854  0.1642 -0.3604  0.3005
14615TIP3    H165336   2.488   0.032   5.831 -0.0888 -0.8593  1.4339
14615TIP3    H265337   2.432   0.108   5.949  0.9538  1.5008  0.4624
14616TIP3   OH265338   1.267   3.011  10.301 -0.4468 -0.3146  0.0176
14616TIP3    H165339   1.362   3.019  10.297 -0.4630  1.4521  1.6128
14616TIP3    H265340   1.241   3.071  10.371 -2.6269 -1.7450  0.5404
14617TIP3   OH265341   0.577   4.648  16.562  0.3640  0.3283  0.0729
14617TIP3    H165342   0.587   4.725  16.617 -1.6924 -0.8730  2.2910
14617TIP3    H265343   0.585   4.574  16.622  0.0578 -1.1290 -1.5980
14618TIP3   OH265344   3.160   3.300   5.200  0.3074  0.0114  0.5252
14618TIP3    H165345   3.115   3.243   5.138  2.8448 -1.7178  0.1188
14618TIP3    H265346   3.181   3.378   5.150  0.1933 -0.3373 -0.0842
14619TIP3   OH265347   3.463   2.146   3.190 -0.0854  0.2835  0.1576
14619TIP3    H165348   3.439   2.172   3.101 -0.8029  0.7117  0.4720
14619TIP3    H265349   3.533   2.081   3.178  0.8697  1.4174 -0.6719
14620TIP3   OH265350   2.335   1.736   6.379 -0.2554  0.1233  0.0172
14620TIP3    H165351   2.294   1.796   6.441  0.9928  1.3435 -0.2760
14620TIP3    H265352   2.399   1.687   6.431 -1.6378 -1.3910  0.3661
14621TIP3   OH265353   2.850   4.751   1.489 -1.1053  0.0032  0.2343
14621TIP3    H165354   2.797   4.698   1.548 -0.6870 -0.0586  0.5624
14621TIP3    H265355   2.929   4.700   1.475 -2.3552 -1.3569 -2.7211
14622TIP3   OH265356   0.600   5.612   3.021 -0.1770  0.7280  0.0313
14622TIP3    H165357   0.627   5.588   3.109 -0.4338  0.7006  0.1023
14622TIP3    H265358   0.511   5.644   3.030 -0.2340  0.6524 -0.2275
14623TIP3   OH265359   0.817   2.731  14.308 -0.5278  0.2243  0.0756
14623TIP3    H165360   0.826   2.714  14.402 -0.4295  2.7016  0.5747
14623TIP3    H265361   0.768   2.656  14.275 -0.3192 -0.8486  2.0391
14624TIP3   OH265362   1.771   5.322   2.208 -0.1108  0.9153 -0.0919
14624TIP3    H165363   1.857   5.280   2.212 -0.4113  0.0840 -1.6723
14624TIP3    H265364   1.784   5.408   2.249  0.7886 -0.2550  2.2227
14625TIP3   OH265365   6.794   3.464   6.341  0.3142 -0.0858  0.3988
14625TIP3    H165366   6.837   3.497   6.261 -0.5181  1.3420  0.5028
14625TIP3    H265367   6.704   3.496   6.334 -0.0214 -0.7739  1.4596
14626TIP3   OH265368   1.223   2.683  10.818  0.0977  0.4218  0.2231
14626TIP3    H165369   1.191   2.717  10.735 -1.0583  0.5584  0.7102
14626TIP3    H265370   1.276   2.754  10.855  0.7578  0.2962 -0.4552
14627TIP3   OH265371   5.821   4.812  10.984  0.3970  0.5839 -0.5953
14627TIP3    H165372   5.831   4.868  10.907 -0.8897 -0.6420 -1.6912
14627TIP3    H265373   5.756   4.747  10.959  0.4254 -0.2513  1.3148
14628TIP3   OH265374   3.799   5.504  17.253  0.6828  0.2671  0.0526
14628TIP3    H165375   3.766   5.416  17.266 -1.8193  0.6555 -2.6751
14628TIP3    H265376   3.778   5.550  17.335 -3.2667 -0.2703 -0.4797
14629TIP3   OH265377   5.971   0.012   1.670  0.3033  0.1171 -0.1284
14629TIP3    H165378   5.885  -0.028   1.659  0.7561 -0.5612 -1.2853
14629TIP3    H265379   6.018  -0.048   1.729  0.1994  0.1654  0.0047
14630TIP3   OH265380   4.068   2.851   5.237  0.2407 -0.0632 -0.0431
14630TIP3    H165381   4.114   2.884   5.160  0.3088 -1.2109 -0.5138
14630TIP3    H265382   4.131   2.863   5.309  1.1827 -1.2917 -0.6145
14631TIP3   OH265383   5.434   2.652  16.296 -0.3779 -0.4926  0.4640
14631TIP3    H165384   5.502   2.699  16.248 -0.3857  0.8241  1.6751
14631TIP3    H265385   5.473   2.634  16.382 -1.4460  0.0785  1.0907
14632TIP3   OH265386   5.789   6.788   1.345  0.4265 -0.2262 -0.2306
14632TIP3    H165387   5.721   6.736   1.303  0.8565 -1.4696  0.5437
14632TIP3    H265388   5.788   6.872   1.298 -1.9552 -0.0024  0.0741
14633TIP3   OH265389   6.653   5.142  12.107 -0.1863 -0.7032  0.3071
14633TIP3    H165390   6.693   5.202  12.170  2.4222 -2.1452  0.1478
14633TIP3    H265391   6.584   5.193  12.066  2.0690  2.3127 -0.0597
14634TIP3   OH265392   4.705   1.020  17.190  0.0677  0.0707  0.1676
14634TIP3    H165393   4.610   1.012  17.190  0.0427  0.3662  0.0213
14634TIP3    H265394   4.723   1.095  17.134  0.4552 -0.7602 -0.8372
14635TIP3   OH265395   0.360   4.569   7.029  0.5571  0.4199 -0.5268
14635TIP3    H165396   0.454   4.557   7.016  0.2370 -0.6976 -2.0800
14635TIP3    H265397   0.331   4.489   7.072  0.5617  1.4996  1.6037
14636TIP3   OH265398   1.942   3.023  11.393  0.0318 -0.2926  0.5437
14636TIP3    H165399   1.958   3.048  11.302 -0.7754 -1.1155  0.1616
14636TIP3    H265400   2.020   3.054  11.441  0.6659 -0.2487 -0.4961
14637TIP3   OH265401   0.663   1.542   1.728 -0.5900 -0.5305  0.1697
14637TIP3    H165402   0.568   1.529   1.722 -0.7613  0.5164  0.4426
14637TIP3    H265403   0.678   1.576   1.816  0.1083 -1.1239  0.2974
14638TIP3   OH265404   1.209   4.535  11.492 -0.5083  0.5875 -0.9529
14638TIP3    H165405   1.266   4.474  11.446 -0.3899  0.4620 -0.6418
14638TIP3    H265406   1.142   4.480  11.532  0.9122  0.3666  1.3204
14639TIP3   OH265407   2.242   0.551  15.346 -0.0722  0.4399 -0.4406
14639TIP3    H165408   2.170   0.488  15.342  0.9920 -1.1664  2.2482
14639TIP3    H265409   2.289   0.540  15.263 -0.1252 -2.1551 -0.2063
14640TIP3   OH265410   3.254   1.254  11.702  0.1547  0.3852 -0.3463
14640TIP3    H165411   3.312   1.226  11.773 -0.5529 -0.8747 -0.2294
14640TIP3    H265412   3.202   1.176  11.681  0.0305  0.8567 -1.9515
14641TIP3   OH265413   5.219   2.333  15.817  0.1618 -0.2493 -0.0996
14641TIP3    H165414   5.240   2.348  15.725 -1.8487  2.6912 -0.2059
14641TIP3    H265415   5.127   2.305  15.817  0.2674 -0.6581  1.0210
14642TIP3   OH265416   0.013   6.593   2.005  0.3204 -0.1882 -0.4230
14642TIP3    H165417  -0.048   6.527   1.972 -0.4318  0.7991 -1.0819
14642TIP3    H265418   0.099   6.562   1.980 -0.1034 -0.3705 -1.7452
14643TIP3   OH265419   4.356   5.179   3.600 -0.1604  0.0068 -0.2895
14643TIP3    H165420   4.415   5.111   3.566 -0.1412  0.4810 -1.2536
14643TIP3    H265421   4.274   5.165   3.553 -0.1379  0.6837 -0.5423
14644TIP3   OH265422   3.073   5.876  12.106 -0.5377  0.3362 -0.6105
14644TIP3    H165423   3.048   5.962  12.140  1.0508  0.4909  0.2252
14644TIP3    H265424   3.151   5.892  12.053 -0.9328 -0.4260 -1.4620
14645TIP3   OH265425   1.773   0.770   6.205  0.1043 -0.1438 -0.4555
14645TIP3    H165426   1.867   0.786   6.202  0.1120 -0.1747 -0.3796
14645TIP3    H265427   1.754   0.723   6.124 -0.1885  1.6654 -1.4937
14646TIP3   OH265428   5.186   1.617   6.073 -0.2802  0.2475 -0.4260
14646TIP3    H165429   5.204   1.685   6.008 -0.8368 -0.3698 -1.2477
14646TIP3    H265430   5.121   1.656   6.131 -0.2369  0.5919 -0.6052
14647TIP3   OH265431   1.087   4.048  12.448 -0.1152  0.4312  0.5432
14647TIP3    H165432   1.057   3.978  12.390 -1.5597  1.7941 -0.4346
14647TIP3    H265433   1.183   4.046  12.440 -0.2329  0.0344 -1.2561
14648TIP3   OH265434   1.484   0.887  13.833  0.3826 -0.0616 -0.0804
14648TIP3    H165435   1.407   0.927  13.875  0.5437  1.3403 -1.0443
14648TIP3    H265436   1.468   0.899  13.739  0.6169 -2.0103 -0.4019
14649TIP3   OH265437   0.124   6.563  14.972  0.5484 -0.1299  0.4193
14649TIP3    H165438   0.063   6.603  14.909  1.3802 -0.3913 -0.5820
14649TIP3    H265439   0.115   6.616  15.051 -0.4090  0.3079  0.0397
14650TIP3   OH265440   4.688   6.178   6.481 -0.4225 -0.0877  0.2620
14650TIP3    H165441   4.739   6.113   6.433 -0.8719  0.2609 -0.7228
14650TIP3    H265442   4.626   6.127   6.533 -2.5001 -0.5048 -2.3898
14651TIP3   OH265443   0.146   5.847   6.766  0.4911 -0.1057  0.0890
14651TIP3    H165444   0.053   5.839   6.785  0.5553  1.9876  1.6013
14651TIP3    H265445   0.156   5.935   6.731  1.7087 -0.8883 -1.6782
14652TIP3   OH265446   4.176   3.318  11.492 -0.2225  0.0124 -0.2138
14652TIP3    H165447   4.093   3.360  11.513 -0.3158 -0.2260 -0.1039
14652TIP3    H265448   4.154   3.254  11.424 -0.0945  0.0936 -0.3295
14653TIP3   OH265449   5.553   1.376  15.459 -0.3182  0.8688  0.3877
14653TIP3    H165450   5.567   1.356  15.552 -0.8838  0.1149  0.3226
14653TIP3    H265451   5.462   1.352  15.443  0.0491  0.0438 -0.5857
14654TIP3   OH265452   3.303   0.206   2.083 -0.0118 -0.7105 -0.2992
14654TIP3    H165453   3.321   0.127   2.033  2.2421 -0.4803  0.0500
14654TIP3    H265454   3.272   0.269   2.018  0.3583 -1.1992 -0.9534
14655TIP3   OH265455   3.290   2.119  14.201 -0.2274 -0.0581 -0.0595
14655TIP3    H165456   3.272   2.151  14.113 -1.0773 -2.5941 -0.8944
14655TIP3    H265457   3.204   2.104  14.239  0.1213 -1.0883  0.3538
14656TIP3   OH265458   5.106   3.231   0.645  0.5995  0.1394 -0.2036
14656TIP3    H165459   5.026   3.238   0.697  0.9234 -1.0781  0.5061
14656TIP3    H265460   5.153   3.157   0.683  1.7160  0.3616 -1.0877
14657TIP3   OH265461   0.927   1.043  11.567  0.1047  0.5497  0.5331
14657TIP3    H165462   0.925   0.951  11.539 -0.3251  1.0207 -1.0935
14657TIP3    H265463   0.835   1.068  11.576  0.0653  1.5717 -1.8581
14658TIP3   OH265464   0.029   4.449   1.022  0.6562 -0.3509  0.3158
14658TIP3    H165465   0.112   4.496   1.025 -0.1213  1.0164  1.0775
14658TIP3    H265466  -0.036   4.516   1.003 -0.1924 -1.5463 -1.2734
14659TIP3   OH265467   6.211   5.954  12.630 -0.2893  0.1298  0.2398
14659TIP3    H165468   6.128   5.970  12.676 -0.1255  1.3984  0.1464
14659TIP3    H265469   6.278   5.970  12.696 -0.1067 -1.1259  0.3777
14660TIP3   OH265470   2.999   4.871   3.369 -0.3535 -0.9989 -0.0980
14660TIP3    H165471   2.970   4.930   3.298 -0.8792 -3.4331 -2.0571
14660TIP3    H265472   3.046   4.928   3.429 -1.7040  1.6052 -1.2987
14661TIP3   OH265473   3.679   4.613   4.063  0.1265 -0.0618  0.5714
14661TIP3    H165474   3.585   4.599   4.068 -0.0302 -0.9470 -2.5580
14661TIP3    H265475   3.712   4.541   4.009  2.4385  0.8050  0.6818
14662TIP3   OH265476   2.233   1.041  12.101  0.2347 -0.5272  0.5581
14662TIP3    H165477   2.261   1.120  12.054 -1.6327  0.3158  0.8007
14662TIP3    H265478   2.208   0.980  12.032  0.6977 -0.5488  0.4013
14663TIP3   OH265479   3.405   4.837  16.396 -0.2624 -0.5285 -1.1048
14663TIP3    H165480   3.393   4.748  16.430  0.3749 -0.9884 -2.0237
14663TIP3    H265481   3.373   4.894  16.466  0.4000 -1.4438 -0.0203
14664TIP3   OH265482   2.668   2.049   1.032  0.4198  0.2439 -0.7038
14664TIP3    H165483   2.577   2.034   1.007  0.1495 -0.3437  0.5606
14664TIP3    H265484   2.671   2.030   1.126  1.9648 -0.3116 -0.8294
14665TIP3   OH265485   4.343   5.431  17.032 -0.2655 -0.4283  0.1840
14665TIP3    H165486   4.260   5.386  17.013 -1.3735  2.2251 -1.7955
14665TIP3    H265487   4.347   5.432  17.128 -2.8377 -0.1865  0.3844
14666TIP3   OH265488   4.228   2.318  17.300  1.1660 -0.4597 -0.1687
14666TIP3    H165489   4.194   2.365  17.224 -1.4252 -1.9197 -0.0486
14666TIP3    H265490   4.277   2.384  17.349 -0.8727  1.7189 -0.8387
14667TIP3   OH265491   6.553   3.975   0.849 -0.5359  0.2071 -0.3687
14667TIP3    H165492   6.495   3.926   0.790 -0.2489 -0.9285  0.2839
14667TIP3    H265493   6.493   4.032   0.898 -0.9681 -0.0639 -0.5705
14668TIP3   OH265494   6.429   1.056  16.917 -0.0097  0.8645 -0.8010
14668TIP3    H165495   6.422   1.083  17.009  0.3269  0.2274 -0.5768
14668TIP3    H265496   6.514   1.012  16.912 -0.1138  0.7230 -1.3707
14669TIP3   OH265497   0.356   4.955  17.034  0.1358  0.2112 -0.0252
14669TIP3    H165498   0.361   4.889  16.965 -1.4963 -0.4974  0.4953
14669TIP3    H265499   0.306   4.914  17.104 -2.0143  2.3691 -0.1554
14670TIP3   OH265500   6.115   1.766  13.181  0.1471  0.3965 -0.0302
14670TIP3    H165501   6.137   1.674  13.164  0.8485  0.6428 -0.5134
14670TIP3    H265502   6.062   1.763  13.260 -0.2284 -0.4679 -0.3004
14671TIP3   OH265503   6.379   5.906  15.974 -0.6303 -0.2937  0.5649
14671TIP3    H165504   6.284   5.909  15.990 -0.6258  0.8735  0.4733
14671TIP3    H265505   6.389   5.934  15.884 -0.1648 -0.0331  0.6958
14672TIP3   OH265506   5.921   4.404  10.874 -0.1099 -0.3322 -0.1244
14672TIP3    H165507   5.916   4.357  10.791  1.5295 -1.0857  0.1649
14672TIP3    H265508   5.947   4.493  10.850 -2.5167  0.3219 -0.6128
14673TIP3   OH265509   6.214   2.030   0.637 -0.2234  0.1877  0.7977
14673TIP3    H165510   6.260   2.088   0.697 -0.9325 -0.4131  1.9566
14673TIP3    H265511   6.157   1.977   0.693 -0.2709 -1.0012 -0.3153
14674TIP3   OH265512   4.205   3.798  14.249 -0.0559  0.4670  0.1211
14674TIP3    H165513   4.287   3.763  14.285 -0.2675 -0.3143 -0.1435
14674TIP3    H265514   4.171   3.855  14.318 -0.8087 -1.5493  1.5002
14675TIP3   OH265515   2.459   4.353  12.342 -0.0830  0.2678  0.2456
14675TIP3    H165516   2.494   4.269  12.374  1.0219  0.6252  0.0150
14675TIP3    H265517   2.525   4.417  12.366 -0.5153  0.9540 -0.3615
14676TIP3   OH265518   5.772   4.637  16.813  0.3841  0.1080 -0.4007
14676TIP3    H165519   5.846   4.590  16.775 -0.0149  0.2720 -1.4184
14676TIP3    H265520   5.715   4.568  16.848  1.4750  0.0215  1.3192
14677TIP3   OH265521   1.458   2.330   5.553 -0.0590  0.1755 -0.3666
14677TIP3    H165522   1.425   2.416   5.581  0.6078  0.5524 -0.7208
14677TIP3    H265523   1.383   2.271   5.564 -1.3034  1.2494 -2.3624
14678TIP3   OH265524   1.673   2.157  12.641  0.1261 -0.4044 -1.0398
14678TIP3    H165525   1.764   2.128  12.649  0.3404  0.0132 -1.8712
14678TIP3    H265526   1.638   2.150  12.730  1.2872  0.4677 -0.4818
14679TIP3   OH265527   5.242   6.357   0.002 -0.4771 -0.5196  0.0921
14679TIP3    H165528   5.194   6.427  -0.044 -0.1104 -0.0722  0.3736
14679TIP3    H265529   5.225   6.373   0.094 -0.7103 -1.0491  0.1432
14680TIP3   OH265530   0.754   5.089   2.526  0.0530  0.1396  0.2286
14680TIP3    H165531   0.663   5.061   2.515  0.3642 -0.8495  0.0827
14680TIP3    H265532   0.751   5.155   2.596 -0.8369  0.4940 -0.1306
14681TIP3   OH265533   3.339   1.634   3.526 -0.1735 -0.4430  0.2683
14681TIP3    H165534   3.382   1.605   3.446 -1.0582 -1.8125  0.2664
14681TIP3    H265535   3.380   1.583   3.596 -0.2168 -0.1092  0.5407
14682TIP3   OH265536   2.823   4.107  13.121  0.5235  0.7484 -0.6963
14682TIP3    H165537   2.856   4.020  13.098 -0.1624  0.5752 -1.0739
14682TIP3    H265538   2.889   4.144  13.178  1.1839  0.2719 -1.1419
14683TIP3   OH265539   5.684   1.941  15.921  0.3786 -0.7669  0.0425
14683TIP3    H165540   5.715   1.902  15.839 -0.0141  0.8275 -0.9162
14683TIP3    H265541   5.592   1.961  15.905  0.3889 -0.1138  0.7385
14684TIP3   OH265542   0.079   5.942   3.634  0.0709  0.4497  0.2892
14684TIP3    H165543   0.080   5.847   3.634 -4.2192  0.1264  3.3312
14684TIP3    H265544   0.017   5.965   3.565  0.5968  1.0855  0.0104
14685TIP3   OH265545   1.301   3.222  17.130  0.2875 -0.4602  0.3122
14685TIP3    H165546   1.295   3.314  17.105 -1.5716 -0.5674  0.2675
14685TIP3    H265547   1.357   3.223  17.208  1.3814  0.5259 -0.4513
14686TIP3   OH265548   0.568   2.537   0.782 -0.4391 -1.2500 -0.8831
14686TIP3    H165549   0.634   2.560   0.716  1.8192 -0.9762  1.3069
14686TIP3    H265550   0.495   2.597   0.765  1.2393  0.7666 -1.4378
14687TIP3   OH265551   4.662   4.555   3.865  0.6181  0.0550  0.2353
14687TIP3    H165552   4.662   4.608   3.945  1.0530  0.9153 -0.3137
14687TIP3    H265553   4.636   4.468   3.894  2.3123 -0.0648  1.6015
14688TIP3   OH265554   6.387   5.492  14.627 -0.2893 -0.0640  0.0766
14688TIP3    H165555   6.366   5.545  14.704 -1.5369 -0.1325 -0.1955
14688TIP3    H265556   6.370   5.550  14.553 -1.3749 -0.7281 -0.2130
14689TIP3   OH265557   5.877   3.022   3.791 -0.3546 -0.4177 -0.1342
14689TIP3    H165558   5.961   3.057   3.762 -1.6781  0.3215 -3.4968
14689TIP3    H265559   5.827   3.099   3.819 -0.2965 -0.7319  0.8800
14690TIP3   OH265560   4.479   6.186   0.858  0.3731  0.1079  0.5056
14690TIP3    H165561   4.489   6.266   0.807 -3.9255 -0.4863 -1.7532
14690TIP3    H265562   4.510   6.116   0.800 -0.0832 -0.2034  0.6306
14691TIP3   OH265563   5.544   2.119   5.887 -0.1752 -0.0053 -0.1776
14691TIP3    H165564   5.541   2.204   5.930 -0.1429  0.1082 -0.3971
14691TIP3    H265565   5.631   2.085   5.907 -0.2089 -0.0114 -0.0430
14692TIP3   OH265566   5.794   1.613   3.140  0.3757 -0.2833 -0.1114
14692TIP3    H165567   5.848   1.591   3.216  1.3441 -1.5240 -1.1028
14692TIP3    H265568   5.706   1.627   3.176  1.1712  0.9746  1.4369
14693TIP3   OH265569   5.001   6.266   0.946  0.5668  0.0770 -0.4574
14693TIP3    H165570   4.962   6.307   1.023  1.6973 -0.1313  0.2448
14693TIP3    H265571   4.926   6.233   0.896 -0.1208 -1.8578  1.7117
14694TIP3   OH265572   1.267   1.792   2.619 -0.0696 -0.6830  0.9925
14694TIP3    H165573   1.264   1.879   2.660 -0.6598 -0.6799  0.9429
14694TIP3    H265574   1.207   1.739   2.671 -1.3252 -0.5206 -0.2303
14695TIP3   OH265575   0.183   1.617   0.309 -0.1474  0.3654 -0.2603
14695TIP3    H165576   0.275   1.625   0.334  0.1370 -0.6117 -0.9372
14695TIP3    H265577   0.185   1.619   0.213 -0.6637 -1.2750 -0.3213
14696TIP3   OH265578   6.525   2.665   1.298  0.3524 -0.1319 -0.8891
14696TIP3    H165579   6.506   2.638   1.388  0.5210  0.7335 -0.5922
14696TIP3    H265580   6.446   2.640   1.249  0.6255 -1.4674 -0.7033
14697TIP3   OH265581   3.750   1.968  16.663  0.0425  0.1766  0.1163
14697TIP3    H165582   3.784   1.921  16.739 -1.4641  0.0657  0.7342
14697TIP3    H265583   3.755   1.904  16.592  2.2838  0.5433 -0.1580
14698TIP3   OH265584   2.552   2.583   0.240 -0.2636 -0.4138  0.0898
14698TIP3    H165585   2.551   2.586   0.144  0.4787 -0.2699  0.0765
14698TIP3    H265586   2.460   2.580   0.265 -0.5593  1.7077 -0.5606
14699TIP3   OH265587   3.393   6.726   4.066  0.3526 -0.5491  0.3262
14699TIP3    H165588   3.321   6.682   4.021  0.7485 -1.0414  0.1662
14699TIP3    H265589   3.361   6.738   4.156  0.2855 -1.2871  0.4094
14700TIP3   OH265590   2.401   1.167  11.009 -0.0090 -0.6711 -1.0395
14700TIP3    H165591   2.445   1.207  11.084 -2.9312  1.4741 -0.2800
14700TIP3    H265592   2.430   1.217  10.933  0.5852 -0.7924 -0.8940
14701TIP3   OH265593   0.329   0.952  12.827  0.1265  0.0583  0.3736
14701TIP3    H165594   0.393   1.008  12.870 -0.5934 -0.2207  1.8587
14701TIP3    H265595   0.363   0.864  12.836 -0.3317 -0.0645  0.9284
14702TIP3   OH265596   0.146   1.935  13.276  0.3107  0.2426  0.2090
14702TIP3    H165597   0.083   1.939  13.349  0.6468  1.0605  0.4668
14702TIP3    H265598   0.177   1.845  13.276 -1.1571 -0.3049 -0.1771
14703TIP3   OH265599   6.276   5.904  13.848 -0.2347  0.5988 -0.3720
14703TIP3    H165600   6.290   5.811  13.830 -0.5826  0.2026  1.2732
14703TIP3    H265601   6.209   5.931  13.785 -0.3848 -0.3461 -0.6272
14704TIP3   OH265602   2.046   4.957   5.538  0.0957 -0.7579  0.7306
14704TIP3    H165603   2.127   4.909   5.553  0.2386 -0.1606  1.9481
14704TIP3    H265604   2.067   5.047   5.562 -0.6442 -0.3945  0.0611
14705TIP3   OH265605   6.242   0.264  17.080  0.2197 -0.1511  0.0728
14705TIP3    H165606   6.239   0.246  17.174  0.5965 -3.5235 -0.4279
14705TIP3    H265607   6.301   0.339  17.072 -1.5060  1.6434  2.6035
14706TIP3   OH265608   4.085   4.556  15.927 -0.3588 -0.1361  0.2649
14706TIP3    H165609   4.097   4.512  15.843  0.7006 -1.0071  0.8443
14706TIP3    H265610   4.099   4.488  15.992 -0.6336  0.6381  1.1598
14707TIP3   OH265611   2.807   5.600  14.524 -0.2901  0.5800  0.2581
14707TIP3    H165612   2.743   5.565  14.585  1.0030 -1.2102  0.6884
14707TIP3    H265613   2.760   5.666  14.473 -1.9828  0.5081  1.6664
14708TIP3   OH265614   6.311   0.770  13.108  0.0831 -0.0205 -0.5876
14708TIP3    H165615   6.375   0.831  13.144  1.0553 -1.1836 -0.2849
14708TIP3    H265616   6.294   0.708  13.179 -0.8599 -0.1387 -0.8966
14709TIP3   OH265617   3.237   4.020  15.962  0.6316 -0.6375 -0.2250
14709TIP3    H165618   3.192   4.093  15.920 -0.7555 -1.9467 -1.1474
14709TIP3    H265619   3.305   4.060  16.016  0.3231  1.2706 -1.1935
14710TIP3   OH265620   5.675   4.873   3.600  0.4360  0.5047  0.6520
14710TIP3    H165621   5.749   4.814   3.586  0.4934 -0.2424  3.4545
14710TIP3    H265622   5.713   4.961   3.596  1.7327  0.1246  2.8021
14711TIP3   OH265623   0.907   5.825  14.558  0.1648 -0.0837 -0.0712
14711TIP3    H165624   0.955   5.766  14.617 -1.4869 -2.5182 -0.9803
14711TIP3    H265625   0.870   5.891  14.615  1.4612 -0.3486  1.1321
14712TIP3   OH265626   0.282   2.483  15.621 -0.5434 -0.2325 -0.6084
14712TIP3    H165627   0.357   2.439  15.580 -0.7005 -0.5569 -0.5579
14712TIP3    H265628   0.269   2.436  15.703 -0.5116  0.1262 -0.3964
14713TIP3   OH265629   5.242   3.232   2.074  0.7935  0.4034 -0.2547
14713TIP3    H165630   5.204   3.155   2.115 -0.7214  0.9462 -0.5737
14713TIP3    H265631   5.199   3.306   2.117  1.8305  1.0597 -0.3151
14714TIP3   OH265632   2.818   6.554   2.602  0.0715 -0.1330 -0.2397
14714TIP3    H165633   2.867   6.586   2.677 -2.1297  0.3003  1.0872
14714TIP3    H265634   2.777   6.474   2.632  0.0886 -0.6025 -1.3922
14715TIP3   OH265635   5.818   1.306  14.435  0.1878  0.4224 -0.0362
14715TIP3    H165636   5.826   1.212  14.417  0.5958  0.7760 -1.8747
14715TIP3    H265637   5.783   1.343  14.355  0.2775  1.8971  0.5709
14716TIP3   OH265638   0.823   4.516   6.635 -0.0032  0.3805  0.7188
14716TIP3    H165639   0.861   4.583   6.578 -0.8503  0.2096 -0.0919
14716TIP3    H265640   0.744   4.557   6.671  1.1457  0.9005  2.7503
14717TIP3   OH265641   4.892   4.283  16.181 -0.3758 -0.6253 -0.8199
14717TIP3    H165642   4.822   4.281  16.117 -1.8782  1.3135  0.6368
14717TIP3    H265643   4.847   4.296  16.265  1.5121 -2.7563  0.6335
14718TIP3   OH265644   1.111   4.073  12.934  0.2779 -0.3856  0.2952
14718TIP3    H165645   1.087   4.134  13.004 -1.8213 -1.6678  0.7963
14718TIP3    H265646   1.145   3.996  12.981  3.7422  0.5905 -0.3471
14719TIP3   OH265647   4.591   4.139  16.577  0.0655  0.1396 -0.1637
14719TIP3    H165648   4.671   4.152  16.628 -0.6355  3.3791  0.3040
14719TIP3    H265649   4.523   4.123  16.642 -0.2751  1.0349 -0.2929
14720TIP3   OH265650   4.238   1.236   3.859  0.3512 -0.0665 -0.5029
14720TIP3    H165651   4.302   1.231   3.788  1.1100 -0.3247  0.1712
14720TIP3    H265652   4.287   1.209   3.937 -0.7187 -0.7455 -0.0427
14721TIP3   OH265653   1.297   1.683  16.248  0.1750  0.2051 -0.4987
14721TIP3    H165654   1.390   1.701  16.254  0.3689 -0.9497  0.3564
14721TIP3    H265655   1.282   1.657  16.157  0.8528 -0.4680 -0.4203
14722TIP3   OH265656   2.505   3.475   1.200  0.0445  0.0768  0.5317
14722TIP3    H165657   2.425   3.515   1.233  0.3338  0.1627  1.1486
14722TIP3    H265658   2.574   3.537   1.225  0.2282  0.3530 -0.6174
14723TIP3   OH265659   1.224   6.709   6.117  0.2611  0.5762 -0.4603
14723TIP3    H165660   1.267   6.756   6.046 -0.0216  0.3231 -0.8005
14723TIP3    H265661   1.296   6.666   6.164  0.3315 -0.5989 -1.5718
14724TIP3   OH265662   6.344   1.225   6.406 -0.1018  0.6924  0.2937
14724TIP3    H165663   6.347   1.292   6.474  1.1506  1.5497 -0.5718
14724TIP3    H265664   6.294   1.266   6.335 -0.2377  0.3026  0.1608
14725TIP3   OH265665   5.104   2.581  16.426 -0.9968 -0.5619 -0.0990
14725TIP3    H165666   5.019   2.625  16.419 -0.6375  0.0554 -0.6734
14725TIP3    H265667   5.160   2.645  16.470 -0.2418 -0.0855 -1.6981
14726TIP3   OH265668   2.545   5.472  16.972 -0.2538 -0.6255  0.0199
14726TIP3    H165669   2.476   5.539  16.968  0.2321  0.0941  2.1225
14726TIP3    H265670   2.614   5.513  17.024  1.1067 -1.9083 -0.7257
14727TIP3   OH265671   0.197   2.580  14.897  0.1083  0.7493 -0.2329
14727TIP3    H165672   0.177   2.620  14.982  0.8038  0.6997 -0.0374
14727TIP3    H265673   0.226   2.653  14.842  0.5757  0.6441 -0.1316
14728TIP3   OH265674   5.758   1.227  13.886  0.3956  0.0313  0.0644
14728TIP3    H165675   5.827   1.163  13.875  1.1043  0.9518 -1.0616
14728TIP3    H265676   5.803   1.307  13.914 -0.2981  0.4451  0.0211
14729TIP3   OH265677   6.308   0.533  14.824 -0.1885  0.0112  0.3005
14729TIP3    H165678   6.387   0.479  14.820 -0.8105 -0.8575 -0.6879
14729TIP3    H265679   6.304   0.575  14.737 -0.2935  0.8255  0.6885
14730TIP3   OH265680   0.529   2.721  16.924 -0.6094 -0.0207 -0.5262
14730TIP3    H165681   0.476   2.789  16.966  2.3043  1.2846  1.3678
14730TIP3    H265682   0.576   2.767  16.854  0.6383 -0.2367  0.1250
14731TIP3   OH265683   6.632   0.923  14.357 -0.2785  0.2607  0.1586
14731TIP3    H165684   6.600   0.840  14.321  0.7321  0.5905 -1.5798
14731TIP3    H265685   6.592   0.990  14.301  1.1008  0.8072 -0.1922
14732TIP3   OH265686   0.465   4.221  16.185  0.2446 -0.2535  0.0941
14732TIP3    H165687   0.426   4.304  16.214 -0.2857 -0.3607 -0.2894
14732TIP3    H265688   0.426   4.155  16.243  0.5538 -0.2544  0.3029
14733TIP3   OH265689   5.258   1.755  12.722  0.5329 -0.4580  0.6464
14733TIP3    H165690   5.300   1.812  12.786  1.6302 -2.4392  1.8064
14733TIP3    H265691   5.321   1.684  12.709 -0.7793 -1.4386 -0.6847
14734TIP3   OH265692   3.931   6.775   5.451  0.1088 -0.5833 -0.5098
14734TIP3    H165693   3.969   6.815   5.530  1.1093 -0.0469 -1.2393
14734TIP3    H265694   3.902   6.849   5.398 -2.3769 -0.9830  0.1800
14735TIP3   OH265695   3.369   5.885   4.425  0.4436  0.0895 -0.2032
14735TIP3    H165696   3.283   5.855   4.455  0.4416  0.0669 -0.2313
14735TIP3    H265697   3.404   5.812   4.374  0.5620  0.0249 -0.0308
14736TIP3   OH265698   1.540   2.656  11.652 -0.0730 -0.3591 -0.2004
14736TIP3    H165699   1.604   2.662  11.580 -1.4323 -0.0158 -1.4409
14736TIP3    H265700   1.582   2.700  11.725  0.5743  1.1332 -1.4063
14737TIP3   OH265701   0.149   2.764  13.501 -0.8110 -0.0952 -0.3463
14737TIP3    H165702   0.208   2.708  13.451 -0.1862 -0.9107  1.2245
14737TIP3    H265703   0.207   2.827  13.544 -1.5067  1.8661 -2.1209
14738TIP3   OH265704   4.906   5.559  17.023  0.3738 -0.1504  0.6931
14738TIP3    H165705   4.994   5.576  17.058  0.5747  0.8747 -0.2582
14738TIP3    H265706   4.918   5.560  16.928 -0.8681  1.2317  0.5194
14739TIP3   OH265707   0.813   2.201  13.347 -0.2883  0.7502  0.0128
14739TIP3    H165708   0.862   2.127  13.312  1.4729  2.0391 -0.3788
14739TIP3    H265709   0.727   2.196  13.304  0.0133 -0.6895 -0.4628
14740TIP3   OH265710   5.931   3.528  17.191  1.0570  0.3518 -0.4174
14740TIP3    H165711   6.012   3.506  17.237  0.5824 -1.4860 -0.4172
14740TIP3    H265712   5.886   3.445  17.179  0.2432  1.0130 -2.5025
14741TIP3   OH265713   3.071   3.265  16.001  0.4021 -0.2780  0.4545
14741TIP3    H165714   3.003   3.270  15.934 -0.3614  0.1377  1.2241
14741TIP3    H265715   3.054   3.341  16.057 -0.1933 -1.6268  2.2163
14742TIP3   OH265716   4.663   5.349  16.063  0.0421  0.6335  0.6180
14742TIP3    H165717   4.640   5.427  16.013  0.8427  1.5867  1.7051
14742TIP3    H265718   4.600   5.283  16.034  0.3653  1.2006 -1.4933
14743TIP3   OH265719   2.884   1.829  12.482 -0.1224  0.1707  0.1952
14743TIP3    H165720   2.838   1.911  12.500  1.5401  1.6467 -1.7949
14743TIP3    H265721   2.976   1.850  12.492  0.5580 -0.5795 -3.0570
14744TIP3   OH265722   4.247   0.556   1.511 -0.3593 -0.0887  0.1540
14744TIP3    H165723   4.178   0.615   1.540  0.3410  0.2686  1.1358
14744TIP3    H265724   4.285   0.521   1.591  0.8947  0.0774 -0.3434
14745TIP3   OH265725   0.543   3.477   5.272  0.0913  0.5299  0.3119
14745TIP3    H165726   0.535   3.532   5.350  1.6326 -1.5739  2.0985
14745TIP3    H265727   0.622   3.426   5.287 -0.9013 -1.7262 -1.5127
14746TIP3   OH265728   6.367   5.672  10.468  0.1110  0.0371 -0.0639
14746TIP3    H165729   6.272   5.668  10.475 -0.0114  0.7086 -1.1845
14746TIP3    H265730   6.395   5.580  10.472 -0.7430 -0.3155 -1.5797
14747TIP3   OH265731   2.200   2.132   5.597 -0.5188 -0.8557 -1.0511
14747TIP3    H165732   2.181   2.079   5.674  0.1671  0.1471 -0.1687
14747TIP3    H265733   2.115   2.145   5.555 -1.6196  1.8232  1.6746
14748TIP3   OH265734   4.033   5.635   3.135  0.4435 -0.4094 -0.3315
14748TIP3    H165735   4.124   5.663   3.127  0.3735 -0.5524 -1.9781
14748TIP3    H265736   4.028   5.554   3.085 -0.1987 -1.4014  1.2812
14749TIP3   OH265737   2.381   1.950   5.516 -0.0454  0.7558  0.1661
14749TIP3    H165738   2.324   1.882   5.550  0.4917  0.5264  0.6164
14749TIP3    H265739   2.333   2.032   5.531 -1.3228  0.4019 -1.6490
14750TIP3   OH265740   0.282   4.273   3.814 -0.4692  0.5609 -0.2934
14750TIP3    H165741   0.338   4.351   3.808 -1.0473  0.9523 -0.8228
14750TIP3    H265742   0.201   4.299   3.770 -1.6509  0.5173  1.7329
14751TIP3   OH265743   2.358   1.314  13.003 -0.2212  0.2170 -0.5929
14751TIP3    H165744   2.358   1.408  13.021 -1.1808  0.6864 -2.7209
14751TIP3    H265745   2.288   1.279  13.058 -0.4834  0.9116 -0.4706
14752TIP3   OH265746   1.790   6.254   3.542  0.3031  0.0961 -0.1008
14752TIP3    H165747   1.700   6.275   3.564  0.0855 -0.4697 -0.4192
14752TIP3    H265748   1.842   6.289   3.614 -0.1748  0.3880  0.1023
14753TIP3   OH265749   1.459   2.469   2.719  0.6050  0.3429  0.0623
14753TIP3    H165750   1.476   2.381   2.686  1.7930  0.4747  0.2919
14753TIP3    H265751   1.545   2.510   2.723  0.3087  0.8470  1.8578
14754TIP3   OH265752   1.031   6.748  14.964  0.2791 -1.0095  0.3663
14754TIP3    H165753   1.017   6.748  15.058  1.9022  0.6170  0.6517
14754TIP3    H265754   1.100   6.812  14.949 -0.4458 -0.6636 -2.0205
14755TIP3   OH265755   3.870   1.380   5.545 -0.1324 -0.0490  0.1168
14755TIP3    H165756   3.850   1.296   5.502 -1.5499  0.8684 -1.1362
14755TIP3    H265757   3.916   1.430   5.477  0.8486  0.1586  0.9141
14756TIP3   OH265758   2.550   1.635   6.524 -0.4795 -0.1763 -0.0721
14756TIP3    H165759   2.633   1.617   6.480 -1.1234  0.8858 -1.8265
14756TIP3    H265760   2.571   1.702   6.590 -0.3137  2.1441 -2.3169
14757TIP3   OH265761   1.162   3.741   1.228  0.0094 -0.1277 -0.7193
14757TIP3    H165762   1.084   3.706   1.184 -0.1646 -0.6237 -0.0251
14757TIP3    H265763   1.186   3.674   1.291  0.8401  0.1508 -0.7269
14758TIP3   OH265764   6.819   0.161  12.993 -0.7397  0.2656  0.5253
14758TIP3    H165765   6.831   0.072  13.026 -0.1439  0.1640  0.0432
14758TIP3    H265766   6.885   0.212  13.040 -0.2146  0.2100 -0.1386
14759TIP3   OH265767   2.179   0.551   0.411 -0.5972 -0.0906  0.3099
14759TIP3    H165768   2.201   0.537   0.319  1.4392  3.4534  0.0769
14759TIP3    H265769   2.206   0.470   0.455 -0.3430 -1.3344 -2.0075
14760TIP3   OH265770   5.463   2.723  13.101 -0.3688  0.2281 -0.4477
14760TIP3    H165771   5.421   2.686  13.023  0.9377  0.8020 -1.4756
14760TIP3    H265772   5.481   2.647  13.157 -0.0674 -0.3845 -1.3488
14761TIP3   OH265773   0.633   5.083  16.564  0.6568  0.2371 -0.3812
14761TIP3    H165774   0.539   5.082  16.545  0.5437 -0.2411  0.2006
14761TIP3    H265775   0.674   5.097  16.478  0.1080 -0.8147 -0.8411
14762TIP3   OH265776   2.754   2.999  11.130 -0.0521  0.0259  0.5275
14762TIP3    H165777   2.824   3.051  11.089  1.2816 -0.7571  1.6965
14762TIP3    H265778   2.703   2.965  11.057  0.7477  0.6955 -0.3715
14763TIP3   OH265779   0.146   5.635  10.613  0.1009 -0.0228  0.3222
14763TIP3    H165780   0.090   5.713  10.620  1.7332  1.2992 -0.3583
14763TIP3    H265781   0.088   5.567  10.580 -0.7995  1.7530 -2.1403
14764TIP3   OH265782   6.205   6.213   4.950  0.2202  0.4123  0.0942
14764TIP3    H165783   6.203   6.293   5.003  3.7098 -0.8108  2.4106
14764TIP3    H265784   6.210   6.142   5.014  2.5624 -1.2885 -1.7718
14765TIP3   OH265785   4.066   5.933   3.818  0.2515  0.0743  0.1551
14765TIP3    H165786   4.157   5.952   3.841  0.6810 -2.1804  0.5504
14765TIP3    H265787   4.064   5.939   3.722  1.2167 -1.1847  0.0164
14766TIP3   OH265788   0.577   5.702  10.955  0.1776  0.5969  0.3544
14766TIP3    H165789   0.628   5.700  10.874 -1.9609  2.3099 -1.1362
14766TIP3    H265790   0.507   5.638  10.941  0.8552 -0.5265  1.7136
14767TIP3   OH265791   4.920   5.279  15.115  0.1762 -0.6200  0.3156
14767TIP3    H165792   4.946   5.245  15.201  1.5381  0.5925  0.4142
14767TIP3    H265793   4.962   5.219  15.053  1.9833  0.3714  0.4986
14768TIP3   OH265794   2.860   1.311  15.518  1.0810 -0.2690 -0.9169
14768TIP3    H165795   2.876   1.364  15.596 -0.3505 -0.3057 -0.5675
14768TIP3    H265796   2.801   1.242  15.548  0.9879 -0.6313 -1.8998
14769TIP3   OH265797   0.089   3.177   2.981 -0.1310  0.4327  0.3005
14769TIP3    H165798   0.156   3.242   2.957  1.1897 -1.1019 -0.3140
14769TIP3    H265799   0.119   3.096   2.941 -0.7613 -1.0077  2.5941
14770TIP3   OH265800   5.827   5.439   4.587  0.1407 -0.1726  0.1756
14770TIP3    H165801   5.853   5.460   4.677 -0.7247 -0.8230  0.5875
14770TIP3    H265802   5.743   5.484   4.575 -0.2197 -0.8740  0.0259
14771TIP3   OH265803   3.886   5.007   0.464  0.1109  0.0587  0.1684
14771TIP3    H165804   3.802   5.008   0.419 -0.0454 -2.0323  0.3229
14771TIP3    H265805   3.864   4.998   0.557  0.4737 -1.4929  0.1306
14772TIP3   OH265806   0.283   1.339  16.648 -0.2962 -0.1401 -0.1918
14772TIP3    H165807   0.235   1.416  16.616  0.3030  0.7517  0.9587
14772TIP3    H265808   0.375   1.367  16.648  0.0344 -1.1777 -0.6031
14773TIP3   OH265809   6.715   1.034   2.477 -0.1383 -0.3573  0.3219
14773TIP3    H165810   6.779   0.967   2.456 -0.4835 -1.1650  1.7101
14773TIP3    H265811   6.760   1.117   2.459  1.8283 -0.8458  2.5387
14774TIP3   OH265812   0.935   3.138  14.863 -0.0623 -0.1604  0.3041
14774TIP3    H165813   0.972   3.211  14.912  0.0190 -0.1716  0.2587
14774TIP3    H265814   0.964   3.153  14.773 -1.6698  0.8586 -0.0889
14775TIP3   OH265815   1.840   3.889  13.669  0.1663 -0.0703 -0.0669
14775TIP3    H165816   1.920   3.936  13.645  0.7837 -0.8281  0.4482
14775TIP3    H265817   1.825   3.830  13.595  0.3944 -0.3095  0.0750
14776TIP3   OH265818   1.250   0.433   6.149 -0.5502 -0.1455  0.2624
14776TIP3    H165819   1.187   0.405   6.215 -0.1529  1.4103  1.3597
14776TIP3    H265820   1.325   0.375   6.162 -1.2510 -1.2041 -0.2404
14777TIP3   OH265821   6.273   4.450   3.723  0.4549  0.2502  0.1866
14777TIP3    H165822   6.353   4.501   3.738  0.4968  0.4451 -0.6193
14777TIP3    H265823   6.299   4.359   3.738  0.5456  0.4045  0.9938
14778TIP3   OH265824   3.874   3.069  16.973  0.2386 -0.5026 -0.2154
14778TIP3    H165825   3.801   3.130  16.957  0.9894  0.8011  1.0719
14778TIP3    H265826   3.885   3.070  17.068  0.4680 -2.4805 -0.1932
14779TIP3   OH265827   1.780   1.890   0.924  0.5182 -0.3701  0.8088
14779TIP3    H165828   1.834   1.899   0.846  0.8280  0.5231  1.1134
14779TIP3    H265829   1.823   1.946   0.989 -0.6459  0.1703  1.1250
14780TIP3   OH265830   1.342   3.533  11.639 -0.3561  0.4838 -0.0032
14780TIP3    H165831   1.392   3.492  11.569 -2.1404 -0.7408 -0.6349
14780TIP3    H265832   1.392   3.611  11.663  1.1554 -0.0029 -1.4482
14781TIP3   OH265833   1.406   6.728  17.076  0.1956  0.0864  1.0777
14781TIP3    H165834   1.417   6.660  17.142 -0.9418 -1.5835 -0.3671
14781TIP3    H265835   1.422   6.684  16.993  1.2758  2.0548  0.1612
14782TIP3   OH265836   3.845   3.793   3.304 -0.2427 -0.5015 -0.2147
14782TIP3    H165837   3.770   3.820   3.357  0.5546  0.9602  0.2256
14782TIP3    H265838   3.842   3.697   3.304 -2.9437 -0.5002 -1.4499
14783TIP3   OH265839   5.578   0.964   5.282 -0.2726 -0.2432 -0.3612
14783TIP3    H165840   5.581   0.874   5.316 -1.7498 -0.2766 -0.2326
14783TIP3    H265841   5.610   0.958   5.192  2.3518 -0.3946  0.4960
14784TIP3   OH265842   5.469   5.602   4.004  0.0947  0.5515 -0.5231
14784TIP3    H165843   5.538   5.648   3.957 -0.0907  0.5331 -0.8119
14784TIP3    H265844   5.398   5.594   3.941  0.5958 -1.2867 -0.9006
14785TIP3   OH265845   2.149   4.872  14.377  0.2340  0.0686  1.2114
14785TIP3    H165846   2.220   4.871  14.442 -0.1031  2.0402  1.6683
14785TIP3    H265847   2.073   4.903  14.425 -0.8693 -1.5848  0.6063
14786TIP3   OH265848   2.141   0.440   4.648 -0.1863 -0.3943  0.4316
14786TIP3    H165849   2.196   0.456   4.572 -1.9071  0.9995 -0.6103
14786TIP3    H265850   2.189   0.477   4.721  0.8760 -0.4838 -0.2003
14787TIP3   OH265851   6.536   4.411   5.277  0.4106 -0.5686  0.2589
14787TIP3    H165852   6.456   4.449   5.240  1.4607  0.5429 -0.9741
14787TIP3    H265853   6.512   4.385   5.365 -1.9034 -2.2585 -0.7803
14788TIP3   OH265854   6.750   5.856   0.277  0.1761  0.0047 -0.3310
14788TIP3    H165855   6.676   5.867   0.217  0.1660 -1.5927 -0.6529
14788TIP3    H265856   6.795   5.941   0.275  0.5138 -0.1376 -3.0592
14789TIP3   OH265857   4.422   4.412  16.192 -0.3751 -0.6331 -0.1601
14789TIP3    H165858   4.345   4.461  16.220  0.3160  0.4385 -0.1035
14789TIP3    H265859   4.477   4.407  16.270 -0.0872 -0.8105 -0.3731
14790TIP3   OH265860   3.395   3.514   3.551  0.3656  0.3810  0.3057
14790TIP3    H165861   3.372   3.430   3.590  1.1595  0.3093  0.6435
14790TIP3    H265862   3.327   3.530   3.486 -2.0929  1.4047  2.9177
14791TIP3   OH265863   3.657   0.509  13.430 -0.0794  0.7708 -0.0389
14791TIP3    H165864   3.745   0.547  13.430 -0.0468  0.6983  0.3012
14791TIP3    H265865   3.613   0.550  13.356  0.4164  0.4001 -0.5433
14792TIP3   OH265866   5.455   0.063   3.980 -0.0084  0.0010 -0.0226
14792TIP3    H165867   5.536   0.084   4.027  0.5152 -1.3829 -0.2371
14792TIP3    H265868   5.463   0.109   3.896  1.6302 -1.7994 -0.9563
14793TIP3   OH265869   2.520   0.880  12.742  0.3288 -0.3232  0.1207
14793TIP3    H165870   2.445   0.867  12.685  1.4627 -0.8524 -1.3058
14793TIP3    H265871   2.525   0.800  12.794  1.3162 -1.4117 -1.5352
14794TIP3   OH265872   3.248   6.215   6.082 -0.1201  0.0507  0.2498
14794TIP3    H165873   3.298   6.291   6.112 -0.8614  0.3603  0.7311
14794TIP3    H265874   3.254   6.153   6.155 -0.9448  0.3346  0.5672
14795TIP3   OH265875   4.916   0.217  15.594  0.3307  0.2867  0.0843
14795TIP3    H165876   4.941   0.207  15.502  1.3411  1.4899  0.2021
14795TIP3    H265877   4.955   0.300  15.620 -1.5141  0.8804  1.0973
14796TIP3   OH265878   0.582   3.309  11.268 -0.4548  0.4353  0.2453
14796TIP3    H165879   0.545   3.382  11.219  0.0027  0.5899  0.1241
14796TIP3    H265880   0.512   3.281  11.327 -0.6484  0.9394  0.2563
14797TIP3   OH265881   1.692   2.765   3.925 -0.0875  0.4690 -0.8601
14797TIP3    H165882   1.779   2.732   3.950 -0.2678  0.0375 -0.7939
14797TIP3    H265883   1.674   2.834   3.988 -0.3381 -0.2987 -0.0664
14798TIP3   OH265884   1.830   1.806  17.060  0.7184 -0.7700 -0.0058
14798TIP3    H165885   1.817   1.872  17.128 -1.9379 -0.3888 -0.7665
14798TIP3    H265886   1.802   1.724  17.101 -0.4946 -0.6071 -0.4875
14799TIP3   OH265887   5.451   0.217  16.195  0.1956  0.1984 -0.6532
14799TIP3    H165888   5.453   0.134  16.148 -2.0319 -0.4273  0.2071
14799TIP3    H265889   5.387   0.270  16.147 -0.4369  0.3784  0.3652
14800TIP3   OH265890   4.614   2.378  12.967  0.1008 -0.0139  0.7319
14800TIP3    H165891   4.647   2.366  13.056  0.6953  0.6912  0.6135
14800TIP3    H265892   4.568   2.462  12.969  0.4442  0.1938  0.2903
14801TIP3   OH265893   6.431   0.578  12.540  0.5728 -0.2867 -0.0395
14801TIP3    H165894   6.340   0.570  12.513  0.1162  3.0871 -0.0065
14801TIP3    H265895   6.482   0.554  12.462 -0.2373 -2.7617  0.1181
14802TIP3   OH265896   0.148   6.556   3.367 -0.1865 -0.1180 -0.0549
14802TIP3    H165897   0.243   6.565   3.361 -0.1453 -0.5173 -0.0228
14802TIP3    H265898   0.115   6.605   3.292 -0.0183  1.0612  0.6130
14803TIP3   OH265899   6.710   6.321  13.644  0.3986 -0.2249 -0.2081
14803TIP3    H165900   6.773   6.364  13.587  0.3631  0.9272  0.5909
14803TIP3    H265901   6.668   6.255  13.589  1.3623 -0.0977 -1.1058
14804TIP3   OH265902   1.448   3.081  10.718 -0.2647  0.2614  0.0593
14804TIP3    H165903   1.421   3.119  10.635 -0.3523  0.9248  0.3790
14804TIP3    H265904   1.445   2.987  10.704 -2.2541  0.3055 -0.0814
14805TIP3   OH265905   2.668   6.586  12.789 -0.9240 -0.5342  0.7305
14805TIP3    H165906   2.751   6.541  12.805 -1.4167 -2.0794 -0.6907
14805TIP3    H265907   2.602   6.527  12.826 -1.3979  0.8501  2.1711
14806TIP3   OH265908   4.883   0.559   2.020 -0.0551  0.0139 -0.4355
14806TIP3    H165909   4.885   0.555   2.115  0.5726 -2.3733 -0.4748
14806TIP3    H265910   4.935   0.636   1.998 -2.4583  2.2410  1.1187
14807TIP3   OH265911   4.464   2.405  12.284  0.1763 -0.4040 -0.3724
14807TIP3    H165912   4.435   2.480  12.337 -1.5719  1.5948 -3.7834
14807TIP3    H265913   4.546   2.435  12.244 -1.2021  0.4498 -2.8082
14808TIP3   OH265914   5.002   3.833  13.442 -0.3383 -0.2219 -0.0293
14808TIP3    H165915   4.964   3.773  13.506 -0.6476  0.5740  0.5446
14808TIP3    H265916   4.993   3.788  13.358  0.4314 -1.4522  0.5197
14809TIP3   OH265917   6.288   5.064   1.335 -0.0195  0.5352 -0.2314
14809TIP3    H165918   6.193   5.057   1.339 -0.0491  0.5799 -0.7540
14809TIP3    H265919   6.309   5.138   1.392 -0.1909 -0.1940  0.8119
14810TIP3   OH265920   0.041   0.098   0.916 -0.5369 -0.0131  0.2858
14810TIP3    H165921   0.069   0.167   0.977 -0.5717  0.6168 -0.3984
14810TIP3    H265922   0.105   0.028   0.928  0.8621  1.0526 -0.6278
14811TIP3   OH265923   1.190   0.870  11.531 -0.1475 -0.4241 -0.2893
14811TIP3    H165924   1.167   0.827  11.449  1.0632  1.4512 -1.7109
14811TIP3    H265925   1.276   0.835  11.554 -0.1955 -0.4641 -0.1683
14812TIP3   OH265926   0.009   3.547  16.110  0.0756  0.3462  0.4572
14812TIP3    H165927  -0.065   3.593  16.149 -0.3228  0.6618 -0.6385
14812TIP3    H265928  -0.030   3.490  16.044  0.6287 -1.0766  1.3243
14813TIP3   OH265929   0.147   4.609   4.820 -0.4657 -0.3833  0.2106
14813TIP3    H165930   0.115   4.698   4.805  1.0286 -0.1257 -1.7751
14813TIP3    H265931   0.241   4.619   4.834 -0.7105 -1.3562  3.5897
14814TIP3   OH265932   3.240   1.008  12.788  0.1963 -0.5632 -0.1189
14814TIP3    H165933   3.316   1.037  12.737  0.0744 -2.2101 -1.3051
14814TIP3    H265934   3.257   1.041  12.876  0.8381  1.6096 -1.0004
14815TIP3   OH265935   0.937   0.795   4.476  0.2711  0.3825 -0.0034
14815TIP3    H165936   1.031   0.794   4.462  0.5877  0.0713  1.8184
14815TIP3    H265937   0.904   0.865   4.420  1.4016 -0.2815 -1.5548
14816TIP3   OH265938   4.817   1.837  12.220 -0.3615  0.1717 -0.4172
14816TIP3    H165939   4.853   1.804  12.302  3.7276  0.9776 -1.6582
14816TIP3    H265940   4.838   1.769  12.156  1.2402  1.7028 -1.6244
14817TIP3   OH265941   5.565   5.735   0.276  0.0222  0.5860  0.6814
14817TIP3    H165942   5.576   5.830   0.279  1.9639  0.5973 -2.5051
14817TIP3    H265943   5.470   5.723   0.268 -0.1375  2.4555 -1.2415
14818TIP3   OH265944   1.120   2.143   3.182 -0.0036 -0.6639 -0.2740
14818TIP3    H165945   1.050   2.200   3.149 -0.5868 -0.0445  1.8197
14818TIP3    H265946   1.116   2.065   3.128 -1.2747  0.0296 -1.2225
14819TIP3   OH265947   1.050   2.805  12.425  0.0385 -0.0716  0.4062
14819TIP3    H165948   0.999   2.725  12.439 -1.0028  0.5147  0.0444
14819TIP3    H265949   1.005   2.850  12.354  1.3375  0.2527 -0.2443
14820TIP3   OH265950   1.163   2.375   6.332 -0.1138 -1.0115  0.0665
14820TIP3    H165951   1.069   2.390   6.327  0.1600  0.9500  0.1239
14820TIP3    H265952   1.202   2.462   6.339  1.7089 -1.7749  0.2296
14821TIP3   OH265953   0.399   4.252   4.931  0.0982 -0.1815 -0.4693
14821TIP3    H165954   0.455   4.263   5.007  0.1809 -3.5825  0.1213
14821TIP3    H265955   0.451   4.284   4.857  1.1923  0.4095  0.5323
14822TIP3   OH265956   0.104   4.443  15.028  0.1524 -0.0026 -0.2252
14822TIP3    H165957   0.168   4.513  15.016  0.5853 -0.2637  0.4932
14822TIP3    H265958   0.019   4.488  15.025  0.4007  0.4746 -0.3069
14823TIP3   OH265959   4.115   0.102   5.883  0.0608  0.1974 -0.7122
14823TIP3    H165960   4.053   0.087   5.955 -0.8127 -1.1899 -1.7024
14823TIP3    H265961   4.110   0.023   5.830  1.2752  0.8592 -1.8822
14824TIP3   OH265962   3.210   1.484  11.843 -0.0756  0.1303 -0.1083
14824TIP3    H165963   3.299   1.517  11.845 -0.7552  2.1342 -0.3593
14824TIP3    H265964   3.210   1.419  11.772  1.7122 -1.7994  1.5325
14825TIP3   OH265965   5.659   4.665  14.254 -0.0472  0.5564 -0.2355
14825TIP3    H165966   5.698   4.580  14.235  1.1663  1.0408 -0.0115
14825TIP3    H265967   5.734   4.723  14.268 -0.8470  1.7623 -0.7905
14826TIP3   OH265968   5.630   3.613  15.781 -0.0673  0.3060  0.4223
14826TIP3    H165969   5.542   3.647  15.768 -0.5034 -0.9769 -0.1077
14826TIP3    H265970   5.649   3.564  15.702  0.8234 -0.0755  0.8582
14827TIP3   OH265971   5.240   0.975  14.902 -0.2841  0.2766 -0.4869
14827TIP3    H165972   5.288   0.923  14.837 -0.1492  0.4394 -0.5193
14827TIP3    H265973   5.308   1.018  14.953 -0.3879  1.1355 -1.0435
14828TIP3   OH265974   3.920   0.121   6.078  0.2116 -0.1376 -0.4676
14828TIP3    H165975   3.856   0.192   6.073 -0.1012 -0.4884 -1.7753
14828TIP3    H265976   3.934   0.108   6.172 -0.4261  1.0157 -0.1938
14829TIP3   OH265977   3.944   0.669  13.817  0.1960  0.1359 -0.1123
14829TIP3    H165978   3.931   0.688  13.724  1.0825  3.3454  0.2825
14829TIP3    H265979   4.007   0.597  13.819  1.9249  1.4941 -2.0641
14830TIP3   OH265980   5.323   4.402  11.336  0.0410 -0.8595  0.5785
14830TIP3    H165981   5.249   4.460  11.317 -0.3390 -1.3325  0.5963
14830TIP3    H265982   5.286   4.334  11.392  0.4084 -1.3020  0.2881
14831TIP3   OH265983   0.704   4.179   3.482 -0.4664  0.6595 -0.3093
14831TIP3    H165984   0.776   4.119   3.503  0.0597  1.1237 -0.7394
14831TIP3    H265985   0.642   4.169   3.554  0.6060  1.1552  0.7116
14832TIP3   OH265986   4.325   4.817   1.726  0.0723 -0.1852 -0.1073
14832TIP3    H165987   4.392   4.790   1.788  1.2386  1.6268 -0.4842
14832TIP3    H265988   4.342   4.766   1.647 -1.0336 -2.0457  0.7794
14833TIP3   OH265989   3.521   4.771  17.245 -0.6219 -0.5770 -0.4564
14833TIP3    H165990   3.589   4.718  17.288  0.7677  1.5223  0.0865
14833TIP3    H265991   3.441   4.753  17.295  0.1138 -1.1441  0.5414
14834TIP3   OH265992   4.734   2.476  13.997 -0.0344 -0.4814 -0.2647
14834TIP3    H165993   4.826   2.493  13.977 -0.7323  1.5982 -2.0026
14834TIP3    H265994   4.703   2.555  14.041 -1.1762 -0.8764 -0.3136
14835TIP3   OH265995   5.358   4.306  13.884  0.3006 -0.5146  0.0393
14835TIP3    H165996   5.395   4.268  13.963  0.9913  0.7221  0.3434
14835TIP3    H265997   5.433   4.324  13.828 -0.0581 -0.1918 -0.3486
14836TIP3   OH265998   5.365   1.482   2.345 -0.0815  0.5850 -0.0237
14836TIP3    H165999   5.361   1.560   2.289 -1.9760  0.8327  0.3975
14836TIP3    H266000   5.449   1.490   2.390  1.3461  0.5549 -2.5264
14837TIP3   OH266001   2.736   2.277   6.215 -0.0002  0.4474 -0.1879
14837TIP3    H166002   2.762   2.364   6.246 -0.7528 -0.0566  2.0271
14837TIP3    H266003   2.784   2.216   6.271 -0.4597 -0.5623 -0.8666
14838TIP3   OH266004   6.054   0.947   1.868  0.5303  0.0658 -0.0520
14838TIP3    H166005   6.025   0.964   1.958 -1.7190  0.7381 -0.8335
14838TIP3    H266006   6.077   0.854   1.868 -0.9347 -0.3278  0.8817
14839TIP3   OH266007   2.729   0.322  13.680  0.1527 -0.4209  0.3426
14839TIP3    H166008   2.740   0.278  13.764 -0.6184 -0.4224  0.4512
14839TIP3    H266009   2.656   0.383  13.694  1.5904  1.3724  0.3829
14840TIP3   OH266010   6.697   0.764   6.105 -0.3084 -0.0704  0.3923
14840TIP3    H166011   6.676   0.855   6.085 -2.9441 -0.0551  2.6478
14840TIP3    H266012   6.768   0.769   6.168  1.8660  0.1793 -1.9126
14841TIP3   OH266013   1.852   6.668   0.381  0.4807 -0.2294  0.0067
14841TIP3    H166014   1.827   6.637   0.294  0.8382  0.2508 -0.2731
14841TIP3    H266015   1.786   6.733   0.404  2.5834  2.8031 -1.7354
14842TIP3   OH266016   4.038   5.697  12.425 -0.0423  0.2110  0.0793
14842TIP3    H166017   4.108   5.662  12.370 -0.5449 -1.2372  0.3176
14842TIP3    H266018   3.990   5.756  12.367 -0.1665 -0.7821 -0.8729
14843TIP3   OH266019   3.842   5.462  14.928 -0.5516  0.0560 -0.1330
14843TIP3    H166020   3.929   5.422  14.928 -0.5676 -0.0331 -1.6883
14843TIP3    H266021   3.834   5.502  15.015  1.7844  1.6356 -0.5434
14844TIP3   OH266022   2.117   0.564  14.322  0.2585 -0.4291  0.6264
14844TIP3    H166023   2.090   0.499  14.388 -0.3529  0.3002  1.1101
14844TIP3    H266024   2.045   0.565  14.259  0.9063 -1.2254 -0.1412
14845TIP3   OH266025   1.778   0.821  12.629  0.0496 -0.5087 -0.1202
14845TIP3    H166026   1.712   0.794  12.565 -0.9484 -0.9570  1.0348
14845TIP3    H266027   1.769   0.916  12.634  1.7141 -0.1777 -2.2536
14846TIP3   OH266028   1.811   3.625  16.238 -0.5868 -0.5827  0.7625
14846TIP3    H166029   1.816   3.568  16.161  0.9575  0.3815  0.0918
14846TIP3    H266030   1.882   3.689  16.225  0.6862 -1.2478  3.6828
14847TIP3   OH266031   1.205   1.966   0.024  0.0586  0.1378  0.0774
14847TIP3    H166032   1.261   1.895  -0.008  0.7694  1.1487 -0.9932
14847TIP3    H266033   1.251   2.046  -0.002 -1.0268  0.9974  0.7343
14848TIP3   OH266034   5.472   6.624   2.510 -0.3178  0.3803 -0.1529
14848TIP3    H166035   5.405   6.562   2.540 -0.2511 -1.0816 -2.7679
14848TIP3    H266036   5.426   6.708   2.503 -1.4052 -0.2013 -0.1819
14849TIP3   OH266037   5.857   5.828  15.552  0.0791  0.2628 -0.1852
14849TIP3    H166038   5.931   5.856  15.498  1.1145 -1.8570  0.0223
14849TIP3    H266039   5.781   5.839  15.495  0.4935  2.6061 -0.3567
14850TIP3   OH266040   3.773   2.732   1.848  0.3282 -0.6868  0.4572
14850TIP3    H166041   3.827   2.653   1.852 -1.2124 -1.7310  1.5656
14850TIP3    H266042   3.820   2.796   1.902  1.2023 -1.0556  0.1643
14851TIP3   OH266043   3.946   4.113  14.051  0.7604 -0.1485  0.0935
14851TIP3    H166044   3.856   4.122  14.019  0.7688 -0.0528  0.0959
14851TIP3    H266045   3.948   4.027  14.092  0.8361 -0.3997 -0.4333
14852TIP3   OH266046   2.869   4.296   6.276  0.2085 -0.8297 -0.1809
14852TIP3    H166047   2.838   4.274   6.364 -2.2832  0.8234 -0.5433
14852TIP3    H266048   2.809   4.365   6.247  1.7158 -0.5023 -2.7235
14853TIP3   OH266049   2.675   5.743   0.076  0.0036  0.5144  0.0259
14853TIP3    H166050   2.750   5.775   0.127  0.3269 -0.9395  0.5040
14853TIP3    H266051   2.621   5.696   0.139 -0.5924  0.3551 -0.5983
14854TIP3   OH266052   1.423   1.303   4.844 -0.2927 -0.0518 -0.1681
14854TIP3    H166053   1.359   1.264   4.904 -1.8590  1.2715 -0.8937
14854TIP3    H266054   1.473   1.228   4.812  1.0289 -0.7632  3.1422
14855TIP3   OH266055   1.611   3.786  12.771  0.3433 -0.2252 -0.4484
14855TIP3    H166056   1.610   3.873  12.732  0.0877  0.1403  0.3637
14855TIP3    H266057   1.700   3.775  12.805 -0.1039  0.4259  0.9912
14856TIP3   OH266058   0.758   6.763  16.652  0.2652  0.9949 -0.4024
14856TIP3    H166059   0.749   6.766  16.747 -0.4481 -0.9198 -0.3672
14856TIP3    H266060   0.824   6.829  16.632  1.0279  0.8656  1.5063
14857TIP3   OH266061   3.013   0.165   2.792 -0.2372 -0.7092  0.2312
14857TIP3    H166062   2.995   0.101   2.723  2.2454 -0.2184 -1.0031
14857TIP3    H266063   2.990   0.250   2.753 -2.6966 -0.6691  1.5521
14858TIP3   OH266064   1.043   1.205   1.444 -0.1246  0.3800  0.2862
14858TIP3    H166065   1.038   1.167   1.356  0.3511  0.1548  0.3544
14858TIP3    H266066   0.953   1.200   1.477 -0.5016  1.3219 -0.5401
14859TIP3   OH266067   6.283   2.177  11.070 -0.2976 -0.1823 -0.6876
14859TIP3    H166068   6.296   2.145  10.980 -4.8947 -1.0371 -1.2668
14859TIP3    H266069   6.263   2.098  11.120  2.8295  0.1995  1.4212
14860TIP3   OH266070   0.763   1.359  15.209 -0.0371  0.5966 -0.5944
14860TIP3    H166071   0.810   1.377  15.128  0.0126  0.0055 -0.7024
14860TIP3    H266072   0.831   1.335  15.271 -0.3080 -2.4873 -1.3496
14861TIP3   OH266073   2.341   1.707   1.816 -0.0623 -0.0156  0.3183
14861TIP3    H166074   2.393   1.628   1.828  0.7947  0.5807  0.6597
14861TIP3    H266075   2.398   1.778   1.847  0.1724  1.0226 -2.2761
14862TIP3   OH266076   2.316   3.381   2.782  0.8228 -0.1041  0.1120
14862TIP3    H166077   2.319   3.287   2.799 -0.6708 -0.2612 -0.4002
14862TIP3    H266078   2.359   3.420   2.857  0.9477 -1.1643  0.6137
14863TIP3   OH266079   5.632   6.616   4.688 -0.0329  0.0193  0.0698
14863TIP3    H166080   5.727   6.604   4.692  0.1600 -0.9939 -3.4226
14863TIP3    H266081   5.597   6.528   4.704 -0.3068  0.1465  0.1685
14864TIP3   OH266082   0.541   5.186  12.520  0.0194  0.0241  0.0607
14864TIP3    H166083   0.599   5.196  12.596 -1.4596 -1.7412  1.5336
14864TIP3    H266084   0.453   5.198  12.556 -0.7793 -1.7726 -1.1708
14865TIP3   OH266085   2.267   6.157   4.106 -0.0842 -0.3915  0.2206
14865TIP3    H166086   2.354   6.191   4.085 -0.7514  3.6796  2.7115
14865TIP3    H266087   2.284   6.074   4.150  2.5105 -0.0319  0.0938
14866TIP3   OH266088   2.094   2.181   4.755 -0.0817 -0.1745 -0.3456
14866TIP3    H166089   2.110   2.140   4.840 -0.3777 -1.0919 -0.7231
14866TIP3    H266090   2.107   2.111   4.691 -0.4177  0.3657 -1.0210
14867TIP3   OH266091   4.416   5.521   5.989  0.5258  0.4671 -0.4166
14867TIP3    H166092   4.332   5.562   6.009  0.2860  0.2891 -1.0402
14867TIP3    H266093   4.462   5.519   6.073 -0.7429 -0.9446  0.2874
14868TIP3   OH266094   4.653   0.036  13.008 -0.1297  0.0401  0.2293
14868TIP3    H166095   4.646   0.131  12.998 -0.8537 -0.0377 -0.0821
14868TIP3    H266096   4.744   0.016  12.985 -0.4476  0.4446 -1.5694
14869TIP3   OH266097   2.345   0.999  16.611  0.5043 -0.1377  0.9979
14869TIP3    H166098   2.372   0.934  16.547  0.5597  1.4668 -0.6816
14869TIP3    H266099   2.284   1.056  16.564  0.4772  1.0551  2.3962
14870TIP3   OH266100   4.414   4.405  10.797  0.2259  0.4708  0.3422
14870TIP3    H166101   4.349   4.335  10.789 -0.3199  0.8430  1.2610
14870TIP3    H266102   4.495   4.361  10.822  0.7021 -0.1402 -2.0286
14871TIP3   OH266103   2.652   0.442  17.285 -0.0812 -0.1151 -0.1821
14871TIP3    H166104   2.641   0.365  17.230 -0.7764  0.2435 -0.5544
14871TIP3    H266105   2.674   0.407  17.371  0.9414 -0.6833 -0.6504
14872TIP3   OH266106   4.360   4.316  16.503  0.1198 -0.2740  0.0309
14872TIP3    H166107   4.432   4.256  16.522  0.4511  0.1706  0.1827
14872TIP3    H266108   4.397   4.381  16.444 -0.0042  0.2629  0.5331
14873TIP3   OH266109   4.482   1.932   5.084 -0.0914  0.0624  0.6559
14873TIP3    H166110   4.482   2.013   5.135  3.5817  0.3354  0.4779
14873TIP3    H266111   4.473   1.961   4.993 -0.4543  0.1323  0.7144
14874TIP3   OH266112   1.586   0.942  16.173  0.2791 -0.4397  0.1497
14874TIP3    H166113   1.671   0.924  16.131  0.3405  0.7516 -0.2771
14874TIP3    H266114   1.598   0.912  16.263  1.4860  0.5338  0.3498
14875TIP3   OH266115   1.363   4.773   4.990  0.1364  0.7377 -0.4951
14875TIP3    H166116   1.404   4.846   5.036 -0.9593  0.2374  1.3575
14875TIP3    H266117   1.427   4.702   4.996 -0.0901  0.6084  0.4883
14876TIP3   OH266118   4.350   0.814  11.878  0.5889 -0.0933  0.8395
14876TIP3    H166119   4.336   0.720  11.870  0.0196  0.0107  0.5322
14876TIP3    H266120   4.441   0.823  11.905  0.6573 -0.7303  0.8265
14877TIP3   OH266121   3.578   0.109   3.452 -0.1373 -0.1269  0.2426
14877TIP3    H166122   3.654   0.108   3.511  0.6329  1.6546 -0.6353
14877TIP3    H266123   3.511   0.058   3.498  1.6876 -2.1118  0.8702
14878TIP3   OH266124   1.716   0.817   3.526 -0.0648  0.1427  0.2158
14878TIP3    H166125   1.786   0.864   3.570  0.7004 -1.6125  0.9804
14878TIP3    H266126   1.740   0.724   3.534 -1.1565 -0.3915 -1.7688
14879TIP3   OH266127   0.073   3.590  14.326  0.4975  0.1923  0.6148
14879TIP3    H166128   0.121   3.646  14.265  1.2811 -0.8174  0.2864
14879TIP3    H266129   0.082   3.634  14.411 -1.7036  2.3184 -0.1359
14880TIP3   OH266130   4.928   2.997  13.248 -0.1314 -0.5349 -0.5697
14880TIP3    H166131   4.909   2.912  13.209 -0.2199 -1.0664  0.5900
14880TIP3    H266132   4.957   2.977  13.337 -0.6985  0.6860 -0.0818
14881TIP3   OH266133   2.057   1.210   3.669 -0.0091 -0.1888 -0.1311
14881TIP3    H166134   2.058   1.257   3.752 -0.3028  0.1425 -0.3094
14881TIP3    H266135   2.019   1.272   3.607  0.2897 -0.3985 -0.5328
14882TIP3   OH266136   1.502   0.292  15.035  0.6945 -0.6598  0.3426
14882TIP3    H166137   1.454   0.374  15.020  1.6388 -0.2914 -0.8536
14882TIP3    H266138   1.458   0.252  15.110 -0.1384  0.6761  0.6121
14883TIP3   OH266139   0.440   2.751  16.458 -0.0748  0.0047 -0.5488
14883TIP3    H166140   0.500   2.680  16.483 -0.2991  0.0753  0.2258
14883TIP3    H266141   0.484   2.794  16.385  1.2329  0.5607  0.5152
14884TIP3   OH266142   3.326   2.455   0.475 -0.7382  0.8231 -0.7256
14884TIP3    H166143   3.371   2.532   0.510 -0.4848  1.0751 -1.5639
14884TIP3    H266144   3.387   2.420   0.409 -0.3967 -0.7064  0.3560
14885TIP3   OH266145   3.007   4.596  11.335 -0.4650  0.5646  0.2509
14885TIP3    H166146   3.022   4.690  11.320  2.8202 -0.0869 -1.5619
14885TIP3    H266147   3.092   4.564  11.366 -1.4013 -1.8988  0.4392
14886TIP3   OH266148   5.456   2.875   2.712 -0.4234  0.5720 -0.1768
14886TIP3    H166149   5.510   2.950   2.738 -1.0877  0.3941  1.9111
14886TIP3    H266150   5.386   2.914   2.660  0.3656  1.1041 -0.8796
14887TIP3   OH266151   4.267   3.523   0.952 -0.7159  0.5334 -0.1726
14887TIP3    H166152   4.353   3.562   0.937 -1.1544  1.1200 -1.3416
14887TIP3    H266153   4.238   3.559   1.036 -0.9190  2.4568 -1.0030
14888TIP3   OH266154   0.094   6.744   2.476 -0.0131 -0.1909 -0.0457
14888TIP3    H166155   0.011   6.718   2.436 -0.4853  0.9091  0.1854
14888TIP3    H266156   0.072   6.819   2.531  1.4674  1.4182 -1.5276
14889TIP3   OH266157   2.564   1.960   2.440 -0.3757  0.1488  0.3212
14889TIP3    H166158   2.482   2.009   2.431 -0.5671 -0.4502 -1.4561
14889TIP3    H266159   2.538   1.869   2.428  0.6170 -0.0084 -0.7329
14890TIP3   OH266160   5.396   5.036  11.525  0.1870 -0.0279  0.7395
14890TIP3    H166161   5.321   4.994  11.566  0.0144  1.3887  1.9637
14890TIP3    H266162   5.434   4.969  11.469 -0.2577 -1.6776  2.3385
14891TIP3   OH266163   2.065   0.182   4.690 -0.1206  0.2304  0.1121
14891TIP3    H166164   2.089   0.269   4.722  3.1865 -0.1349 -1.0130
14891TIP3    H266165   2.094   0.122   4.760  0.6562 -0.1144 -0.4821
14892TIP3   OH266166   6.441   5.268   5.836 -0.4237 -0.1095  0.0428
14892TIP3    H166167   6.405   5.271   5.925 -0.7300  1.6578 -0.1034
14892TIP3    H266168   6.384   5.326   5.785 -0.3737 -1.2426 -1.3689
14893TIP3   OH266169   4.859   0.366  15.114  0.0518  0.1474 -0.2231
14893TIP3    H166170   4.895   0.454  15.122  0.9596 -0.1301 -1.1001
14893TIP3    H266171   4.881   0.323  15.197  2.7446 -0.3438 -1.1061
14894TIP3   OH266172   3.320   0.452   0.605 -0.2306 -0.1656  0.6486
14894TIP3    H166173   3.347   0.485   0.519 -0.2087 -0.2017  0.6413
14894TIP3    H266174   3.318   0.357   0.594 -0.6460 -0.1515  0.5650
14895TIP3   OH266175   2.158   1.743   3.216 -0.0091 -0.3327  0.0572
14895TIP3    H166176   2.173   1.829   3.175 -2.4451 -0.8271 -2.1916
14895TIP3    H266177   2.143   1.684   3.142 -0.0181 -2.3784  1.6066
14896TIP3   OH266178   6.343   0.933   1.605  0.2389 -0.5006  0.7715
14896TIP3    H166179   6.390   0.995   1.550  1.1044 -0.4493  1.5523
14896TIP3    H266180   6.253   0.936   1.573  0.0049  1.9198  1.4472
14897TIP3   OH266181   1.659   6.675  15.472 -0.4124  0.2681 -0.4731
14897TIP3    H166182   1.689   6.615  15.404  1.0084  0.3038  0.0791
14897TIP3    H266183   1.722   6.747  15.469  0.9082 -0.6336  2.1276
14898TIP3   OH266184   2.627   1.785   0.767 -0.2076  0.5845  0.4001
14898TIP3    H166185   2.600   1.773   0.858  0.0140  3.1437  0.8893
14898TIP3    H266186   2.557   1.837   0.728 -0.1854 -0.2801 -0.8561
14899TIP3   OH266187   3.689   5.584  13.779 -0.0066 -0.2953  0.0673
14899TIP3    H166188   3.698   5.625  13.693 -0.5966 -1.1543 -0.4112
14899TIP3    H266189   3.595   5.573  13.791  0.1457 -2.0454 -0.0900
14900TIP3   OH266190   2.978   1.693  15.621  0.0775 -0.7523 -0.5244
14900TIP3    H166191   2.970   1.663  15.530  1.0586  2.9143 -1.9637
14900TIP3    H266192   3.055   1.749  15.622 -0.7102  0.4467  2.2628
14901TIP3   OH266193   0.912   4.794  16.431 -0.3711 -0.3060  0.1660
14901TIP3    H166194   0.855   4.822  16.360 -1.6237 -1.1065  0.8235
14901TIP3    H266195   0.866   4.721  16.472 -0.1895  0.7668  2.4521
14902TIP3   OH266196   2.473   6.135  11.894  0.4608 -0.2042 -0.6047
14902TIP3    H166197   2.407   6.091  11.948  1.1116 -0.1118  0.2967
14902TIP3    H266198   2.475   6.085  11.812 -1.2039  0.2071 -0.9295
14903TIP3   OH266199   2.975   1.734  11.637  0.8627  0.0392  0.6019
14903TIP3    H166200   2.986   1.674  11.563  0.7980 -0.3934  0.9396
14903TIP3    H266201   3.041   1.802  11.623  1.8923 -0.8705  0.9597
14904TIP3   OH266202   0.377   0.954   2.261  0.2744 -0.4608 -0.1722
14904TIP3    H166203   0.420   0.882   2.215  1.8043 -0.2371  0.8478
14904TIP3    H266204   0.386   1.029   2.202 -1.0655 -0.9987 -1.1074
14905TIP3   OH266205   4.928   3.318   0.403  0.2309 -0.5460  0.2249
14905TIP3    H166206   4.885   3.262   0.338 -1.7365  1.9899 -0.8309
14905TIP3    H266207   4.898   3.284   0.487 -0.8201 -1.1919 -0.3839
14906TIP3   OH266208   0.337   5.685  15.624 -0.0622 -0.3700 -0.3189
14906TIP3    H166209   0.308   5.771  15.593  2.3742  0.7367  0.2300
14906TIP3    H266210   0.423   5.673  15.583  0.4496 -1.7111  1.0639
14907TIP3   OH266211   6.155   5.386   0.684  0.0389 -0.0039 -0.6273
14907TIP3    H166212   6.170   5.405   0.592  0.4407 -0.4483 -0.6585
14907TIP3    H266213   6.189   5.298   0.696 -1.5570 -0.6309 -0.4305
14908TIP3   OH266214   6.549   3.476  12.614  0.1483 -0.1033 -0.9242
14908TIP3    H166215   6.499   3.396  12.630  0.9658 -0.3997  0.3013
14908TIP3    H266216   6.624   3.448  12.562  1.5636 -0.5927  1.2307
14909TIP3   OH266217   1.738   0.645   5.039  0.3042 -0.4249 -0.2727
14909TIP3    H166218   1.758   0.616   5.128 -0.8392  0.5542  0.3215
14909TIP3    H266219   1.707   0.735   5.048  2.3870  0.5708 -1.9175
14910TIP3   OH266220   6.346   3.730  15.909 -0.4868 -0.1855 -0.4007
14910TIP3    H166221   6.431   3.755  15.874 -0.8192 -1.0456 -1.8912
14910TIP3    H266222   6.356   3.637  15.932 -1.8820 -1.3188 -3.7321
14911TIP3   OH266223   5.493   3.710   3.395 -0.0890  0.3449 -0.6090
14911TIP3    H166224   5.550   3.646   3.437 -1.1438 -0.9245 -1.0613
14911TIP3    H266225   5.405   3.672   3.402 -0.6799  1.5400 -1.2765
14912TIP3   OH266226   3.935   1.126   3.948 -0.4744  0.1902  0.5340
14912TIP3    H166227   4.011   1.082   3.909 -1.3235  0.3914 -1.4912
14912TIP3    H266228   3.959   1.138   4.040  1.9078  0.1658 -0.0030
14913TIP3   OH266229   0.010   5.871  15.228  0.0317  0.0338  0.5195
14913TIP3    H166230  -0.012   5.951  15.181  1.1160  0.7634  1.2055
14913TIP3    H266231  -0.072   5.823  15.233 -0.0620 -0.3304 -2.5292
14914TIP3   OH266232   0.507   2.698   4.633  0.8013  0.1283 -0.3105
14914TIP3    H166233   0.447   2.715   4.561  1.1097 -3.2919 -1.6125
14914TIP3    H266234   0.591   2.678   4.590  1.1657 -1.3745  0.9820
14915TIP3   OH266235   4.883   3.971   4.728  0.5525  0.6045 -0.0787
14915TIP3    H166236   4.844   4.053   4.759  0.6860  0.4198  0.5982
14915TIP3    H266237   4.813   3.907   4.734  0.9283  0.2663  1.1653
14916TIP3   OH266238   2.187   3.550   1.791 -0.0941  0.0179  0.1475
14916TIP3    H166239   2.158   3.640   1.785 -1.8401 -0.4313  1.1434
14916TIP3    H266240   2.186   3.518   1.701  1.3575  1.1781 -0.3279
14917TIP3   OH266241   0.200   1.101  14.918 -0.1524  0.7104  0.2806
14917TIP3    H166242   0.115   1.130  14.951 -0.7580 -1.0925  0.4143
14917TIP3    H266243   0.254   1.091  14.996 -0.2174  0.6406  0.3172
14918TIP3   OH266244   0.844   6.733   2.334 -0.1191  0.4040  0.1141
14918TIP3    H166245   0.769   6.679   2.310  0.5730  0.1481 -1.6684
14918TIP3    H266246   0.814   6.785   2.408 -1.2775 -1.3635  0.9597
14919TIP3   OH266247   1.905   1.807   4.727 -0.4435  0.0426 -0.2022
14919TIP3    H166248   1.856   1.888   4.737  0.9037  0.7158  1.7355
14919TIP3    H266249   1.849   1.739   4.765 -0.2706  0.6774  1.2859
14920TIP3   OH266250   2.966   5.976   1.597 -0.3053  0.2348  0.1860
14920TIP3    H166251   3.020   6.044   1.638  1.2962 -0.1684 -1.1607
14920TIP3    H266252   3.020   5.897   1.600 -1.5698 -0.6581  0.4296
14921TIP3   OH266253   6.610   3.029  13.233 -0.2079 -0.5203  0.1355
14921TIP3    H166254   6.594   2.935  13.229  0.2211 -0.7998  2.8106
14921TIP3    H266255   6.699   3.036  13.267 -0.2601  0.8574  0.0374
14922TIP3   OH266256   0.587   6.645  12.811 -0.2419  0.4605  0.2378
14922TIP3    H166257   0.549   6.577  12.866 -1.3976  0.7803 -0.1142
14922TIP3    H266258   0.676   6.657  12.843 -0.4381 -0.3446  1.0981
14923TIP3   OH266259   2.927   0.720  14.647  0.3795  0.5846  0.0295
14923TIP3    H166260   2.839   0.741  14.618  0.8427  0.0711 -1.9078
14923TIP3    H266261   2.933   0.756  14.736 -2.3457 -1.0009  0.9404
14924TIP3   OH266262   2.149   3.864  15.093  0.2283  0.1026  0.0587
14924TIP3    H166263   2.219   3.922  15.064 -0.8848  1.7259  0.4640
14924TIP3    H266264   2.070   3.899  15.051 -0.4978 -1.0891  0.3742
14925TIP3   OH266265   6.026   4.064  14.154  0.2096 -0.1870  0.6350
14925TIP3    H166266   6.040   4.157  14.134  1.4369 -0.3580  0.6206
14925TIP3    H266267   6.099   4.041  14.212  1.3307 -1.7425 -1.2731
14926TIP3   OH266268   3.635   3.054   1.341  0.2380  0.2654  0.2042
14926TIP3    H166269   3.650   2.982   1.280 -0.6148 -0.3543  0.7051
14926TIP3    H266270   3.713   3.054   1.397  0.3857 -0.0712  0.0044
14927TIP3   OH266271   1.876   3.931  15.021  0.6665 -0.3949  0.2870
14927TIP3    H166272   1.816   3.889  15.083  0.3804  1.3442  1.2675
14927TIP3    H266273   1.879   4.022  15.049 -1.2127  1.0758 -3.5979
14928TIP3   OH266274   5.343   0.162  13.613  0.3428  0.0646  0.1192
14928TIP3    H166275   5.314   0.240  13.564 -2.5488 -0.6285  0.5461
14928TIP3    H266276   5.281   0.155  13.686  2.7542 -0.6219  2.2331
14929TIP3   OH266277   5.680   2.684   2.020  0.2829  0.4737  0.0636
14929TIP3    H166278   5.746   2.658   1.957  0.5615  1.8509 -0.2349
14929TIP3    H266279   5.709   2.645   2.103  0.5623 -0.3118 -0.3914
14930TIP3   OH266280   2.368   0.701   6.135  0.1881 -0.6816  0.5336
14930TIP3    H166281   2.453   0.656   6.145  0.2564 -0.5292  0.6367
14930TIP3    H266282   2.391   0.790   6.110  0.0711 -0.5229  0.9741
14931TIP3   OH266283   4.737   1.141   0.818 -0.7190  0.0066  0.3716
14931TIP3    H166284   4.712   1.049   0.806 -1.3471  0.3193 -0.8524
14931TIP3    H266285   4.764   1.147   0.909 -0.6410 -1.4037  0.4599
14932TIP3   OH266286   1.842   5.368  15.417  0.5360  0.2456  0.3233
14932TIP3    H166287   1.820   5.402  15.504  1.6498 -3.0549  2.0637
14932TIP3    H266288   1.784   5.292  15.406  1.6212 -0.4248 -1.0318
14933TIP3   OH266289   0.806   4.672  14.932  0.5857 -0.0102 -0.4666
14933TIP3    H166290   0.899   4.692  14.926  0.5844  0.0796 -0.1535
14933TIP3    H266291   0.802   4.576  14.930  0.6162 -0.0076 -1.5345
14934TIP3   OH266292   5.901   5.824  14.472  0.5312 -0.7691  0.3732
14934TIP3    H166293   5.946   5.741  14.488  0.9588 -0.6791 -0.3047
14934TIP3    H266294   5.877   5.821  14.379  0.5883 -0.1198  0.3306
14935TIP3   OH266295   1.662   3.462   1.782 -0.6789 -0.6273  0.2937
14935TIP3    H166296   1.753   3.450   1.810  0.0377  0.8612 -1.2428
14935TIP3    H266297   1.653   3.408   1.704 -0.9075 -0.2397  0.0497
14936TIP3   OH266298   1.306   3.673   2.030 -0.3911 -0.4881  0.2175
14936TIP3    H166299   1.220   3.645   2.062 -0.2796 -0.0103  0.9750
14936TIP3    H266300   1.334   3.602   1.973 -0.1910 -1.8650  1.9355
14937TIP3   OH266301   0.051   2.316  13.064  0.6389  0.1880  0.3597
14937TIP3    H166302  -0.027   2.283  13.108 -0.0710 -0.6926 -1.4478
14937TIP3    H266303   0.119   2.317  13.132 -0.3681 -1.1963  1.4333
14938TIP3   OH266304   1.516   3.235  11.102 -0.0872 -0.3205  0.0161
14938TIP3    H166305   1.469   3.316  11.087  0.8397  0.1836 -0.2696
14938TIP3    H266306   1.524   3.229  11.197 -0.7373 -0.4217  0.0659
14939TIP3   OH266307   5.049   0.757  12.840 -0.5567 -0.1220  0.3124
14939TIP3    H166308   5.096   0.827  12.794 -1.7952 -0.9990 -2.4676
14939TIP3    H266309   5.050   0.785  12.932  0.2803  2.7802 -0.4677
14940TIP3   OH266310   2.905   0.809  12.409  0.3164  0.8446 -0.3353
14940TIP3    H166311   2.847   0.872  12.365  0.9778  0.7273 -1.3966
14940TIP3    H266312   2.988   0.855  12.418  0.6167  0.3472 -0.5374
14941TIP3   OH266313   4.883   0.944   0.987  0.0503 -0.1502 -0.4484
14941TIP3    H166314   4.916   0.854   0.987  0.3160 -0.0538 -0.1866
14941TIP3    H266315   4.946   0.992   1.040 -1.0868 -0.1906  0.9997
14942TIP3   OH266316   2.205   1.522  12.646 -0.1477  0.2325 -0.2633
14942TIP3    H166317   2.191   1.506  12.739  0.2560  2.0364  0.1427
14942TIP3    H266318   2.300   1.513  12.633  0.0968  2.0649 -0.0197
14943TIP3   OH266319   4.713   6.460  12.341 -0.3085  0.2552 -0.1340
14943TIP3    H166320   4.741   6.369  12.349  0.9622  0.4011 -2.3235
14943TIP3    H266321   4.729   6.497  12.428 -0.8624 -1.5710  0.8132
14944TIP3   OH266322   6.555   4.403  14.877  0.3193  0.0883 -0.0184
14944TIP3    H166323   6.583   4.442  14.794  1.2705 -1.9259 -0.6947
14944TIP3    H266324   6.571   4.472  14.941  0.6171  1.3090 -1.3403
14945TIP3   OH266325   0.485   5.286   0.681 -0.4782 -0.6598 -0.7856
14945TIP3    H166326   0.457   5.370   0.719  0.0189 -0.6130 -0.5183
14945TIP3    H266327   0.403   5.246   0.649 -1.4858 -2.1477  3.1203
14946TIP3   OH266328   2.302   2.854  15.707 -0.0072  0.1407  0.1427
14946TIP3    H166329   2.248   2.908  15.764 -0.2022  0.0079  0.0851
14946TIP3    H266330   2.257   2.770  15.704  0.8484 -0.3724  1.0884
14947TIP3   OH266331   0.466   0.224   3.712 -0.0229 -0.0445  0.0448
14947TIP3    H166332   0.428   0.300   3.668  1.5704  0.6061 -0.2558
14947TIP3    H266333   0.430   0.227   3.800  1.2528  2.0354  0.5553
14948TIP3   OH266334   5.492   5.152  13.982 -0.2175  0.1833  0.2374
14948TIP3    H166335   5.577   5.119  14.009 -0.3796  0.7198  1.4487
14948TIP3    H266336   5.506   5.183  13.892  0.6665 -0.4110  0.1626
14949TIP3   OH266337   4.740   1.820   3.739 -0.0201 -0.6611 -0.3891
14949TIP3    H166338   4.654   1.818   3.697  0.1459 -2.3935 -0.7267
14949TIP3    H266339   4.730   1.765   3.817  0.2154  0.9151  0.7955
14950TIP3   OH266340   4.195   4.057  11.885 -0.2796 -0.1222  0.3911
14950TIP3    H166341   4.159   4.142  11.912 -1.0561 -0.7508  1.4585
14950TIP3    H266342   4.121   4.013  11.844 -0.0226 -0.4761  0.3098
14951TIP3   OH266343   0.430   5.717   4.862  0.6522 -0.2463  0.6126
14951TIP3    H166344   0.452   5.731   4.954 -0.5148 -0.1595  0.8956
14951TIP3    H266345   0.413   5.622   4.856  0.8134 -0.2668  0.4668
14952TIP3   OH266346   3.133   5.063  13.663  0.1520 -0.0098  0.7285
14952TIP3    H166347   3.225   5.037  13.668  0.5436  0.2212 -2.8907
14952TIP3    H266348   3.094   5.002  13.600 -1.7786  0.8960  0.9796
14953TIP3   OH266349   4.147   4.981  11.927  0.1325  0.4573 -0.2434
14953TIP3    H166350   4.233   5.014  11.902 -0.4975  1.1872 -1.5645
14953TIP3    H266351   4.102   4.964  11.844 -0.7404 -0.6288  0.4167
14954TIP3   OH266352   6.585   5.399   5.168  0.0173  0.0935  0.0978
14954TIP3    H166353   6.625   5.314   5.150  0.1279  0.1782 -0.0671
14954TIP3    H266354   6.651   5.446   5.219 -0.2683 -0.1207  0.6718
14955TIP3   OH266355   1.016   1.653   0.359  0.4310 -0.4018  0.0437
14955TIP3    H166356   1.019   1.577   0.300  4.2680 -0.8641  0.5828
14955TIP3    H266357   1.032   1.728   0.302  0.7835 -0.4764  0.0414
14956TIP3   OH266358   3.988   2.129  16.265 -0.2295  0.1848 -0.0884
14956TIP3    H166359   4.026   2.079  16.192 -1.6906 -1.7928  0.4169
14956TIP3    H266360   4.014   2.081  16.343  0.7087  1.8760  0.6777
14957TIP3   OH266361   6.585   3.657  16.227  0.3987  0.1534  0.3024
14957TIP3    H166362   6.524   3.683  16.296 -0.1936 -1.6145  0.4877
14957TIP3    H266363   6.543   3.687  16.146  0.3147  0.7780  0.5664
14958TIP3   OH266364   2.670   5.846  13.974 -0.4065  0.6493 -0.1335
14958TIP3    H166365   2.601   5.816  13.915  0.6367  0.2030 -1.1499
14958TIP3    H266366   2.751   5.835  13.925  0.4356  0.8660  1.1519
14959TIP3   OH266367   1.942   0.460  14.889  0.8947 -0.4043 -0.4558
14959TIP3    H166368   1.865   0.470  14.833 -0.1244 -2.4945  0.4619
14959TIP3    H266369   2.012   0.506  14.842 -0.3651 -0.4056 -2.4552
14960TIP3   OH266370   5.754   0.456   5.148  0.3170  0.7593 -0.4129
14960TIP3    H166371   5.669   0.466   5.105  1.5043  3.2666 -2.4998
14960TIP3    H266372   5.791   0.377   5.109 -1.1276 -0.6177  0.8403
14961TIP3   OH266373   3.188   5.296   5.113  0.3744 -0.3112  0.1941
14961TIP3    H166374   3.194   5.215   5.163 -1.1091  1.3055  3.2273
14961TIP3    H266375   3.277   5.311   5.081  0.6340 -3.1912 -0.7351
14962TIP3   OH266376   5.066   1.595  12.617 -0.4339  0.9076 -0.4681
14962TIP3    H166377   5.144   1.646  12.641 -0.3266  1.7757 -2.4359
14962TIP3    H266378   5.011   1.596  12.695  0.9131  1.4770  0.5049
14963TIP3   OH266379   1.935   6.447   3.020 -0.6085  0.2343 -0.2427
14963TIP3    H166380   1.958   6.390   3.093 -0.5872  0.4707 -0.0655
14963TIP3    H266381   1.907   6.386   2.951 -1.6032  0.0548  0.3044
14964TIP3   OH266382   0.475   4.833   7.218 -0.8369 -0.2077 -0.2586
14964TIP3    H166383   0.550   4.783   7.183 -1.4849 -1.8151  0.5581
14964TIP3    H266384   0.422   4.853   7.141 -0.8128 -1.2235 -0.5527
14965TIP3   OH266385   4.873   1.248  15.040 -0.1390 -0.0872  0.2735
14965TIP3    H166386   4.948   1.261  14.982 -0.3747  0.6879  0.1253
14965TIP3    H266387   4.857   1.335  15.078  0.3230 -0.6872  1.9038
14966TIP3   OH266388   6.686   2.189  13.238 -0.1360 -0.6248  0.4989
14966TIP3    H166389   6.713   2.103  13.272 -0.6501 -0.7214  0.6808
14966TIP3    H266390   6.641   2.230  13.311  0.6827  0.0780  0.6153
14967TIP3   OH266391   6.278   4.274   4.688  0.4610 -0.0624  0.2630
14967TIP3    H166392   6.336   4.199   4.703  0.4944 -0.3210 -1.0159
14967TIP3    H266393   6.210   4.240   4.630 -0.8870  0.2906  1.5743
14968TIP3   OH266394   5.156   3.650   5.659  0.6989 -0.8713  0.1314
14968TIP3    H166395   5.107   3.572   5.683 -0.1564 -0.8116 -1.2802
14968TIP3    H266396   5.089   3.712   5.631  1.4748 -0.2142 -0.3041
14969TIP3   OH266397   4.514   2.559  11.422  0.2327 -0.3037 -0.3534
14969TIP3    H166398   4.478   2.543  11.509  1.9001  2.7045  1.0749
14969TIP3    H266399   4.439   2.556  11.364 -0.8426 -3.0817  1.0262
14970TIP3   OH266400   2.759   1.543   1.751 -0.2335 -0.2658 -0.0238
14970TIP3    H166401   2.806   1.597   1.688 -0.4149  0.2445  0.2760
14970TIP3    H266402   2.816   1.540   1.828 -0.3878 -0.2019  0.0938
14971TIP3   OH266403   6.804   1.021  12.104  0.2018  0.9859  0.0304
14971TIP3    H166404   6.889   0.990  12.134  0.0555 -2.2036 -2.3118
14971TIP3    H266405   6.749   1.020  12.182  1.0138 -2.2377  0.6955
14972TIP3   OH266406   1.343   4.217  16.290  0.2929 -0.4092  0.1520
14972TIP3    H166407   1.292   4.223  16.370  0.7456  0.2987  0.4045
14972TIP3    H266408   1.378   4.128  16.289 -0.3434 -0.6627  0.3433
14973TIP3   OH266409   4.579   1.389  13.770  0.0542  0.6474  0.4617
14973TIP3    H166410   4.559   1.482  13.783  1.5664  0.8198  1.9062
14973TIP3    H266411   4.662   1.388  13.723 -0.1090  0.0093  0.1735
14974TIP3   OH266412   6.627   1.530  11.843  0.1347  0.5790 -0.0999
14974TIP3    H166413   6.638   1.545  11.749  1.5351 -0.2312 -0.0910
14974TIP3    H266414   6.624   1.435  11.852 -0.4634  0.6580  0.6421
14975TIP3   OH266415   5.896   1.351   0.617  0.2822  0.2601 -0.3666
14975TIP3    H166416   5.869   1.275   0.668 -0.3407  0.2231 -0.7319
14975TIP3    H266417   5.882   1.325   0.526 -0.2107  0.9083 -0.4870
14976TIP3   OH266418   1.063   1.085   0.165  0.5943  0.2042  0.4065
14976TIP3    H166419   1.158   1.097   0.167  0.4537  1.6869 -0.0686
14976TIP3    H266420   1.029   1.157   0.218 -0.2822  0.1287 -0.0405
14977TIP3   OH266421   3.853   2.458  11.776  0.5943  0.2555 -0.7081
14977TIP3    H166422   3.803   2.472  11.695 -0.5489  1.3788  0.1526
14977TIP3    H266423   3.936   2.504  11.761  0.1967  0.8692 -1.0752
14978TIP3   OH266424   3.261   6.224   4.685  0.3742  0.6339 -0.7033
14978TIP3    H166425   3.222   6.307   4.711  0.1301 -0.4632  2.9993
14978TIP3    H266426   3.329   6.248   4.622  1.5209  3.9154  1.5255
14979TIP3   OH266427   3.186   0.113  14.345  0.7300  0.5350  0.1890
14979TIP3    H166428   3.251   0.126  14.276  0.5875 -1.8495 -0.5039
14979TIP3    H266429   3.177   0.017  14.351 -1.6029  0.7633  1.3076
14980TIP3   OH266430   6.736   3.908   6.491 -0.1975  0.2025  0.0306
14980TIP3    H166431   6.756   3.956   6.571  3.0845  1.3734 -1.3337
14980TIP3    H266432   6.697   3.826   6.521  1.5425  0.2833  2.8788
14981TIP3   OH266433   5.762   2.745   5.045  0.3526  0.2279  0.4761
14981TIP3    H166434   5.847   2.770   5.080  0.5058 -1.5093  1.4313
14981TIP3    H266435   5.780   2.674   4.984 -0.2869  0.8515 -0.4825
14982TIP3   OH266436   6.553   5.302   3.708 -0.2487 -0.0966 -0.2164
14982TIP3    H166437   6.475   5.344   3.745 -1.0769 -2.0602  0.4142
14982TIP3    H266438   6.520   5.221   3.669  1.5551 -1.2554  0.5600
14983TIP3   OH266439   1.522   4.012  16.292 -0.6434  0.1037 -0.4318
14983TIP3    H166440   1.544   3.977  16.206 -1.4086  0.9831 -1.0048
14983TIP3    H266441   1.499   3.935  16.344  1.1814 -0.5802 -0.5651
14984TIP3   OH266442   0.046   0.129   6.216  0.0277  0.8916  0.1276
14984TIP3    H166443  -0.009   0.052   6.233  1.4766  0.0275  1.1996
14984TIP3    H266444   0.122   0.117   6.273  1.5719  1.7896 -1.6259
14985TIP3   OH266445   0.091   1.000  16.249 -0.3998 -0.6687  0.0844
14985TIP3    H166446   0.150   1.070  16.275  0.3975 -1.3774  0.2204
14985TIP3    H266447   0.055   1.029  16.165 -1.9906  1.0240  1.2816
14986TIP3   OH266448   4.995   5.629   0.386  0.6263  0.0976 -0.3432
14986TIP3    H166449   4.938   5.687   0.437  0.5270 -0.4126  0.1291
14986TIP3    H266450   4.988   5.544   0.429  2.9078  0.3476  0.6769
14987TIP3   OH266451   2.082   6.204  14.204 -0.0683 -0.1088 -0.3018
14987TIP3    H166452   2.066   6.277  14.263  0.7614  0.8109 -1.1667
14987TIP3    H266453   2.008   6.206  14.143  0.3836  0.5830 -0.8507
14988TIP3   OH266454   2.388   0.775   0.385  0.2925  0.1350 -0.0575
14988TIP3    H166455   2.433   0.710   0.332 -1.1050 -1.0552  0.1657
14988TIP3    H266456   2.327   0.725   0.439 -0.8008  1.6210  0.1531
14989TIP3   OH266457   0.431   4.869  15.235  0.0989  0.5551 -0.3908
14989TIP3    H166458   0.383   4.870  15.317 -0.8539 -0.5913 -0.9132
14989TIP3    H266459   0.408   4.952  15.193 -2.3455 -0.4217 -1.1167
14990TIP3   OH266460   1.479   4.371  11.120 -0.4506 -0.2246 -1.0436
14990TIP3    H166461   1.519   4.295  11.078 -0.8590 -0.7479 -0.4859
14990TIP3    H266462   1.447   4.424  11.047 -0.4980 -0.7656 -1.4181
14991TIP3   OH266463   3.040   4.909  17.038  0.4521 -0.6674 -0.3658
14991TIP3    H166464   3.028   4.828  17.088  0.4435 -0.8392 -0.6434
14991TIP3    H266465   3.013   4.886  16.949 -1.3470  0.1467 -0.0656
14992TIP3   OH266466   2.022   3.802   0.853  0.3006  0.0020  0.7782
14992TIP3    H166467   2.027   3.789   0.759 -1.9107  0.4774  0.5190
14992TIP3    H266468   2.043   3.895   0.866  1.6846 -0.3172  0.9014
14993TIP3   OH266469   6.170   0.936   3.174  0.4101  0.8073 -0.2103
14993TIP3    H166470   6.190   0.848   3.207 -0.5089  0.7433  0.2080
14993TIP3    H266471   6.081   0.954   3.205 -0.4904  0.8028 -2.5596
14994TIP3   OH266472   5.483   4.574  12.492  0.6652 -0.1664 -0.6593
14994TIP3    H166473   5.447   4.650  12.539  1.9644  0.1832 -0.1817
14994TIP3    H266474   5.500   4.510  12.561  0.8675 -0.3588 -0.8876
14995TIP3   OH266475   3.286   5.084  14.263  0.6448  0.5043  0.0419
14995TIP3    H166476   3.337   5.073  14.183  2.5549  1.7794  1.0106
14995TIP3    H266477   3.216   5.146  14.238 -1.8756 -2.7624 -1.8205
14996TIP3   OH266478   1.054   0.642  14.520  0.3112 -0.0613  0.0613
14996TIP3    H166479   0.979   0.654  14.461 -1.3217  1.4439  2.2799
14996TIP3    H266480   1.015   0.642  14.608  2.8185 -0.5270  1.2498
14997TIP3   OH266481   6.705   1.948   2.683  0.2688  0.0892 -0.4736
14997TIP3    H166482   6.656   2.019   2.641  0.6602  0.7469  0.1426
14997TIP3    H266483   6.797   1.969   2.665  0.4297  0.2745  0.5348
14998TIP3   OH266484   5.724   5.547  10.611 -0.1597  0.5580  0.4920
14998TIP3    H166485   5.654   5.488  10.581 -0.2526  0.3607  1.0807
14998TIP3    H266486   5.804   5.510  10.575 -0.4371  1.3553 -1.0609
14999TIP3   OH266487   0.459   2.956  15.827 -0.2444 -0.2569  0.0661
14999TIP3    H166488   0.484   3.041  15.863 -0.2671 -1.6256  3.6828
14999TIP3    H266489   0.375   2.972  15.785  0.5634  1.7960 -0.9267
15000TIP3   OH266490   4.953   6.732   6.440 -0.0644 -0.1245  0.9744
15000TIP3    H166491   4.913   6.815   6.464  0.4377 -0.0410  1.5694
15000TIP3    H266492   4.891   6.690   6.380  0.8350  1.8500 -1.4992
15001TIP3   OH266493   6.230   1.676   2.728 -0.0114  0.2641  0.7313
15001TIP3    H166494   6.296   1.667   2.659 -1.4039 -1.3673 -0.5061
15001TIP3    H266495   6.162   1.731   2.689 -0.4384  0.0001  1.0929
15002TIP3   OH266496   2.657   1.237   2.962  0.7035 -0.0995 -0.0886
15002TIP3    H166497   2.702   1.234   2.878  2.1170  2.1728  0.5034
15002TIP3    H266498   2.692   1.315   3.005 -0.1107 -1.0948  2.5504
15003TIP3   OH266499   5.826   4.240   1.816 -0.1511  0.5912  0.0121
15003TIP3    H166500   5.866   4.295   1.749 -1.6696  1.0891 -0.5140
15003TIP3    H266501   5.776   4.175   1.768 -0.4858  0.3622  0.6504
15004TIP3   OH266502   6.396   6.328   2.291 -0.0128 -0.0083  0.3984
15004TIP3    H166503   6.475   6.299   2.337  0.5843 -0.1656 -0.6807
15004TIP3    H266504   6.341   6.366   2.359  0.1230 -1.6778  1.5070
15005TIP3   OH266505   2.518   4.118  11.827 -0.4242 -0.3337  0.1244
15005TIP3    H166506   2.532   4.200  11.874 -2.0243  0.1630 -0.1888
15005TIP3    H266507   2.436   4.084  11.863 -1.4914 -0.1429 -1.9764
15006TIP3   OH266508   5.975   1.147  14.171 -0.4180  0.6892 -0.7376
15006TIP3    H166509   5.987   1.212  14.102  2.5651  0.2001 -0.8068
15006TIP3    H266510   6.059   1.145  14.218 -1.2154 -1.3796  0.7887
15007TIP3   OH266511   6.423   3.167   2.137 -0.5260 -1.1173  0.1115
15007TIP3    H166512   6.494   3.144   2.197  0.8515 -1.0013 -1.4053
15007TIP3    H266513   6.378   3.240   2.180  1.0971 -0.3189  0.5237
15008TIP3   OH266514   5.861   5.159   3.543  1.0356  0.3933  0.3289
15008TIP3    H166515   5.860   5.232   3.482  2.3644 -0.1907 -0.4373
15008TIP3    H266516   5.891   5.085   3.490 -0.7165 -0.8405  0.9544
15009TIP3   OH266517   4.240   5.449   1.365 -0.1479  0.0528  0.3639
15009TIP3    H166518   4.314   5.479   1.417 -0.1588  0.2249  0.2814
15009TIP3    H266519   4.185   5.401   1.427 -0.8167  1.3595  0.8256
15010TIP3   OH266520   4.819   4.081   4.461 -0.4212 -0.0283  0.2291
15010TIP3    H166521   4.862   4.050   4.381  2.2052  0.7732  1.2235
15010TIP3    H266522   4.846   4.019   4.528 -2.9778 -0.9559  0.4944
15011TIP3   OH266523   6.531   5.668  11.473 -0.1641  0.0855 -0.1572
15011TIP3    H166524   6.440   5.692  11.460  0.0263  0.6222 -0.5696
15011TIP3    H266525   6.578   5.752  11.476  0.3207 -0.1837 -0.0407
15012TIP3   OH266526   2.501   3.460  14.058  0.1505  0.2911  0.5894
15012TIP3    H166527   2.430   3.405  14.093 -0.6466  0.0978 -1.2218
15012TIP3    H266528   2.581   3.422  14.095 -0.5136 -0.9952  0.7709
15013TIP3   OH266529   1.773   4.026  17.034  0.0939  0.0094  0.3578
15013TIP3    H166530   1.833   4.089  16.992  3.1253 -2.9767 -0.2303
15013TIP3    H266531   1.690   4.073  17.040  1.5537  3.2971 -1.9449
15014TIP3   OH266532   5.304   1.577  14.885  0.1210  0.1284  0.3530
15014TIP3    H166533   5.261   1.537  14.960 -0.0955 -0.8908 -0.2992
15014TIP3    H266534   5.385   1.613  14.920 -0.6082  0.8797  1.3305
15015TIP3   OH266535   1.470   4.594  14.042 -0.0768 -0.0785 -0.2128
15015TIP3    H166536   1.433   4.506  14.039 -2.4309  0.8150  0.3890
15015TIP3    H266537   1.394   4.652  14.051  1.3773  2.0392 -0.7774
15016TIP3   OH266538   5.211   3.909  11.356 -0.0884  0.1592 -0.1763
15016TIP3    H166539   5.228   3.876  11.268  2.2908  0.9260 -0.0739
15016TIP3    H266540   5.295   3.902  11.401 -0.3323  2.9659  0.9398
15017TIP3   OH266541   2.101   6.290   6.842  0.1440 -0.2237 -0.3774
15017TIP3    H166542   2.022   6.262   6.795 -0.5110 -0.8955  1.0738
15017TIP3    H266543   2.151   6.338   6.776  0.1767 -2.7184 -2.3625
15018TIP3   OH266544   5.281   4.266  14.982  0.0392  0.2512 -0.9901
15018TIP3    H166545   5.191   4.234  14.989  0.3374 -0.2248  2.2244
15018TIP3    H266546   5.334   4.186  14.975  0.3221  0.4202 -0.7783
15019TIP3   OH266547   5.979   0.051   0.678 -0.1668 -0.0219 -0.4077
15019TIP3    H166548   5.980   0.030   0.771 -0.3012  0.2386 -0.3463
15019TIP3    H266549   6.047  -0.004   0.640  0.5676  0.5970  0.0006
15020TIP3   OH266550   1.011   0.122  11.894 -0.5896  0.4917 -0.2508
15020TIP3    H166551   1.092   0.162  11.925 -0.5577 -0.0066  0.3103
15020TIP3    H266552   1.002   0.154  11.804  0.5528  0.0508 -0.5283
15021TIP3   OH266553   2.750   1.234  16.011  0.1436 -0.6767 -0.0622
15021TIP3    H166554   2.691   1.304  16.039  2.7625  1.4075  0.6567
15021TIP3    H266555   2.744   1.168  16.080 -3.4271 -2.0641 -1.4240
15022TIP3   OH266556   1.099   0.417  14.206 -0.1996  0.0369 -0.1237
15022TIP3    H166557   1.151   0.350  14.162  0.8075  0.3889  0.5004
15022TIP3    H266558   1.131   0.418  14.296 -1.3687  0.1930  0.3166
15023TIP3   OH266559   5.068   5.386   2.441  0.3578  0.3179  0.3286
15023TIP3    H166560   5.106   5.303   2.472  2.1615  1.0702  0.2089
15023TIP3    H266561   5.026   5.422   2.519 -2.4334 -1.6868 -0.0878
15024TIP3   OH266562   1.960   2.237  10.543 -0.0777  0.8102  0.8727
15024TIP3    H166563   1.989   2.149  10.566  0.7801  1.2293  1.4311
15024TIP3    H266564   2.031   2.295  10.571 -1.4402  1.8841  2.3516
15025TIP3   OH266565   6.103   3.965   2.430 -0.1911  0.1424 -0.6896
15025TIP3    H166566   6.062   3.971   2.517  1.1719  1.1497 -0.0875
15025TIP3    H266567   6.144   4.050   2.417  1.0960 -0.5916 -1.5817
15026TIP3   OH266568   2.579   0.008  11.685 -0.3862  0.1244 -0.0186
15026TIP3    H166569   2.485   0.007  11.701 -0.2275 -2.0350  1.1364
15026TIP3    H266570   2.589  -0.039  11.602 -0.3476  0.6738 -0.3267
15027TIP3   OH266571   3.399   1.750  12.822 -0.6330 -0.3165  0.5821
15027TIP3    H166572   3.435   1.716  12.739  1.0774 -0.7947  1.4738
15027TIP3    H266573   3.435   1.691  12.889 -2.5869 -0.3844  1.6172
15028TIP3   OH266574   0.720   5.322   4.898  0.0414  0.4147 -0.0461
15028TIP3    H166575   0.812   5.336   4.920  0.2439  0.5849 -0.9599
15028TIP3    H266576   0.713   5.346   4.806 -0.8513  0.0856 -0.0790
15029TIP3   OH266577   0.189   1.373   0.754  0.0966 -0.0753  0.0793
15029TIP3    H166578   0.128   1.320   0.805  0.3979 -0.5727 -0.0787
15029TIP3    H266579   0.265   1.317   0.740  0.3229  0.3158 -0.2868
15030TIP3   OH266580   3.107   3.992   1.737 -0.7055  0.3093  0.1538
15030TIP3    H166581   3.031   3.935   1.749 -0.6065  0.1150 -0.1108
15030TIP3    H266582   3.180   3.931   1.721 -0.5983  0.5099 -0.1276
15031TIP3   OH266583   5.093   2.723   0.783  0.2394 -0.1147  0.4803
15031TIP3    H166584   5.163   2.699   0.723  1.7320  1.7042  1.4002
15031TIP3    H266585   5.023   2.660   0.765  1.8163 -1.5381 -0.9669
15032TIP3   OH266586   5.334   5.214  14.251 -0.1017  0.0795 -0.1448
15032TIP3    H166587   5.365   5.216  14.341 -2.0489  0.4005  0.5546
15032TIP3    H266588   5.414   5.223  14.198  1.0608 -0.0564  1.5196
15033TIP3   OH266589   5.665   5.528  12.061  0.3135  0.1833 -0.3469
15033TIP3    H166590   5.633   5.554  12.147  1.8368  1.7820 -0.2151
15033TIP3    H266591   5.681   5.610  12.015  1.7001 -0.5844 -1.3088
15034TIP3   OH266592   2.757   5.761  10.887 -0.1472  0.2387 -0.4555
15034TIP3    H166593   2.849   5.774  10.861 -0.0401 -0.9040 -0.6731
15034TIP3    H266594   2.709   5.754  10.805 -0.1987 -0.7187 -0.3494
15035TIP3   OH266595   2.178   4.834  10.872 -0.0514  0.1953  0.0228
15035TIP3    H166596   2.122   4.761  10.844 -0.3183 -0.2159  1.5392
15035TIP3    H266597   2.126   4.913  10.851 -1.2262 -0.1769  1.3719
15036TIP3   OH266598   2.897   3.339  11.128  0.1053 -0.1194  0.4881
15036TIP3    H166599   2.975   3.380  11.090  0.4001  0.6144  1.8021
15036TIP3    H266600   2.929   3.299  11.209 -1.2040  1.8903  2.0865
15037TIP3   OH266601   5.530   1.009  11.670  0.2409 -0.1846  0.0977
15037TIP3    H166602   5.520   1.102  11.692 -2.2254 -0.2271 -0.5021
15037TIP3    H266603   5.492   0.963  11.744 -1.4414 -0.5664 -0.9571
15038TIP3   OH266604   4.689   5.753  11.813 -0.1786  0.6890  0.0056
15038TIP3    H166605   4.771   5.704  11.817 -0.5585  0.0114 -0.2696
15038TIP3    H266606   4.673   5.764  11.719 -1.1014 -0.4040  0.0146
15039TIP3   OH266607   4.327   3.133  17.050 -0.3196 -0.1656 -0.2197
15039TIP3    H166608   4.418   3.156  17.032 -0.5026 -0.5568 -1.8010
15039TIP3    H266609   4.330   3.083  17.132  0.5088  2.2365  1.2998
15040TIP3   OH266610   5.049   4.726   0.911  0.1556 -0.0834  0.6609
15040TIP3    H166611   5.010   4.684   0.988 -1.2684  0.5760  0.3329
15040TIP3    H266612   5.133   4.681   0.899 -0.7619 -1.9933  1.0443
15041TIP3   OH266613   5.473   4.574   3.576 -0.3392  0.3797 -0.1189
15041TIP3    H166614   5.396   4.568   3.631  0.1384 -0.4248  0.4736
15041TIP3    H266615   5.546   4.547   3.633  0.0735 -1.1955 -1.3260
15042TIP3   OH266616   6.605   2.303  15.394 -0.2112  0.1417  0.3740
15042TIP3    H166617   6.527   2.266  15.352  1.1072 -1.0471 -1.1687
15042TIP3    H266618   6.660   2.227  15.412  2.4192  1.1477 -2.5333
15043TIP3   OH266619   1.581   5.315  17.107 -0.1472 -0.0181 -0.7260
15043TIP3    H166620   1.662   5.302  17.155 -0.5591 -1.8303 -0.4587
15043TIP3    H266621   1.586   5.255  17.032 -0.5897  0.9654 -1.5863
15044TIP3   OH266622   4.604   0.536   0.172  0.3583  0.5756  0.4866
15044TIP3    H166623   4.532   0.502   0.118  0.7874 -0.8994  0.7797
15044TIP3    H266624   4.651   0.596   0.115 -1.0055  1.4364  0.2420
15045TIP3   OH266625   3.599   6.031  15.737 -1.3197  0.2969  0.1321
15045TIP3    H166626   3.636   6.114  15.768  1.4640 -1.1886  1.1525
15045TIP3    H266627   3.530   6.011  15.801  0.8448 -0.1702  2.4984
15046TIP3   OH266628   6.546   4.286   4.411  0.0657 -0.1533  0.2247
15046TIP3    H166629   6.599   4.315   4.486 -1.0878  1.7200  0.3809
15046TIP3    H266630   6.470   4.344   4.412 -1.0109 -1.4740 -1.1802
15047TIP3   OH266631   0.581   6.588  14.361 -0.3593 -0.6013 -0.8056
15047TIP3    H166632   0.570   6.678  14.327 -1.6364 -0.8840 -1.2120
15047TIP3    H266633   0.659   6.592  14.415 -1.1528  1.1130  0.3101
15048TIP3   OH266634   1.915   0.183   0.377  0.6371 -0.3019  0.1770
15048TIP3    H166635   1.890   0.199   0.286 -1.6922 -2.1920  0.3963
15048TIP3    H266636   1.920   0.088   0.385 -0.8482 -0.2644  2.3799
15049TIP3   OH266637   0.092   4.464  13.430 -0.1125 -0.6456 -0.1553
15049TIP3    H166638   0.130   4.523  13.364  0.2216 -1.9158 -1.1411
15049TIP3    H266639   0.006   4.502  13.449  1.3213  1.9954  1.7218
15050TIP3   OH266640   3.088   2.187  12.626  0.1776 -0.0305 -0.3156
15050TIP3    H166641   3.061   2.245  12.696 -0.9173 -0.2388 -0.5520
15050TIP3    H266642   3.172   2.151  12.656 -0.5676 -0.6116  1.1863
15051TIP3   OH266643   0.339   4.522   5.996 -0.4735  0.3901  0.7968
15051TIP3    H166644   0.253   4.531   5.955 -0.4303  0.5091  0.7319
15051TIP3    H266645   0.345   4.429   6.018  0.6120 -0.2790 -1.9220
15052TIP3   OH266646   5.676   5.334   2.379 -1.2283 -0.5498  0.9749
15052TIP3    H166647   5.770   5.349   2.366 -1.3988  0.0195  0.3499
15052TIP3    H266648   5.671   5.288   2.463 -0.2946 -1.7639  0.4026
15053TIP3   OH266649   1.812   6.647   1.362  0.0652  0.2323 -0.2188
15053TIP3    H166650   1.769   6.636   1.447  0.1130  0.4967 -0.1594
15053TIP3    H266651   1.867   6.569   1.353 -0.1923  0.0395 -0.1588
15054TIP3   OH266652   0.949   5.971  14.947  0.0082  0.4999 -0.3075
15054TIP3    H166653   1.038   5.998  14.926  0.5913 -1.7537 -1.0330
15054TIP3    H266654   0.899   5.992  14.868  0.5756 -0.9494 -1.0970
15055TIP3   OH266655   0.000   3.580  11.522  0.0935  0.0066  0.0942
15055TIP3    H166656   0.067   3.645  11.502 -2.0901  1.7327 -2.2979
15055TIP3    H266657   0.044   3.496  11.508  1.8276  1.0539 -1.2449
15056TIP3   OH266658   4.021   1.630  12.777 -0.4134 -0.8711  0.0440
15056TIP3    H166659   4.113   1.603  12.775 -0.2144 -0.4634  1.9137
15056TIP3    H266660   3.988   1.597  12.861 -1.5618  0.3115  0.0953
15057TIP3   OH266661   3.694   0.223   1.920 -0.1775 -0.7818  0.3087
15057TIP3    H166662   3.767   0.264   1.874 -0.7724  0.9759  0.8644
15057TIP3    H266663   3.621   0.229   1.858 -0.5331 -0.0123  0.7907
15058TIP3   OH266664   5.307   0.778  11.396 -0.0516 -0.4039  0.2955
15058TIP3    H166665   5.260   0.701  11.363 -1.3673 -1.0948  3.4605
15058TIP3    H266666   5.389   0.742  11.431  0.2053 -0.0540  0.0604
15059TIP3   OH266667   1.001   0.122  16.206  0.8170 -0.0596 -0.3159
15059TIP3    H166668   0.994   0.190  16.273 -0.9632 -0.3164 -0.1825
15059TIP3    H266669   0.910   0.101  16.185  1.2867 -2.6753 -0.0572
15060TIP3   OH266670   5.328   4.621   5.432  0.4588 -0.0402 -0.0939
15060TIP3    H166671   5.249   4.676   5.432  0.2416 -0.3497  0.0749
15060TIP3    H266672   5.318   4.566   5.354 -0.6828 -1.7603  1.1799
15061TIP3   OH266673   3.094   3.806  16.827  0.2075 -0.4153 -0.7201
15061TIP3    H166674   3.033   3.870  16.791 -0.2335  0.3254  1.2027
15061TIP3    H266675   3.171   3.811  16.769 -0.0378  1.4703 -0.9461
15062TIP3   OH266676   3.723   5.334   2.774  0.1150  0.0923  0.0941
15062TIP3    H166677   3.661   5.263   2.758  0.4394 -0.3492  0.7518
15062TIP3    H266678   3.687   5.408   2.725 -1.6711  0.2367  1.4810
15063TIP3   OH266679   4.532   0.013   2.182  0.5960 -0.6833 -0.0561
15063TIP3    H166680   4.542  -0.012   2.274  1.2592  0.3794  0.1802
15063TIP3    H266681   4.609  -0.023   2.139  0.6233 -0.6107 -0.0675
15064TIP3   OH266682   2.597   6.481  16.739  0.5668 -0.3341 -0.0192
15064TIP3    H166683   2.578   6.533  16.662 -0.6438  1.2249  1.2759
15064TIP3    H266684   2.693   6.484  16.747  0.7519 -0.9172 -1.6823
15065TIP3   OH266685   5.894   0.007  13.405  0.3203 -0.1606  0.2186
15065TIP3    H166686   5.881  -0.076  13.359 -1.4688 -0.7626  1.6664
15065TIP3    H266687   5.805   0.038  13.423  0.9559  1.0163  1.5154
15066TIP3   OH266688   0.156   1.521   4.089  0.6075 -0.0651 -0.3133
15066TIP3    H166689   0.074   1.481   4.062 -0.6009  2.3568 -0.5544
15066TIP3    H266690   0.150   1.528   4.184 -0.0108  1.0575 -0.4078
15067TIP3   OH266691   2.206   0.453   1.120  0.0572  0.4311 -0.3360
15067TIP3    H166692   2.194   0.492   1.033  1.1094 -1.0654 -1.2003
15067TIP3    H266693   2.184   0.523   1.181 -1.2935  1.3459 -1.7909
15068TIP3   OH266694   4.775   5.348  14.863 -0.0018  0.1541  0.4229
15068TIP3    H166695   4.815   5.420  14.814 -1.5618  1.2496  0.6994
15068TIP3    H266696   4.825   5.345  14.945  0.7597  0.1852 -0.0223
15069TIP3   OH266697   2.030   6.817  13.986 -0.2028  0.1099  0.4835
15069TIP3    H166698   2.018   6.729  14.022 -0.2742  0.2699  0.8486
15069TIP3    H266699   2.062   6.869  14.059  0.1659  0.3123  0.1819
15070TIP3   OH266700   3.375   2.699   4.138  0.2538  0.0935 -0.7631
15070TIP3    H166701   3.455   2.650   4.156 -0.2519 -0.0278  1.6061
15070TIP3    H266702   3.305   2.633   4.141 -0.0597  0.3936 -1.4175
15071TIP3   OH266703   1.843   0.909  11.806 -0.1404 -0.2812 -0.0820
15071TIP3    H166704   1.919   0.907  11.863 -0.9468  2.0909  1.1986
15071TIP3    H266705   1.860   0.980  11.745 -1.1260 -0.0069 -0.0592
15072TIP3   OH266706   5.528   1.540  13.201  0.1489  0.2770  0.0430
15072TIP3    H166707   5.520   1.455  13.244 -1.3464  0.6193  0.4967
15072TIP3    H266708   5.620   1.564  13.211  0.2846 -0.6530  1.1500
15073TIP3   OH266709   3.133   3.002   2.603 -0.1267  0.6324 -0.1766
15073TIP3    H166710   3.070   2.930   2.611 -0.6195  0.9853 -0.8400
15073TIP3    H266711   3.140   3.037   2.692  0.6016 -0.6285  0.2994
15074TIP3   OH266712   0.261   5.300   5.666 -0.1272 -0.2048 -0.1400
15074TIP3    H166713   0.255   5.207   5.683 -0.7531  0.0777  1.3438
15074TIP3    H266714   0.355   5.317   5.656 -0.0971 -1.2169 -2.1015
15075TIP3   OH266715   3.193   3.994   5.019 -0.0740 -0.0492 -0.3421
15075TIP3    H166716   3.215   3.967   5.108  1.0057  0.2094 -0.5144
15075TIP3    H266717   3.259   4.059   4.997 -0.1539 -0.3220 -1.4408
15076TIP3   OH266718   3.752   1.358  16.247  0.4648  0.0548  0.0238
15076TIP3    H166719   3.665   1.381  16.213  0.5010 -1.0851 -0.9079
15076TIP3    H266720   3.755   1.400  16.333 -1.2325 -0.3474  0.3303
15077TIP3   OH266721   3.658   4.402   5.082  0.4044 -0.0354 -0.3446
15077TIP3    H166722   3.611   4.388   5.164 -1.3950 -1.7414 -1.5969
15077TIP3    H266723   3.750   4.405   5.108 -0.1155 -0.5595  1.7337
15078TIP3   OH266724   5.380   3.641   3.099  0.0983  0.1365  0.4319
15078TIP3    H166725   5.316   3.677   3.161 -0.2837 -0.1476  0.2057
15078TIP3    H266726   5.453   3.702   3.102  0.5278 -0.4116  1.9336
15079TIP3   OH266727   5.684   1.774   5.262  0.1079  0.3411 -0.0875
15079TIP3    H166728   5.722   1.859   5.287 -0.3317  0.7727 -0.8374
15079TIP3    H266729   5.746   1.709   5.296  1.7892  1.0267 -1.6410
15080TIP3   OH266730   1.805   5.439  12.553  0.0145 -0.6628 -0.4525
15080TIP3    H166731   1.786   5.351  12.520  1.0366 -0.5786 -1.3300
15080TIP3    H266732   1.879   5.468  12.500 -1.5156  1.5128 -1.5365
15081TIP3   OH266733   1.924   6.405   3.738 -0.3779  0.7621  0.1143
15081TIP3    H166734   1.953   6.484   3.783  0.8609  0.1530  0.4155
15081TIP3    H266735   1.839   6.384   3.778 -0.4283  1.5844  0.4516
15082TIP3   OH266736   6.057   1.611   3.278 -0.5116  0.1435 -0.1938
15082TIP3    H166737   6.081   1.546   3.212 -0.5243  0.4313 -0.4862
15082TIP3    H266738   6.106   1.585   3.356  0.3866  0.4501 -0.6462
15083TIP3   OH266739   3.023   6.120   1.927 -0.5362  0.7994 -0.8440
15083TIP3    H166740   3.080   6.050   1.960 -0.6293  1.9356  2.0132
15083TIP3    H266741   2.957   6.074   1.876 -0.0102 -1.1081  0.0825
15084TIP3   OH266742   2.076   5.782   5.436  0.4387 -0.7865 -0.4615
15084TIP3    H166743   2.036   5.720   5.375 -1.2222  0.5507 -0.8021
15084TIP3    H266744   2.007   5.802   5.499  1.6822 -1.0430  1.0450
15085TIP3   OH266745   2.768   5.418   0.222  0.5257 -0.2134  0.1513
15085TIP3    H166746   2.861   5.430   0.203  0.8889  1.8804  2.6548
15085TIP3    H266747   2.737   5.506   0.245 -1.7072 -1.1177  0.8422
15086TIP3   OH266748   5.963   1.695   1.675  0.2323  0.0616  0.0303
15086TIP3    H166749   5.911   1.616   1.664  2.3294 -1.5701  1.0394
15086TIP3    H266750   5.963   1.711   1.770  3.2145 -1.3095  0.3873
15087TIP3   OH266751   6.719   4.705   6.169  0.1106  0.9590 -0.1766
15087TIP3    H166752   6.777   4.776   6.142  0.5135  1.1276  1.0541
15087TIP3    H266753   6.756   4.674   6.251  0.3698 -1.2072 -1.0474
15088TIP3   OH266754   4.167   2.156   5.383 -0.6128 -0.5873 -0.0812
15088TIP3    H166755   4.118   2.205   5.449 -2.5796 -0.5543 -1.4700
15088TIP3    H266756   4.218   2.221   5.336 -0.1081 -0.4562  0.6327
15089TIP3   OH266757   0.072   2.631  10.743  0.0788  0.5801 -1.2538
15089TIP3    H166758   0.056   2.553  10.689 -0.1887 -1.2240  1.2483
15089TIP3    H266759   0.001   2.691  10.719 -1.3106 -1.0269 -1.4304
15090TIP3   OH266760   1.649   1.937   5.172 -0.1866  0.1187 -0.0197
15090TIP3    H166761   1.668   2.025   5.202  1.6140 -0.0050 -0.6883
15090TIP3    H266762   1.592   1.949   5.096  2.8546  1.0134 -2.3602
15091TIP3   OH266763   4.647   4.897  15.622 -0.6076  0.3599 -0.2201
15091TIP3    H166764   4.675   4.809  15.648 -0.6848  0.2982 -0.3425
15091TIP3    H266765   4.651   4.948  15.703 -2.6266 -0.2833  0.3520
15092TIP3   OH266766   1.928   3.725  11.194 -0.2703 -0.0793 -0.5581
15092TIP3    H166767   2.003   3.763  11.148  0.6116  0.3603  1.1470
15092TIP3    H266768   1.906   3.790  11.261 -1.2190 -0.8681 -0.0917
15093TIP3   OH266769   5.206   3.986   0.028 -0.7321  0.2990 -1.1608
15093TIP3    H166770   5.200   3.903   0.076 -0.2700 -0.2434 -2.0111
15093TIP3    H266771   5.286   3.978  -0.024 -0.5933  1.3535 -1.1218
15094TIP3   OH266772   3.154   0.748   3.324  0.6915  0.6017  0.8385
15094TIP3    H166773   3.088   0.707   3.379  0.8711 -1.0786 -0.0997
15094TIP3    H266774   3.108   0.770   3.243  1.7542 -4.0350 -1.4158
15095TIP3   OH266775   5.799   1.713   2.316  0.0420 -0.0221  0.8084
15095TIP3    H166776   5.811   1.718   2.411  1.3085  1.8154  0.5964
15095TIP3    H266777   5.735   1.781   2.296 -0.0779 -0.2748  0.3180
15096TIP3   OH266778   6.031   3.046   2.100 -0.1735  0.1675  0.4665
15096TIP3    H166779   5.990   3.131   2.083 -1.1072 -0.5800 -1.3363
15096TIP3    H266780   6.018   3.031   2.194 -0.7297  1.6200  0.6515
15097TIP3   OH266781   2.722   6.038  16.330 -0.0722  0.2308  0.1187
15097TIP3    H166782   2.732   6.048  16.235  0.1725 -1.1672 -0.0322
15097TIP3    H266783   2.635   5.998  16.341  1.1706 -2.7508  0.1638
15098TIP3   OH266784   4.591   5.540   1.234  0.2389 -0.7686 -0.3405
15098TIP3    H166785   4.567   5.447   1.242 -0.6639 -0.5598 -0.5135
15098TIP3    H266786   4.624   5.548   1.145 -1.1157 -0.6335 -0.8620
15099TIP3   OH266787   6.425   5.126  16.655 -0.4326  0.3611 -0.4991
15099TIP3    H166788   6.409   5.150  16.747  0.8437  1.0177 -0.4312
15099TIP3    H266789   6.357   5.062  16.635 -1.3912  1.0050  0.5828
15100TIP3   OH266790   4.287   5.950   2.785  0.1413 -0.3595  0.4976
15100TIP3    H166791   4.362   5.902   2.820 -0.1967 -0.5561  0.9694
15100TIP3    H266792   4.300   6.040   2.816  0.0410 -0.4527  0.8168
15101TIP3   OH266793   1.415   4.261   6.155 -0.3436  0.1897  0.3638
15101TIP3    H166794   1.352   4.261   6.227  1.5892 -3.1913  2.3363
15101TIP3    H266795   1.400   4.178   6.110  2.5318 -0.7376  0.9047
15102TIP3   OH266796   6.553   6.082   4.268  0.6083  0.0724  0.0717
15102TIP3    H166797   6.579   6.116   4.182  1.4256  1.1059  0.7058
15102TIP3    H266798   6.479   6.137   4.294 -1.5151 -2.0207 -1.1479
15103TIP3   OH266799   3.215   4.838  13.275 -0.0653 -0.5605  0.2740
15103TIP3    H166800   3.266   4.776  13.222  1.8984  1.1906 -0.0039
15103TIP3    H266801   3.148   4.871  13.216  0.3287 -0.7234 -0.2699
15104TIP3   OH266802   0.094   6.676  11.387 -0.8262 -0.3991 -0.4145
15104TIP3    H166803   0.019   6.669  11.327 -1.8101  3.0308  0.1577
15104TIP3    H266804   0.054   6.681  11.474  0.0219  1.3155 -0.0891
15105TIP3   OH266805   1.498   4.873  16.596  0.1856 -0.0415 -0.2282
15105TIP3    H166806   1.567   4.919  16.644  0.3655  0.8089 -1.2509
15105TIP3    H266807   1.437   4.844  16.663  1.0573  0.0226  0.6142
15106TIP3   OH266808   5.335   3.195   2.727  0.3930  0.1278  0.1733
15106TIP3    H166809   5.407   3.185   2.666  0.3255 -0.2720  0.1560
15106TIP3    H266810   5.370   3.164   2.811  0.5848  0.9652  0.4136
15107TIP3   OH266811   0.141   0.742  16.333  0.2752  0.0801  0.0569
15107TIP3    H166812   0.127   0.820  16.279  0.7720  0.9354  1.1126
15107TIP3    H266813   0.153   0.671  16.270 -0.0536  0.8808 -0.9360
15108TIP3   OH266814   0.188   4.609  13.204 -0.1153  0.4252 -0.4110
15108TIP3    H166815   0.245   4.684  13.188 -2.4594  2.0375 -2.0804
15108TIP3    H266816   0.205   4.550  13.131  1.9753 -0.9191  1.0854
15109TIP3   OH266817   4.097   6.650   2.748 -0.2865  0.3233  0.5092
15109TIP3    H166818   4.026   6.715   2.748 -1.3729 -0.8202 -0.7554
15109TIP3    H266819   4.054   6.568   2.772  0.6033 -0.4103 -0.3569
15110TIP3   OH266820   4.400   5.368   6.220  0.8010 -0.0821 -0.2201
15110TIP3    H166821   4.313   5.351   6.185  1.4714 -1.5400 -1.2484
15110TIP3    H266822   4.455   5.299   6.184  2.1089 -0.0199  1.5278
15111TIP3   OH266823   6.514   3.888  10.496  0.6466 -0.0284  0.5355
15111TIP3    H166824   6.469   3.942  10.560  0.5088  0.0330  0.3893
15111TIP3    H266825   6.534   3.948  10.424  1.2210  0.0092  0.7233
15112TIP3   OH266826   5.926   1.656   0.161 -0.0422  0.0120 -0.0356
15112TIP3    H166827   5.977   1.677   0.083 -1.9423  0.7308 -1.1315
15112TIP3    H266828   5.877   1.735   0.180  0.5356 -0.0778  2.0544
15113TIP3   OH266829   2.920   0.715   1.157  0.3499  0.1646  0.2147
15113TIP3    H166830   2.906   0.656   1.083 -0.2728 -0.2677  0.6738
15113TIP3    H266831   3.014   0.710   1.174  0.0774 -2.0146  1.3170
15114TIP3   OH266832   6.748   5.934  12.787  0.3658 -0.0722  0.2479
15114TIP3    H166833   6.708   6.018  12.810  0.2941 -0.8675  3.3681
15114TIP3    H266834   6.840   5.944  12.812  0.3340 -0.9342  0.7578
15115TIP3   OH266835   1.885   5.740  13.910 -0.1894 -0.1073 -0.2206
15115TIP3    H166836   1.858   5.649  13.894  2.5220 -0.8661 -1.0324
15115TIP3    H266837   1.883   5.781  13.823 -1.7322  0.7671  0.1907
15116TIP3   OH266838   5.271   0.945   0.141 -0.2250  0.1294  0.4423
15116TIP3    H166839   5.331   0.958   0.067  0.2408 -0.6409  0.6621
15116TIP3    H266840   5.186   0.930   0.100 -0.3519  1.5357  0.1332
15117TIP3   OH266841   3.151   1.139   5.681  0.0833 -0.5307  0.1732
15117TIP3    H166842   3.136   1.051   5.647 -1.0707  0.3040 -1.6439
15117TIP3    H266843   3.077   1.156   5.738 -2.3547  0.8458 -3.0507
15118TIP3   OH266844   6.621   1.707   2.657 -0.3650  0.1169  0.3931
15118TIP3    H166845   6.631   1.690   2.751  2.3220 -0.1877  0.1233
15118TIP3    H266846   6.660   1.793   2.644 -1.7175  0.6521 -0.3215
15119TIP3   OH266847   3.563   3.547  14.543 -0.5935  0.7195  0.0654
15119TIP3    H166848   3.490   3.531  14.483  1.0757 -0.3375 -1.8278
15119TIP3    H266849   3.593   3.635  14.520 -0.3952  0.5903 -0.1820
15120TIP3   OH266850   6.707   5.467  11.597 -0.1546 -0.5640  0.2451
15120TIP3    H166851   6.712   5.555  11.635 -0.6841 -0.6799  0.6010
15120TIP3    H266852   6.644   5.475  11.526 -0.1965 -0.6520  0.2715
15121TIP3   OH266853   3.786   2.892   3.294  0.1790 -0.2686  0.5402
15121TIP3    H166854   3.813   2.889   3.202 -2.1430 -0.4191 -0.2118
15121TIP3    H266855   3.822   2.974   3.327  1.9444 -0.7112 -0.1586
15122TIP3   OH266856   0.691   0.043  11.786 -0.4370  0.2697 -0.7102
15122TIP3    H166857   0.768  -0.006  11.816  1.2912  3.4479  0.5021
15122TIP3    H266858   0.639  -0.022  11.739  1.7742 -2.6117  0.4828
15123TIP3   OH266859   0.374   3.679  12.434 -0.1888 -0.1856 -0.2475
15123TIP3    H166860   0.417   3.606  12.390  1.3256  0.7678 -0.4086
15123TIP3    H266861   0.410   3.678  12.523 -0.7211 -0.0879 -0.0294
15124TIP3   OH266862   2.151   3.534   5.440 -0.3648 -0.1241  0.1751
15124TIP3    H166863   2.229   3.560   5.392 -0.0479 -0.6941  0.3734
15124TIP3    H266864   2.172   3.547   5.532 -1.2379  1.6868  0.1648
15125TIP3   OH266865   3.830   4.924  16.367  0.3894  0.4703 -0.5244
15125TIP3    H166866   3.909   4.960  16.408 -0.0384  1.8875 -0.9062
15125TIP3    H266867   3.827   4.965  16.281 -0.8319  0.5448 -0.4611
15126TIP3   OH266868   3.715   5.999   4.255 -0.4932  0.8585 -0.1139
15126TIP3    H166869   3.656   6.052   4.202 -1.2117  0.9649  0.7639
15126TIP3    H266870   3.701   6.030   4.345  0.8896  0.8729  0.1166
15127TIP3   OH266871   2.134   3.755   2.185 -0.2877  0.1075  0.0075
15127TIP3    H166872   2.157   3.775   2.275 -0.8676 -0.7072  0.3516
15127TIP3    H266873   2.215   3.768   2.136 -0.1503  1.2805  0.5120
15128TIP3   OH266874   3.417   1.246  13.696 -0.0055  0.4659 -0.1902
15128TIP3    H166875   3.414   1.231  13.791  0.6518  1.5233  0.0104
15128TIP3    H266876   3.502   1.288  13.681 -1.1159  2.6030 -0.8996
15129TIP3   OH266877   6.686   4.553  12.283  0.0840 -0.0651  0.7474
15129TIP3    H166878   6.591   4.541  12.282  0.2466 -1.5428  0.8000
15129TIP3    H266879   6.700   4.630  12.339 -1.0340 -0.3483  1.4537
15130TIP3   OH266880   3.210   2.788   3.068 -0.3288 -0.2038  0.6009
15130TIP3    H166881   3.223   2.794   2.973  0.3562 -0.7784  0.6491
15130TIP3    H266882   3.297   2.768   3.103 -0.5373  0.2008  1.3730
15131TIP3   OH266883   2.917   4.628  14.295  0.4565 -0.1537  0.0229
15131TIP3    H166884   2.854   4.660  14.360  1.2084 -0.2938  0.8412
15131TIP3    H266885   2.909   4.689  14.222 -1.5219 -0.8915 -0.4416
15132TIP3   OH266886   1.068   2.869   0.102  0.2388  0.8044  0.0938
15132TIP3    H166887   1.001   2.909   0.158  1.3647  3.0098 -0.0169
15132TIP3    H266888   1.138   2.934   0.099  1.0703 -0.1066 -2.2659
15133TIP3   OH266889   2.462   6.636  13.260  0.1987  0.0534  0.0512
15133TIP3    H166890   2.444   6.542  13.263 -0.2929  0.1055 -0.8117
15133TIP3    H266891   2.412   6.667  13.184 -0.0617  1.1020  0.6340
15134TIP3   OH266892   1.064   5.552   3.878 -0.4553 -0.5162 -0.0872
15134TIP3    H166893   1.111   5.634   3.890 -0.2546 -0.9146  2.5022
15134TIP3    H266894   1.099   5.515   3.797  3.0196 -0.3208  1.1775
15135TIP3   OH266895   6.102   4.659  11.359  0.2851  0.1101  0.0423
15135TIP3    H166896   6.156   4.601  11.412  0.3736  0.7185  0.6239
15135TIP3    H266897   6.145   4.659  11.273  0.6132 -0.2203  0.2001
15136TIP3   OH266898   0.644   0.710  11.316 -0.4905 -0.0401  0.0614
15136TIP3    H166899   0.592   0.783  11.283 -1.8302 -1.6679 -1.6485
15136TIP3    H266900   0.657   0.653  11.241  1.5957 -0.9997  1.0498
15137TIP3   OH266901   2.288   6.645   5.681 -0.5081  0.4585 -0.5184
15137TIP3    H166902   2.300   6.713   5.615 -0.3035  1.1145  0.1789
15137TIP3    H266903   2.359   6.658   5.743 -0.9959  0.1900  0.1139
15138TIP3   OH266904   2.362   1.169   2.459  0.6600  0.0837 -0.3645
15138TIP3    H166905   2.383   1.242   2.517 -0.2655 -1.1579  1.6863
15138TIP3    H266906   2.277   1.191   2.421  0.8104  0.4871 -0.4632
15139TIP3   OH266907   4.156   2.320   5.764 -0.0794  0.4002  0.2505
15139TIP3    H166908   4.139   2.226   5.753  0.8594  0.4072 -1.6073
15139TIP3    H266909   4.095   2.347   5.833 -0.0693 -1.6501  1.1584
15140TIP3   OH266910   4.313   3.944   2.005 -0.1276  0.2645  0.2543
15140TIP3    H166911   4.305   4.002   1.929 -1.1765 -0.5280 -0.2768
15140TIP3    H266912   4.344   4.001   2.075  1.2546  0.9421 -0.8511
15141TIP3   OH266913   0.831   3.688   2.886 -0.6231  0.1107  0.2526
15141TIP3    H166914   0.833   3.758   2.820  4.0445  0.2989  0.2107
15141TIP3    H266915   0.839   3.733   2.970  0.9139 -0.2430  0.3292
15142TIP3   OH266916   6.036   4.703   4.700  0.1354  0.3393  0.0710
15142TIP3    H166917   5.945   4.677   4.688  0.1219  0.7026 -0.6908
15142TIP3    H266918   6.031   4.798   4.715  0.4454  0.5354 -0.9706
15143TIP3   OH266919   1.941   3.507  14.513  0.3887  0.2293 -0.5546
15143TIP3    H166920   1.990   3.539  14.589 -0.1859  0.9460 -0.4809
15143TIP3    H266921   1.899   3.585  14.477 -1.1268 -0.4501 -0.3036
15144TIP3   OH266922   4.714   4.370   2.491 -0.4267  0.1001 -0.2795
15144TIP3    H166923   4.627   4.397   2.521 -0.8500 -0.4101 -1.0238
15144TIP3    H266924   4.719   4.401   2.400 -0.0208 -0.2917 -0.3931
15145TIP3   OH266925   4.414   4.389  13.329  0.1815 -0.0226  0.0689
15145TIP3    H166926   4.405   4.370  13.236 -1.1157  0.2129  0.1393
15145TIP3    H266927   4.431   4.304  13.370 -1.3593 -0.4569 -0.1331
15146TIP3   OH266928   4.779   6.506  12.961  0.6118  0.9612  0.2585
15146TIP3    H166929   4.804   6.572  13.026 -0.8225  1.6104  0.1779
15146TIP3    H266930   4.817   6.539  12.879  1.9757  0.4046  0.6289
15147TIP3   OH266931   6.022   2.056   5.575  0.3715  0.2899 -0.0943
15147TIP3    H166932   6.034   2.116   5.501 -1.9745  1.0231  0.0357
15147TIP3    H266933   6.051   2.105   5.651 -1.4717  1.3363  0.0020
15148TIP3   OH266934   4.518   1.611  16.173 -0.0090  0.6916 -0.4044
15148TIP3    H166935   4.586   1.678  16.166  0.1961  0.7242  1.4201
15148TIP3    H266936   4.515   1.571  16.087  0.9659  1.9909 -1.0810
15149TIP3   OH266937   6.411   0.865  14.555 -0.2815  0.0629  0.1681
15149TIP3    H166938   6.422   0.825  14.469 -0.0162 -0.4613  0.4388
15149TIP3    H266939   6.500   0.874  14.589 -0.4073 -0.1469  0.5678
15150TIP3   OH266940   4.122   1.304  14.580  0.3132 -0.1744  0.7372
15150TIP3    H166941   4.212   1.330  14.599  0.5697  0.7318 -1.3980
15150TIP3    H266942   4.125   1.209  14.578  1.4776 -0.1401 -0.2736
15151TIP3   OH266943   3.999   6.733   4.850  0.0056  0.0931 -0.6222
15151TIP3    H166944   4.047   6.809   4.817 -0.2131  0.8820  0.7885
15151TIP3    H266945   3.981   6.755   4.941 -1.9877 -0.7118 -0.7852
15152TIP3   OH266946   1.082   3.899   3.965 -0.3341 -0.4157 -0.4383
15152TIP3    H166947   1.092   3.918   4.059 -1.4796  0.0046 -0.3862
15152TIP3    H266948   1.166   3.861   3.940  0.2511  0.1240  0.6005
15153TIP3   OH266949   0.508   3.875   3.562 -0.0035 -0.0905  0.5075
15153TIP3    H166950   0.493   3.795   3.613  2.6822 -0.8171  0.2760
15153TIP3    H266951   0.545   3.936   3.624 -3.5683  1.7211  1.1083
15154TIP3   OH266952   1.553   1.544  15.210  0.3024  0.6229 -0.0986
15154TIP3    H166953   1.479   1.507  15.162  0.1707  0.2619  0.3750
15154TIP3    H266954   1.629   1.497  15.176 -0.0058 -1.0916  1.4528
15155TIP3   OH266955   0.413   3.906   6.327 -0.7290  0.0181 -0.1522
15155TIP3    H166956   0.340   3.855   6.361 -2.3255  0.7653 -2.2595
15155TIP3    H266957   0.449   3.852   6.256 -0.6061  0.5536 -0.5082
15156TIP3   OH266958   3.247   1.830   1.477 -0.1268  0.0736 -0.5609
15156TIP3    H166959   3.197   1.904   1.510  3.4779  1.9125  1.3143
15156TIP3    H266960   3.253   1.770   1.552 -2.4456 -1.9733 -1.8648
15157TIP3   OH266961   1.324   4.272   0.300 -0.5302  0.1876  0.3805
15157TIP3    H166962   1.348   4.265   0.393 -1.9736 -0.6488  0.7343
15157TIP3    H266963   1.249   4.332   0.300 -0.1136  0.7094 -0.3312
15158TIP3   OH266964   6.356   0.898  15.276 -0.3711 -0.3365 -0.5097
15158TIP3    H166965   6.368   0.804  15.283  0.1913 -0.2187  0.2193
15158TIP3    H266966   6.297   0.909  15.201  0.3085 -1.2129 -1.1921
15159TIP3   OH266967   2.204   4.832   1.809 -0.0792 -0.0386 -0.2466
15159TIP3    H166968   2.226   4.740   1.793  0.1455 -0.0576  0.1482
15159TIP3    H266969   2.117   4.843   1.771  0.0384 -0.3256 -0.6024
15160TIP3   OH266970   1.967   2.824  14.312 -0.0251  0.1142 -0.1300
15160TIP3    H166971   1.971   2.757  14.244 -2.0625  0.9493 -1.1777
15160TIP3    H266972   1.873   2.842  14.321  0.3469  1.4379  1.5131
15161TIP3   OH266973   1.618   6.344  16.946 -0.6372 -0.0039  0.0837
15161TIP3    H166974   1.546   6.330  17.007  0.8366 -2.0015  1.5252
15161TIP3    H266975   1.686   6.283  16.976  1.1055  0.7644 -2.0648
15162TIP3   OH266976   3.649   1.937  15.553 -0.2793 -0.3678  0.7750
15162TIP3    H166977   3.631   1.877  15.481  3.1810 -2.3555  1.3737
15162TIP3    H266978   3.653   1.881  15.630 -1.5343  1.3855  2.1961
15163TIP3   OH266979   5.817   4.436   1.125 -0.0586 -0.1231 -0.0342
15163TIP3    H166980   5.857   4.507   1.175  0.9721 -0.1216 -0.8337
15163TIP3    H266981   5.884   4.368   1.120 -0.8683 -0.9743  0.3200
15164TIP3   OH266982   5.259   6.026  12.629  1.1264  0.7447 -0.1397
15164TIP3    H166983   5.258   5.946  12.682  0.7280  0.1394 -1.0362
15164TIP3    H266984   5.172   6.029  12.590  1.0915  1.7035 -0.0066
15165TIP3   OH266985   2.626   3.154  12.170 -0.4076  0.0898  0.4113
15165TIP3    H166986   2.566   3.117  12.105 -0.0746 -0.0829  0.1980
15165TIP3    H266987   2.685   3.210  12.119 -0.1505 -0.0407  0.5647
15166TIP3   OH266988   1.394   3.623   2.676 -0.2087  0.4487 -0.4043
15166TIP3    H166989   1.376   3.567   2.752  1.9154 -1.2945 -1.1067
15166TIP3    H266990   1.316   3.615   2.621 -0.2427 -1.3095 -0.1489
15167TIP3   OH266991   4.464   3.327   2.053  0.0759 -0.0103 -0.3614
15167TIP3    H166992   4.426   3.334   2.140  2.3572 -1.2797  0.8275
15167TIP3    H266993   4.397   3.362   1.995 -1.3377  1.3104  1.9210
15168TIP3   OH266994   0.522   2.568   3.256 -0.0882 -0.8780 -0.1311
15168TIP3    H166995   0.516   2.525   3.170 -0.9983 -0.2558 -0.4008
15168TIP3    H266996   0.438   2.614   3.265  1.7300  2.9992 -1.0297
15169TIP3   OH266997   5.677   2.578   0.206 -0.0684 -0.2393 -0.5596
15169TIP3    H166998   5.636   2.493   0.188  1.4781 -0.7865 -1.6379
15169TIP3    H266999   5.765   2.557   0.236  0.0512  0.9767  0.0036
15170TIP3   OH267000   1.759   4.655  11.505  0.0934 -0.1222  0.8416
15170TIP3    H167001   1.766   4.586  11.571 -0.4494 -1.2871 -0.2853
15170TIP3    H267002   1.665   4.663  11.488  0.2631 -0.3314 -0.2890
15171TIP3   OH267003   4.710   0.626   4.065 -0.4123  0.7337  0.1698
15171TIP3    H167004   4.751   0.706   4.031 -1.4717  2.0691  1.8657
15171TIP3    H267005   4.630   0.656   4.108 -1.2418 -1.3591  0.2069
15172TIP3   OH267006   5.009   2.211   1.240 -1.0762  0.4550  0.1886
15172TIP3    H167007   4.963   2.268   1.302  0.1913  1.9405 -0.1972
15172TIP3    H267008   4.958   2.217   1.159 -0.2048  2.1797 -0.2710
15173TIP3   OH267009   5.654   2.488   5.573  0.2167 -0.3106 -0.0987
15173TIP3    H167010   5.596   2.423   5.532  1.4945 -0.7384 -1.2921
15173TIP3    H267011   5.723   2.436   5.614  0.3655  0.2341  0.3477
15174TIP3   OH267012   0.764   0.308  16.158 -0.0728 -0.2719  0.0269
15174TIP3    H167013   0.810   0.331  16.239  0.0271 -2.0384  0.5062
15174TIP3    H267014   0.707   0.383  16.141  1.8799  1.3296  0.2176
15175TIP3   OH267015   1.591   5.252   0.322  0.0811 -0.2142 -0.2273
15175TIP3    H167016   1.624   5.328   0.272  0.3681  0.1229  0.4610
15175TIP3    H267017   1.499   5.247   0.299  0.1039  0.2268 -0.4377
15176TIP3   OH267018   5.417   4.200   3.628  0.4245 -0.1579  0.1074
15176TIP3    H167019   5.405   4.206   3.533 -1.2575 -0.1137  0.2883
15176TIP3    H267020   5.333   4.229   3.664  1.4836  1.1579  1.6547
15177TIP3   OH267021   1.096   0.655   2.955 -0.1679  0.1184  0.1377
15177TIP3    H167022   1.090   0.749   2.970 -0.1196 -0.1753  2.3469
15177TIP3    H267023   1.132   0.620   3.037 -0.6240 -1.8655 -0.4576
15178TIP3   OH267024   3.356   4.152  12.578  0.2469  0.0908 -0.3056
15178TIP3    H167025   3.297   4.183  12.647 -1.2421 -0.8574 -1.1069
15178TIP3    H267026   3.338   4.208  12.503  0.2359 -0.3063 -0.6057
15179TIP3   OH267027   1.149   3.752   6.684  0.7601 -0.1627  0.7864
15179TIP3    H167028   1.063   3.793   6.691  0.6364 -0.2835 -0.0131
15179TIP3    H267029   1.160   3.707   6.768 -0.2678 -0.7613  0.6162
15180TIP3   OH267030   6.404   5.329   5.402  0.0874 -0.1487 -0.1829
15180TIP3    H167031   6.452   5.328   5.319 -0.2268 -0.2898 -0.3673
15180TIP3    H267032   6.436   5.406   5.448  1.4580 -0.9487  0.2770
15181TIP3   OH267033   4.454   6.395  12.166 -0.2720  0.0880 -0.3122
15181TIP3    H167034   4.428   6.340  12.240 -0.1585  0.2619 -0.1421
15181TIP3    H267035   4.539   6.360  12.140 -0.2825  0.0676 -0.3180
15182TIP3   OH267036   6.134   1.249   2.016  0.5769  0.2342 -0.2136
15182TIP3    H167037   6.168   1.299   2.091  1.0954  2.8928 -2.0785
15182TIP3    H267038   6.198   1.179   2.003  1.4101  0.7803  0.7881
15183TIP3   OH267039   4.956   3.367   2.730 -0.0155 -0.0662  0.4487
15183TIP3    H167040   4.894   3.439   2.742  0.7945  0.6110  0.6901
15183TIP3    H267041   4.909   3.290   2.762 -0.6306  0.4773  0.8946
15184TIP3   OH267042   0.139   0.378   2.997  0.6755  0.4170  0.3305
15184TIP3    H167043   0.045   0.368   2.981  0.8118 -2.4281  0.8353
15184TIP3    H267044   0.177   0.384   2.909  0.2968 -2.6919 -0.1815
15185TIP3   OH267045   1.973   4.746   5.227  0.2290 -0.2576 -0.4966
15185TIP3    H167046   1.982   4.827   5.277  1.0498  0.4460 -1.7295
15185TIP3    H267047   2.033   4.685   5.270  0.4527  0.1406 -0.2351
15186TIP3   OH267048   1.283   5.824   6.324  0.0959  0.5995  0.7738
15186TIP3    H167049   1.261   5.915   6.345  1.9759  1.0860  0.7747
15186TIP3    H267050   1.199   5.778   6.330 -1.0765  2.4707 -0.1327
15187TIP3   OH267051   4.668   6.260   1.155  0.1220 -0.5372 -0.4375
15187TIP3    H167052   4.650   6.221   1.069  0.4759 -2.0447  0.1423
15187TIP3    H267053   4.762   6.252   1.167 -0.1009 -1.7513  0.7230
15188TIP3   OH267054   6.252   1.972   0.234 -0.3092  0.1258 -0.4222
15188TIP3    H167055   6.328   1.996   0.286 -0.4485  1.2391 -0.7038
15188TIP3    H267056   6.260   1.877   0.221  0.9385  0.2056 -0.3225
15189TIP3   OH267057   2.964   2.290  15.734  0.2721  0.4622  0.3269
15189TIP3    H167058   2.956   2.201  15.769 -1.4893  0.3382 -0.2722
15189TIP3    H267059   2.952   2.280  15.640  1.9027  1.1539  0.0168
15190TIP3   OH267060   3.256   2.999   5.313 -0.9108  0.0005 -0.5969
15190TIP3    H167061   3.276   2.973   5.223  2.2841  0.5891 -0.1929
15190TIP3    H267062   3.207   3.080   5.304 -1.4949 -0.4628 -1.7973
15191TIP3   OH267063   6.463   1.932   1.741  0.5585 -0.4395 -0.3963
15191TIP3    H167064   6.415   1.946   1.660  1.2984  0.2326 -0.7350
15191TIP3    H267065   6.437   2.006   1.797 -0.3786 -1.1997  0.2045
15192TIP3   OH267066   6.812   3.034   2.016  0.0449  0.0835 -0.6699
15192TIP3    H167067   6.890   3.074   2.055  0.0431 -0.6425  0.1016
15192TIP3    H267068   6.819   2.941   2.037 -2.5867  0.3773  2.2190
15193TIP3   OH267069   6.484   3.563  16.672  0.8603  0.0660  0.2512
15193TIP3    H167070   6.459   3.497  16.607 -0.3966  0.5613  0.2059
15193TIP3    H267071   6.562   3.604  16.635 -0.8549  1.6192 -1.9388
15194TIP3   OH267072   4.714   3.373   5.494 -0.0928  0.1222 -0.3982
15194TIP3    H167073   4.661   3.302   5.458 -0.4919 -0.1448  0.6751
15194TIP3    H267074   4.699   3.368   5.588  2.6209 -0.5900  0.0754
15195TIP3   OH267075   2.112   5.493  13.203  0.5522  1.1147  0.0620
15195TIP3    H167076   2.157   5.525  13.125  0.8665  1.7525  0.4914
15195TIP3    H267077   2.049   5.430  13.170  1.5093  0.4690 -0.5983
15196TIP3   OH267078   4.716   3.506   3.558  0.9083  0.2759 -0.2538
15196TIP3    H167079   4.800   3.460   3.552  1.0775  0.0321  2.4198
15196TIP3    H267080   4.650   3.436   3.560  1.0620  0.0935  2.3159
15197TIP3   OH267081   4.912   3.691  12.471  0.1718  0.2370 -0.3576
15197TIP3    H167082   4.919   3.710  12.564 -0.4632  1.6994 -0.5785
15197TIP3    H267083   4.993   3.643  12.450 -0.4529 -1.6237  1.2489
15198TIP3   OH267084   1.033   1.343   0.695 -0.0325  0.4408 -0.1892
15198TIP3    H167085   0.955   1.395   0.680  0.4397  0.8964 -1.1977
15198TIP3    H267086   1.093   1.369   0.625 -0.6227 -3.1416 -2.2793
15199TIP3   OH267087   0.134   5.458  13.148 -0.2827  0.0707  0.4198
15199TIP3    H167088   0.155   5.474  13.240 -1.5789 -0.5755  0.8553
15199TIP3    H267089   0.046   5.421  13.150 -0.6147  0.7247 -1.1487
15200TIP3   OH267090   6.490   0.303   3.350  0.4750  0.4138 -0.4952
15200TIP3    H167091   6.581   0.274   3.354  1.1196  2.4044  0.4173
15200TIP3    H267092   6.476   0.322   3.257  0.7625 -0.5168 -0.7418
15201TIP3   OH267093   4.608   6.417   2.382 -0.3544  0.1297 -0.3710
15201TIP3    H167094   4.595   6.509   2.406  0.9022  0.2905 -0.2310
15201TIP3    H267095   4.527   6.393   2.336 -1.5770  0.6780  1.4023
15202TIP3   OH267096   3.550   5.360   0.368  0.0115 -0.3339 -0.1473
15202TIP3    H167097   3.505   5.305   0.432 -1.3040  1.3956  0.5166
15202TIP3    H267098   3.635   5.378   0.408 -1.7774  3.0589  2.7578
15203TIP3   OH267099   2.972   4.230  11.654 -0.3429  0.5886 -0.0520
15203TIP3    H167100   3.014   4.247  11.569 -2.3987  1.2713 -1.0033
15203TIP3    H267101   3.041   4.243  11.718  1.3048 -0.0329 -1.6284
15204TIP3   OH267102   0.418   2.399   4.216  0.1632  0.3188  0.3175
15204TIP3    H167103   0.485   2.390   4.149  1.3012  3.1641  0.9011
15204TIP3    H267104   0.340   2.431   4.170  0.7315  1.5947  0.1933
15205TIP3   OH267105   4.626   1.293   2.414  0.2403 -0.2116 -0.1366
15205TIP3    H167106   4.554   1.353   2.395  0.1164  0.5210  2.3335
15205TIP3    H267107   4.696   1.320   2.354 -1.1713 -0.3157 -1.9046
15206TIP3   OH267108   2.594   3.040   1.817  0.2759 -0.2531  0.0637
15206TIP3    H167109   2.579   2.945   1.814  2.4661 -0.6527 -0.0138
15206TIP3    H267110   2.655   3.051   1.891 -0.2402  1.1462  0.2918
15207TIP3   OH267111   0.416   3.133   3.860 -0.1203 -0.2866 -0.3105
15207TIP3    H167112   0.450   3.102   3.944  0.1430 -0.4755 -0.4823
15207TIP3    H267113   0.325   3.103   3.859  0.1314 -1.0816 -0.4737
15208TIP3   OH267114   0.830   4.083   5.915  0.5857  0.6616 -0.2466
15208TIP3    H167115   0.736   4.080   5.894  0.6239  1.7847 -0.6211
15208TIP3    H267116   0.862   3.995   5.892 -0.4501  0.1203  0.3004
15209TIP3   OH267117   0.024   3.963  13.550  0.3413  0.4413 -0.4177
15209TIP3    H167118   0.019   4.057  13.532  0.6916  0.5040 -0.2012
15209TIP3    H267119   0.030   3.957  13.645  1.1203  0.2412 -0.4724
15210TIP3   OH267120   6.098   3.604  10.466  0.0577 -0.1513 -0.4735
15210TIP3    H167121   6.168   3.658  10.427  1.2276 -0.9614  0.4184
15210TIP3    H267122   6.035   3.668  10.500  1.6513  0.7459  1.0171
15211TIP3   OH267123   6.112   0.968   3.822  0.1187  0.5072  0.2740
15211TIP3    H167124   6.110   0.897   3.757 -3.0830 -0.0738  0.8225
15211TIP3    H267125   6.134   1.046   3.772  0.4216 -0.3475 -0.9707
15212TIP3   OH267126   3.421   1.149  16.175 -0.1241 -0.1391  0.4890
15212TIP3    H167127   3.385   1.061  16.188 -1.7183  0.6350  1.5689
15212TIP3    H267128   3.384   1.178  16.092 -1.6707  0.4426  1.3345
15213TIP3   OH267129   3.526   6.618  16.146 -0.0208  0.3839  0.1801
15213TIP3    H167130   3.598   6.679  16.131  1.3782 -0.8318  1.5787
15213TIP3    H267131   3.565   6.532  16.132 -0.7324 -0.3830  2.4873
15214TIP3   OH267132   3.397   1.710   5.021  0.1326 -0.0424 -0.4494
15214TIP3    H167133   3.415   1.624   5.059  0.5506 -1.3264 -3.2987
15214TIP3    H267134   3.482   1.755   5.022  0.6811 -0.9695 -1.8522
15215TIP3   OH267135   5.582   2.934  16.179 -0.3718 -0.4646  0.2425
15215TIP3    H167136   5.558   2.882  16.255  1.3904  0.4304  1.4736
15215TIP3    H267137   5.674   2.915  16.164  0.5981  2.7630  1.2586
15216TIP3   OH267138   4.812   1.612   4.376  0.1680  0.1592  0.0185
15216TIP3    H167139   4.837   1.566   4.456  2.0761  1.1180  0.0382
15216TIP3    H267140   4.718   1.597   4.367  0.0367 -0.4859  2.0933
15217TIP3   OH267141   1.933   1.886  13.233  0.2505  0.3754 -0.0404
15217TIP3    H167142   1.900   1.839  13.310 -0.1136  0.0806 -0.3737
15217TIP3    H267143   1.868   1.955  13.218  0.1116  0.1845 -0.3219
15218TIP3   OH267144   6.095   3.310  10.828 -1.2041 -0.1969 -0.6020
15218TIP3    H167145   6.124   3.224  10.858  2.0642  1.7406  2.6871
15218TIP3    H267146   6.130   3.317  10.739  2.5335 -0.8231  0.6017
15219TIP3   OH267147   3.509   3.965  15.802 -0.0487 -0.6413 -0.2677
15219TIP3    H167148   3.564   3.907  15.854  0.9435  0.8476  0.4291
15219TIP3    H267149   3.462   4.017  15.867  1.6094  1.6214 -0.7534
15220TIP3   OH267150   4.373   0.349   0.894  0.0123  0.0462 -0.1390
15220TIP3    H167151   4.345   0.419   0.953 -1.4637 -1.7701  1.4551
15220TIP3    H267152   4.466   0.336   0.913 -0.0362  0.6485  0.5322
15221TIP3   OH267153   0.952   6.673   0.938 -0.6406  0.0483 -0.3841
15221TIP3    H167154   0.988   6.748   0.891 -1.1812  0.5832  0.0215
15221TIP3    H267155   1.008   6.665   1.016 -1.1301  0.6267  0.0423
15222TIP3   OH267156   2.483   5.849  10.645 -0.2987  0.2661 -0.2492
15222TIP3    H167157   2.389   5.833  10.642 -0.3350  0.2118  0.9033
15222TIP3    H267158   2.521   5.767  10.674  0.1400  0.2085 -0.9559
15223TIP3   OH267159   4.905   3.884  16.368 -0.2359  0.5009  0.6412
15223TIP3    H167160   4.925   3.951  16.432  1.5289  0.8816 -0.2305
15223TIP3    H267161   4.911   3.928  16.283  1.6276 -0.8279  0.0085
15224TIP3   OH267162   3.331   1.636   0.141  0.1638  0.3513 -0.1328
15224TIP3    H167163   3.387   1.562   0.120  1.1179  0.8879  0.4187
15224TIP3    H267164   3.299   1.618   0.230 -0.0173  0.3510 -0.1979
15225TIP3   OH267165   4.857   6.521   3.589  0.0014 -0.0003  0.3835
15225TIP3    H167166   4.952   6.519   3.591  0.0187 -0.0471 -0.3065
15225TIP3    H267167   4.831   6.432   3.566 -0.2717 -0.4070  2.1115
15226TIP3   OH267168   3.816   0.039  16.909  0.1101  0.1736  0.2900
15226TIP3    H167169   3.755   0.034  16.835 -0.2619 -0.7135  0.6427
15226TIP3    H267170   3.789  -0.032  16.967 -0.2415  1.4742  1.7797
15227TIP3   OH267171   0.563   5.048  12.768 -0.2338  0.2391 -0.4119
15227TIP3    H167172   0.620   4.989  12.817  0.6265  0.9344 -0.5468
15227TIP3    H267173   0.534   4.996  12.693 -0.4809 -0.3951  0.1111
15228TIP3   OH267174   4.842   4.873   3.786  0.0166 -0.1350  0.0974
15228TIP3    H167175   4.808   4.859   3.698 -1.4589 -0.7467  0.7331
15228TIP3    H267176   4.937   4.861   3.778  0.2279  2.1118 -1.8358
15229TIP3   OH267177   2.674   3.721   0.028  0.2336 -0.4612  0.1099
15229TIP3    H167178   2.694   3.630   0.005 -0.1144 -0.7032  0.7371
15229TIP3    H267179   2.702   3.772  -0.048  1.0746 -1.0183  0.0403
15230TIP3   OH267180   5.615   6.437  16.222  0.3477 -0.2082  0.0477
15230TIP3    H167181   5.709   6.453  16.213  0.0928  1.8591  0.6791
15230TIP3    H267182   5.602   6.422  16.316  0.2536 -2.3299 -0.2448
15231TIP3   OH267183   2.553   2.057   5.718  0.0504 -0.3218  0.1422
15231TIP3    H167184   2.526   1.998   5.647 -0.1943  1.3103 -1.1805
15231TIP3    H267185   2.605   2.124   5.675 -0.5444  1.0183  1.4337
15232TIP3   OH267186   6.702   0.480   0.299  0.1325  0.4688 -0.8285
15232TIP3    H167187   6.608   0.475   0.283  0.3631 -3.5911 -2.0860
15232TIP3    H267188   6.738   0.511   0.216 -0.0537  3.5152  0.1198
15233TIP3   OH267189   1.506   0.602   0.956 -0.2725  0.4856  0.5072
15233TIP3    H167190   1.489   0.602   1.050  2.3530 -1.1450  1.0998
15233TIP3    H267191   1.553   0.684   0.940  0.3674  0.2081  0.9039
15234TIP3   OH267192   6.561   5.048   3.255 -0.3399  0.0334 -0.1489
15234TIP3    H167193   6.512   5.130   3.262  0.8693  0.7360  0.3863
15234TIP3    H267194   6.557   5.010   3.342 -0.5584 -0.2882 -0.2966
15235TIP3   OH267195   0.552   1.295  10.374 -0.1647 -0.4038  0.3262
15235TIP3    H167196   0.495   1.372  10.382  0.2340 -0.1373  0.6575
15235TIP3    H267197   0.612   1.303  10.448  0.2033 -0.7650  0.0648
15236TIP3   OH267198   1.819   3.510   6.798 -0.3630  0.2468  0.0386
15236TIP3    H167199   1.747   3.564   6.765 -0.8817 -0.6630 -0.3455
15236TIP3    H267200   1.777   3.439   6.845  0.3126  0.1167  0.4584
15237TIP3   OH267201   6.032   0.241  12.532  0.0242 -0.5756 -0.2019
15237TIP3    H167202   5.979   0.226  12.454  0.6039 -1.8691 -0.3720
15237TIP3    H267203   5.997   0.322  12.570 -1.1671 -0.6714 -1.0438
15238TIP3   OH267204   0.179   4.672  11.496 -0.0037  0.0814  0.5092
15238TIP3    H167205   0.096   4.687  11.543  0.3869  0.6348  1.0407
15238TIP3    H267206   0.174   4.730  11.420 -0.5636 -0.6881 -0.0587
15239TIP3   OH267207   5.234   5.742  12.132 -0.3108 -0.3529 -0.0799
15239TIP3    H167208   5.323   5.727  12.164  0.7228  1.2945 -1.9007
15239TIP3    H267209   5.221   5.677  12.064  0.2376  0.5028 -1.0341
15240TIP3   OH267210   0.887   6.651   5.736 -1.0249  0.0555 -0.0763
15240TIP3    H167211   0.938   6.598   5.674  0.4720  0.1170  1.0458
15240TIP3    H267212   0.808   6.675   5.687  0.8095  1.5224 -2.5642
15241TIP3   OH267213   6.684   4.851  10.751 -0.0953 -0.1501 -0.0759
15241TIP3    H167214   6.747   4.916  10.720  0.7024 -1.4326 -1.2732
15241TIP3    H267215   6.699   4.775  10.694 -0.5901 -1.5918  1.6450
15242TIP3   OH267216   6.127   5.020  17.028 -0.8391 -0.1258  0.1734
15242TIP3    H167217   6.046   5.044  16.983 -2.1591 -2.1353  1.3034
15242TIP3    H267218   6.157   4.940  16.984  1.0326  1.0001 -0.7382
15243TIP3   OH267219   1.067   0.805  13.177 -0.1138  0.2506  0.7828
15243TIP3    H167220   0.977   0.837  13.166 -0.3865 -0.5031  0.7870
15243TIP3    H267221   1.066   0.716  13.142  0.2130 -0.3771  2.2855
15244TIP3   OH267222   0.238   2.728  15.947  0.6126  0.5738  0.2098
15244TIP3    H167223   0.146   2.725  15.975  0.5053 -2.1710 -0.2321
15244TIP3    H267224   0.234   2.745  15.853  0.7145  2.5195  0.4987
15245TIP3   OH267225   4.608   0.286   2.241 -0.4236  0.1297  0.4302
15245TIP3    H167226   4.579   0.218   2.181  0.2100 -0.1608  0.4446
15245TIP3    H267227   4.702   0.269   2.253 -0.4600  0.4248  1.1811
15246TIP3   OH267228   5.996   5.584   3.485  0.0602  0.6237 -0.0540
15246TIP3    H167229   6.091   5.598   3.482  0.0059  0.8541 -0.9225
15246TIP3    H267230   5.968   5.589   3.393 -0.6747 -0.2946  0.1126
15247TIP3   OH267231   3.141   4.087   1.992 -0.1120 -0.4932 -0.3815
15247TIP3    H167232   3.106   4.072   1.904  1.3063 -0.0797 -1.0358
15247TIP3    H267233   3.105   4.015   2.044 -0.6630 -0.9631 -1.3882
15248TIP3   OH267234   0.931   2.428  15.429 -0.0037 -0.2576 -0.0503
15248TIP3    H167235   1.002   2.423  15.366 -0.6382 -1.0915 -0.7338
15248TIP3    H267236   0.851   2.426  15.375 -0.5504 -0.4436  0.7411
15249TIP3   OH267237   5.219   6.821  12.762  0.3458 -0.4520  0.0605
15249TIP3    H167238   5.229   6.833  12.668 -1.1412  1.8420  0.1217
15249TIP3    H267239   5.234   6.727  12.776  0.5116 -0.8624 -2.4446
15250TIP3   OH267240   0.805   1.047   3.196  0.0337 -0.2627 -0.3679
15250TIP3    H167241   0.803   0.960   3.236  1.7221 -0.0661  0.2250
15250TIP3    H267242   0.731   1.094   3.235 -0.2294 -1.0736  0.1228
15251TIP3   OH267243   0.162   4.331  15.597  0.3472 -0.2618  0.3475
15251TIP3    H167244   0.086   4.342  15.539  1.2422 -0.7959 -0.9838
15251TIP3    H267245   0.189   4.420  15.618 -2.2250  0.0185  3.0882
15252TIP3   OH267246   4.230   0.145   4.406  0.2653  0.1133  0.0874
15252TIP3    H167247   4.265   0.056   4.402 -0.3889 -0.2092  1.1546
15252TIP3    H267248   4.209   0.166   4.315  0.7319 -0.6904 -0.2233
15253TIP3   OH267249   2.222   6.014   0.517  0.0043  0.9223  0.0287
15253TIP3    H167250   2.222   6.057   0.432  0.0796  2.3613  0.7292
15253TIP3    H267251   2.294   6.056   0.565  0.2896 -0.2229  0.6290
15254TIP3   OH267252   1.191   3.370   4.746  0.1995 -0.0973 -1.1649
15254TIP3    H167253   1.206   3.337   4.835  1.3083 -0.6825 -1.5565
15254TIP3    H267254   1.163   3.293   4.697 -0.3850  0.2217 -1.3415
15255TIP3   OH267255   5.178   2.773  11.601  0.3389  0.1397 -0.6792
15255TIP3    H167256   5.128   2.773  11.682 -2.2739  2.5224 -2.0841
15255TIP3    H267257   5.136   2.706  11.547 -0.6058  1.2782 -1.4110
15256TIP3   OH267258   2.235   2.697  15.092  0.1448  0.2716 -0.0833
15256TIP3    H167259   2.191   2.637  15.153  0.0444  0.5612  0.1289
15256TIP3    H267260   2.163   2.742  15.047  0.1409  2.8555  2.2925
15257TIP3   OH267261   6.147   1.837  11.714  0.2401  0.9300 -0.0578
15257TIP3    H167262   6.102   1.914  11.678 -0.6860  0.6550  0.4773
15257TIP3    H267263   6.238   1.847  11.685  0.0953  2.1194 -0.1739
15258TIP3   OH267264   5.036   5.237  16.929 -1.1454  0.2792  0.4442
15258TIP3    H167265   5.102   5.292  16.971 -1.5301  0.1663  1.2165
15258TIP3    H267266   5.048   5.150  16.967 -1.9596  0.3361  0.8722
15259TIP3   OH267267   4.287   2.531   2.912  0.1612 -0.1530 -0.0887
15259TIP3    H167268   4.226   2.485   2.855 -0.3551  0.4819 -0.0619
15259TIP3    H267269   4.250   2.522   3.000 -0.2326  0.7415 -0.1471
15260TIP3   OH267270   5.473   1.086  12.878 -0.3719  0.2171  0.1573
15260TIP3    H167271   5.543   1.082  12.944  1.1426  1.0023 -1.3188
15260TIP3    H267272   5.502   1.026  12.809 -1.0844  0.6773 -0.5534
15261TIP3   OH267273   0.797   0.809  12.865 -0.3205  0.1481 -0.1182
15261TIP3    H167274   0.863   0.745  12.840 -0.0281  0.2362  0.4116
15261TIP3    H267275   0.714   0.762  12.857 -0.4587  0.7122 -3.0768
15262TIP3   OH267276   6.020   1.219  14.670  0.4886  0.5765 -0.1404
15262TIP3    H167277   6.080   1.191  14.600 -0.4717  0.2180 -0.8400
15262TIP3    H267278   5.945   1.255  14.623  0.2690  1.2833  0.7306
15263TIP3   OH267279   3.595   0.491   4.893 -0.0530  0.5056 -0.7533
15263TIP3    H167280   3.678   0.538   4.887  0.4001 -0.3044 -0.8326
15263TIP3    H267281   3.536   0.553   4.937  0.4409  1.2763 -1.1609
15264TIP3   OH267282   0.298   1.902   2.184  0.2165 -0.8528 -0.3538
15264TIP3    H167283   0.344   1.818   2.187  0.5561 -0.7205 -1.3809
15264TIP3    H267284   0.285   1.919   2.091 -1.4758 -0.6352 -0.1247
15265TIP3   OH267285   4.293   3.254  14.823 -0.4293 -0.0188  0.0667
15265TIP3    H167286   4.383   3.270  14.793 -0.7637 -0.8032 -1.4528
15265TIP3    H267287   4.270   3.169  14.785 -1.7412  0.0592  0.6354
15266TIP3   OH267288   4.944   4.924   0.762  0.1826 -0.0251  0.3456
15266TIP3    H167289   4.904   4.864   0.699 -1.2588 -1.9303  2.8633
15266TIP3    H267290   4.978   4.867   0.831  1.0837  1.9492  1.6333
15267TIP3   OH267291   1.221   5.106  17.143 -0.1915  0.0604  0.3392
15267TIP3    H167292   1.192   5.049  17.071 -2.9682  1.6431  0.0686
15267TIP3    H267293   1.313   5.125  17.123 -0.2723 -1.2870 -1.5903
15268TIP3   OH267294   2.490   3.954  14.401  0.0885 -0.1619 -0.0317
15268TIP3    H167295   2.530   3.904  14.330  1.5289 -0.0138  0.6482
15268TIP3    H267296   2.509   4.045  14.381  1.8007 -0.1862  1.2562
15269TIP3   OH267297   5.055   0.012   2.250 -0.0727 -0.4759 -0.1116
15269TIP3    H167298   5.131   0.068   2.235  1.2710 -0.8575  3.9191
15269TIP3    H267299   4.983   0.074   2.261  0.6381  0.2532  0.6276
15270TIP3   OH267300   1.156   0.872  13.421  0.1320  0.2114 -0.4423
15270TIP3    H167301   1.248   0.896  13.408  1.3238 -2.8222  1.3796
15270TIP3    H267302   1.122   0.859  13.333  1.4475  1.3098 -1.1488
15271TIP3   OH267303   6.621   2.238  12.756 -0.3768 -0.3298 -0.1990
15271TIP3    H167304   6.602   2.149  12.786 -0.5933 -0.1101  0.3330
15271TIP3    H267305   6.661   2.281  12.832 -1.2593  0.3453 -0.0965
15272TIP3   OH267306   0.619   4.493   5.537  0.0560  0.0283 -0.1807
15272TIP3    H167307   0.650   4.424   5.478 -1.4286 -0.2729 -0.6633
15272TIP3    H267308   0.632   4.458   5.625 -1.2925 -1.2015 -0.4231
15273TIP3   OH267309   0.644   3.164   4.788  0.3407 -0.2939  0.0089
15273TIP3    H167310   0.726   3.148   4.743 -1.1613 -0.6800 -2.8490
15273TIP3    H267311   0.639   3.259   4.796  1.3303 -0.2942  0.8493
15274TIP3   OH267312   1.627   0.111   6.096  0.1803 -0.0919 -0.6330
15274TIP3    H167313   1.573   0.158   6.159  0.4398  0.5891 -0.9143
15274TIP3    H267314   1.670   0.043   6.148 -1.2533 -0.9217 -0.4841
15275TIP3   OH267315   3.649   4.693  14.774 -0.1743  0.2121  0.3994
15275TIP3    H167316   3.681   4.779  14.745  0.2747 -0.1455 -0.1906
15275TIP3    H267317   3.663   4.693  14.868  1.9124 -0.0312  0.1513
15276TIP3   OH267318   4.557   2.743  14.676  0.0007  0.6374 -0.2484
15276TIP3    H167319   4.643   2.750  14.635 -0.3446  2.5074 -0.7285
15276TIP3    H267320   4.571   2.682  14.749  0.8806 -1.8922 -2.3744
15277TIP3   OH267321   6.514   5.831   3.638  0.9922 -0.1897  0.0205
15277TIP3    H167322   6.581   5.786   3.689 -0.9549 -0.7071  2.2880
15277TIP3    H267323   6.462   5.761   3.599 -1.6304 -0.1345  3.0101
15278TIP3   OH267324   1.114   1.601   2.745  0.3599  0.3157 -0.4534
15278TIP3    H167325   1.116   1.535   2.675 -2.0343 -1.0319  0.6220
15278TIP3    H267326   1.172   1.566   2.812  0.8535  0.4587 -0.7975
15279TIP3   OH267327   0.943   1.681   3.770  0.1669 -0.1213  0.0630
15279TIP3    H167328   0.872   1.663   3.708  0.1649  1.9250 -0.6154
15279TIP3    H267329   0.908   1.655   3.855 -0.6897 -0.8487 -0.4919
15280TIP3   OH267330   4.553   1.060  16.636  0.3623 -0.5858  0.0684
15280TIP3    H167331   4.574   0.970  16.660 -1.0517 -0.8650  0.3411
15280TIP3    H267332   4.565   1.063  16.541 -0.4963 -1.3292 -0.0706
15281TIP3   OH267333   1.867   0.383  12.911 -0.8558 -0.1815  0.1427
15281TIP3    H167334   1.866   0.470  12.952 -1.6438 -0.2435  0.2706
15281TIP3    H267335   1.958   0.355  12.916 -0.2142  1.4118 -1.5334
15282TIP3   OH267336   4.847   3.084   3.910 -0.0536 -0.0911 -0.1757
15282TIP3    H167337   4.853   3.044   3.997 -0.9609 -0.8935 -0.4632
15282TIP3    H267338   4.759   3.123   3.908 -0.2731 -0.5897 -0.9284
15283TIP3   OH267339   0.850   3.793   5.891  0.5256  0.4285  0.2817
15283TIP3    H167340   0.936   3.751   5.884 -0.0786 -0.5993 -2.2702
15283TIP3    H267341   0.806   3.745   5.962  2.6075  2.2349  2.9784
15284TIP3   OH267342   5.132   5.188  11.366 -0.2118  0.0129 -0.0321
15284TIP3    H167343   5.097   5.159  11.451 -1.1241 -0.1433 -0.4573
15284TIP3    H267344   5.227   5.186  11.378 -0.3163 -0.6288  0.7861
15285TIP3   OH267345   0.151   5.659   1.604 -0.1270  0.4387 -0.2280
15285TIP3    H167346   0.142   5.633   1.696 -1.0167  1.2327 -0.0814
15285TIP3    H267347   0.241   5.692   1.598 -0.7795  2.6625  0.9841
15286TIP3   OH267348   5.370   6.035   4.240 -0.2671  0.1836 -0.1344
15286TIP3    H167349   5.381   6.060   4.332 -1.5472 -1.6242  0.5480
15286TIP3    H267350   5.345   5.943   4.243 -1.9952  0.5257 -2.2141
15287TIP3   OH267351   5.772   5.449   3.944  0.2583 -0.6290 -0.2134
15287TIP3    H167352   5.762   5.395   3.866  2.5038 -1.4703 -0.0163
15287TIP3    H267353   5.838   5.514   3.919 -0.7649  0.6395  0.2671
15288TIP3   OH267354   0.365   1.925   4.695 -0.0947  0.1171 -1.1969
15288TIP3    H167355   0.374   1.835   4.727 -2.8950  0.2451  0.2787
15288TIP3    H267356   0.438   1.971   4.736  0.1725 -1.0836 -0.2289
15289TIP3   OH267357   2.690   2.074   3.550 -0.1669 -0.3468 -0.2444
15289TIP3    H167358   2.767   2.110   3.506  1.3899 -2.4576  0.6240
15289TIP3    H267359   2.661   2.003   3.493  0.2887 -1.4113  0.8258
15290TIP3   OH267360   0.099   5.646   3.098 -0.0504 -0.3700  0.2355
15290TIP3    H167361   0.051   5.601   3.167  0.8500 -0.9975  0.4743
15290TIP3    H267362   0.057   5.732   3.091  0.0201 -0.1862  1.7604
15291TIP3   OH267363   1.053   6.468  14.390  0.3161  0.2619 -0.8632
15291TIP3    H167364   1.095   6.554  14.378 -1.0414  1.2779  1.1442
15291TIP3    H267365   1.122   6.405  14.367  2.2673  1.8578  0.2696
15292TIP3   OH267366   3.037   0.987   0.055  0.2153  0.0964 -0.0989
15292TIP3    H167367   3.131   1.000   0.039  0.0570  0.5705 -0.7002
15292TIP3    H267368   3.022   0.895   0.032  0.3784  0.2404 -0.8370
15293TIP3   OH267369   6.454   2.393  14.035 -0.1384  0.1906 -0.0177
15293TIP3    H167370   6.413   2.433  14.111  0.6953  0.5270  0.2627
15293TIP3    H267371   6.509   2.462  13.998 -0.6983  0.1027 -1.0571
15294TIP3   OH267372   5.821   3.145  15.427 -0.4753 -0.2605 -0.4191
15294TIP3    H167373   5.745   3.198  15.449  0.2098  0.5401  0.1011
15294TIP3    H267374   5.837   3.092  15.505 -0.8984 -0.9329 -0.7784
15295TIP3   OH267375   6.716   1.388   3.965 -0.5002 -0.4004 -0.0068
15295TIP3    H167376   6.633   1.411   4.007 -0.8624  0.1524 -0.9828
15295TIP3    H267377   6.735   1.299   3.995  0.1622  0.5553  2.7095
15296TIP3   OH267378   2.468   6.748  14.949  0.2651 -0.0996 -0.3635
15296TIP3    H167379   2.561   6.767  14.960  0.0739  0.3622  0.5016
15296TIP3    H267380   2.451   6.675  15.008 -0.2078  0.7001  0.5108
15297TIP3   OH267381   6.800   0.544   0.062  0.0081 -0.3290 -0.3556
15297TIP3    H167382   6.714   0.574   0.030  0.3359 -0.3876 -1.3340
15297TIP3    H267383   6.862   0.578  -0.002  0.5868 -1.3944 -0.3880
15298TIP3   OH267384   2.377   2.965  15.111 -0.8380 -0.4005  0.0457
15298TIP3    H167385   2.447   2.952  15.175  1.0865  0.5232 -1.7486
15298TIP3    H267386   2.336   2.879  15.102  1.5855 -1.5753 -0.5256
15299TIP3   OH267387   2.449   5.887   2.046 -0.5454 -0.2056 -0.2721
15299TIP3    H167388   2.467   5.801   2.009 -0.5534  0.0725 -0.9525
15299TIP3    H267389   2.392   5.871   2.121  0.3594 -0.8825  0.2935
15300TIP3   OH267390   2.160   4.072  15.793  0.1413 -0.6900  0.1376
15300TIP3    H167391   2.198   4.000  15.844  0.0699 -1.1288 -0.4156
15300TIP3    H267392   2.234   4.108  15.744 -0.1032 -1.4989 -0.8853
15301TIP3   OH267393   3.750   0.126   1.628  0.3770 -0.2468 -0.1601
15301TIP3    H167394   3.766   0.040   1.668 -0.4393 -0.4835 -0.3185
15301TIP3    H267395   3.835   0.152   1.593  0.4119 -1.5064 -1.0903
15302TIP3   OH267396   6.668   2.378   2.611 -0.6067 -0.2476 -0.0390
15302TIP3    H167397   6.710   2.317   2.671  3.3042  0.8090 -1.4152
15302TIP3    H267398   6.663   2.330   2.528  0.5698  0.5699 -0.6017
15303TIP3   OH267399   2.534   5.004   1.530 -0.0931  0.3695 -0.0895
15303TIP3    H167400   2.564   5.065   1.463 -0.1618 -0.8763 -1.2932
15303TIP3    H267401   2.470   4.948   1.485  0.9457 -1.4399  0.5909
15304TIP3   OH267402   0.662   2.004   4.724  0.2203 -0.1028 -0.3600
15304TIP3    H167403   0.721   2.008   4.799  1.0808 -1.2792 -0.9399
15304TIP3    H267404   0.719   2.009   4.648 -0.5158 -0.2970 -0.9435
15305TIP3   OH267405   3.312   0.185   3.298  1.2405  0.2574  0.1679
15305TIP3    H167406   3.404   0.187   3.322  1.4623 -0.3600 -0.6042
15305TIP3    H267407   3.303   0.254   3.232  1.3905 -0.3874 -0.5435
15306TIP3   OH267408   3.982   1.990   2.656 -0.0302  0.5942 -0.2049
15306TIP3    H167409   4.047   1.925   2.680  2.7136  3.5632  1.1325
15306TIP3    H267410   3.925   1.945   2.594  2.8692 -2.4292 -0.9535
15307TIP3   OH267411   5.205   2.577   0.592 -0.1267 -0.2781 -0.4656
15307TIP3    H167412   5.169   2.507   0.538 -2.7697  0.7509 -0.2112
15307TIP3    H267413   5.212   2.652   0.532 -2.4364  0.6767  0.3238
15308TIP3   OH267414   1.544   1.358   3.411  0.1836  0.7015 -0.2114
15308TIP3    H167415   1.529   1.263   3.412  1.0415  0.5226 -1.7492
15308TIP3    H267416   1.598   1.375   3.488  1.5154 -0.3599 -0.8664
15309TIP3   OH267417   4.331   3.975   5.413  0.0431 -0.0449 -0.3005
15309TIP3    H167418   4.324   4.030   5.335  2.0423 -0.3471 -0.7575
15309TIP3    H267419   4.311   4.033   5.486 -3.6361 -0.1563 -1.0349
15310TIP3   OH267420   3.066   6.499  11.469  0.1696  0.1869 -0.2162
15310TIP3    H167421   3.038   6.590  11.454 -0.3882  0.0210 -0.1828
15310TIP3    H267422   3.117   6.477  11.391 -2.4626 -0.5729 -1.8201
15311TIP3   OH267423   3.921   5.706   1.608  0.3046 -0.1571 -0.0563
15311TIP3    H167424   4.009   5.716   1.570  0.0695  1.6141 -0.1968
15311TIP3    H267425   3.932   5.638   1.674  1.6771 -0.3024 -0.3967
15312TIP3   OH267426   2.054   2.883  15.497 -0.2105 -0.3316  0.2199
15312TIP3    H167427   2.143   2.867  15.466 -0.8459 -2.1840 -0.8035
15312TIP3    H267428   2.052   2.847  15.585 -0.2363 -1.4046 -0.2001
15313TIP3   OH267429   4.991   4.165  12.873 -0.5305 -0.0822 -0.2163
15313TIP3    H167430   4.917   4.203  12.919 -0.5859 -0.6149  0.1373
15313TIP3    H267431   5.016   4.089  12.925  1.0362  0.7600  0.3416
15314TIP3   OH267432   6.587   4.087  14.806  0.1544 -0.4458 -0.1843
15314TIP3    H167433   6.610   4.150  14.875  0.6066 -0.6738 -0.1259
15314TIP3    H267434   6.565   4.141  14.731  0.5023 -0.2144 -0.1216
15315TIP3   OH267435   4.562   4.452  12.226 -0.1806 -0.8089  0.2792
15315TIP3    H167436   4.543   4.374  12.174 -0.4018 -1.4578  1.3122
15315TIP3    H267437   4.553   4.424  12.317 -1.7314  0.7745  0.6774
15316TIP3   OH267438   3.169   5.522   2.214 -0.0357  0.1546  0.7003
15316TIP3    H167439   3.241   5.538   2.276  0.3077  1.9939 -0.0952
15316TIP3    H267440   3.091   5.556   2.259  0.3214  2.1479 -0.0539
15317TIP3   OH267441   6.282   4.490  11.476 -0.2003 -0.4622 -0.4940
15317TIP3    H167442   6.301   4.428  11.406 -0.3027  0.3989 -1.2953
15317TIP3    H267443   6.293   4.439  11.557  1.2424 -1.1080 -1.0746
15318TIP3   OH267444   2.734   1.792  11.750  0.2484 -0.0036 -0.1295
15318TIP3    H167445   2.680   1.716  11.731 -0.1395  0.1928  0.1692
15318TIP3    H267446   2.812   1.780  11.696  0.8601 -1.3522  1.0075
15319TIP3   OH267447   5.965   6.142   1.851 -0.2534  0.2872 -0.0263
15319TIP3    H167448   5.979   6.234   1.873  0.7162  0.2047 -0.2656
15319TIP3    H267449   5.974   6.095   1.934  0.4026  0.2863 -0.0998
15320TIP3   OH267450   4.604   6.690   2.415  0.6250  0.8070 -0.4597
15320TIP3    H167451   4.575   6.722   2.501  1.9054 -0.3416  0.4514
15320TIP3    H267452   4.699   6.702   2.416  0.7031  0.3783 -1.5490
15321TIP3   OH267453   1.531   1.656  12.938 -0.1339 -0.2973  0.2020
15321TIP3    H167454   1.591   1.589  12.971 -1.8692 -2.0039  0.0731
15321TIP3    H267455   1.447   1.611  12.933 -1.0927  1.5677 -1.1208
15322TIP3   OH267456   1.065   1.664  13.303  0.7095  0.0286  0.2825
15322TIP3    H167457   1.157   1.688  13.307  1.0944 -0.6869 -2.2382
15322TIP3    H267458   1.019   1.748  13.294  1.6356  0.3456 -3.5371
15323TIP3   OH267459   4.408   4.714   1.470 -0.5647  0.5926 -0.1813
15323TIP3    H167460   4.373   4.743   1.386 -0.0858 -0.5660 -0.8012
15323TIP3    H267461   4.503   4.720   1.461 -0.5368  1.8320  0.7962
15324TIP3   OH267462   6.386   2.469  13.229  0.2673 -0.0143  0.2244
15324TIP3    H167463   6.291   2.473  13.224  0.3103  0.6876 -0.1976
15324TIP3    H267464   6.412   2.408  13.160  0.1872  0.6771 -0.4188
15325TIP3   OH267465   3.447   5.425  13.183  0.5916  0.2194  0.4376
15325TIP3    H167466   3.469   5.509  13.144  1.1902 -0.5591 -1.0060
15325TIP3    H267467   3.525   5.400  13.232  0.3181  0.6139  1.0808
15326TIP3   OH267468   6.067   2.455   4.167  0.1540 -0.0146  0.0545
15326TIP3    H167469   6.112   2.479   4.248 -1.8969  0.9704  0.9719
15326TIP3    H267470   6.035   2.538   4.132 -2.2603 -0.7487  0.2988
15327TIP3   OH267471   6.358   4.175   0.946  0.2184 -0.0376  0.5764
15327TIP3    H167472   6.295   4.139   1.009 -1.3792  1.3277 -0.1431
15327TIP3    H267473   6.404   4.244   0.995 -0.4359  0.4573  0.5120
15328TIP3   OH267474   6.655   2.325  15.076 -0.3355  0.2615  0.2424
15328TIP3    H167475   6.683   2.406  15.034 -0.7954  0.5065  0.3958
15328TIP3    H267476   6.730   2.296  15.127 -0.5717  1.2577  1.1831
15329TIP3   OH267477   6.262   0.009  15.572 -0.5102 -0.5145 -0.4570
15329TIP3    H167478   6.345  -0.038  15.575  0.4134  0.9159 -1.6654
15329TIP3    H267479   6.245   0.034  15.662  2.5024  2.5572 -0.5332
15330TIP3   OH267480   4.469   0.903   3.696 -0.0369 -0.4530 -0.2943
15330TIP3    H167481   4.376   0.889   3.674 -0.7644  2.8599  0.1852
15330TIP3    H267482   4.516   0.843   3.637 -2.4202 -2.3030 -0.5058
15331TIP3   OH267483   0.705   2.165  11.522  0.3228  0.2313 -0.3784
15331TIP3    H167484   0.800   2.154  11.530  0.1995 -0.9297 -0.2992
15331TIP3    H267485   0.669   2.102  11.583 -0.5104 -0.0206 -1.1105
15332TIP3   OH267486   6.280   0.882   2.776  0.0971 -0.5265  0.4002
15332TIP3    H167487   6.225   0.928   2.712 -1.5491 -1.7684  0.8526
15332TIP3    H267488   6.369   0.903   2.750 -0.5490  0.1029 -1.4811
15333TIP3   OH267489   2.837   0.597  13.048  0.0902 -0.1989 -0.1183
15333TIP3    H167490   2.833   0.550  13.131  1.2199 -0.6221 -0.2845
15333TIP3    H267491   2.820   0.530  12.982  0.6886 -0.1762 -0.2997
15334TIP3   OH267492   6.090   6.012   3.130 -0.0624  0.4437 -0.2026
15334TIP3    H167493   6.164   6.063   3.097 -1.7611  1.8957 -2.0221
15334TIP3    H267494   6.071   5.949   3.060 -0.1544 -0.3844  0.5452
15335TIP3   OH267495   4.262   2.896   4.082 -0.2096 -0.0679 -0.1113
15335TIP3    H167496   4.235   2.823   4.138 -1.4944  0.3361 -0.1600
15335TIP3    H267497   4.182   2.949   4.072  0.4719  0.8627 -0.7995
15336TIP3   OH267498   5.364   1.364   6.449 -0.5071  0.5828  0.1282
15336TIP3    H167499   5.438   1.369   6.509  1.9486  0.2196 -2.6477
15336TIP3    H267500   5.325   1.278   6.467  0.2827  0.4016  1.0567
15337TIP3   OH267501   1.577   0.572   2.035 -0.4291 -0.0849 -0.0532
15337TIP3    H167502   1.587   0.661   2.068  0.7474 -0.2497  0.0861
15337TIP3    H267503   1.498   0.539   2.077 -0.3600  0.5865  0.6171
15338TIP3   OH267504   0.680   0.304   4.190  0.1277 -0.1676 -1.0219
15338TIP3    H167505   0.666   0.294   4.095 -1.3945  1.2255 -0.9859
15338TIP3    H267506   0.601   0.269   4.230  1.1346 -1.5832 -0.1691
15339TIP3   OH267507   6.216   2.909  16.633  0.4774  0.3901 -0.6945
15339TIP3    H167508   6.212   2.982  16.571  1.3339  0.7233 -0.3798
15339TIP3    H267509   6.241   2.950  16.716  0.7470 -0.2298 -0.4614
15340TIP3   OH267510   5.722   5.763   1.970  0.6145  0.2787  0.0735
15340TIP3    H167511   5.660   5.732   2.036  0.1729  1.3333  0.1798
15340TIP3    H267512   5.703   5.857   1.963 -0.7721 -0.1115 -3.0383
15341TIP3   OH267513   1.522   6.068  12.015  0.1124  0.1684  0.2491
15341TIP3    H167514   1.488   6.106  12.096 -0.4446  3.7103 -1.4783
15341TIP3    H267515   1.612   6.101  12.009  0.8167 -1.6262  0.2846
15342TIP3   OH267516   3.012   3.007  10.692  0.3325 -0.4426 -0.2267
15342TIP3    H167517   3.082   2.941  10.697  1.7603  0.8983 -1.4310
15342TIP3    H267518   2.989   3.011  10.599  0.0284  0.5123 -0.1217
15343TIP3   OH267519   4.434   1.298  16.722  0.4180  0.4479  0.1623
15343TIP3    H167520   4.496   1.354  16.769  0.9112  1.7177 -1.8542
15343TIP3    H267521   4.487   1.223  16.693  1.1365  1.5557 -1.6048
15344TIP3   OH267522   3.248   5.412  15.702  0.2795  0.1794  0.5119
15344TIP3    H167523   3.308   5.340  15.681 -0.2830 -0.3100  0.5646
15344TIP3    H267524   3.220   5.446  15.617 -0.1555 -0.2571  0.4767
15345TIP3   OH267525   4.537   3.325  14.775  0.0371  0.5605 -0.0492
15345TIP3    H167526   4.612   3.343  14.718  2.8665 -3.7571  1.8196
15345TIP3    H267527   4.551   3.379  14.852  1.9928 -0.8796  0.7021
15346TIP3   OH267528   5.395   6.034  15.571  0.0733 -0.4818  0.4378
15346TIP3    H167529   5.403   5.949  15.527 -0.0320  0.3991 -1.4153
15346TIP3    H267530   5.411   6.098  15.501 -0.5941  1.0282  1.6088
15347TIP3   OH267531   5.685   0.666   6.560 -0.2113 -0.2706  0.0412
15347TIP3    H167532   5.749   0.597   6.578 -0.5444 -1.6934 -3.4436
15347TIP3    H267533   5.660   0.652   6.469 -2.2897  2.9113 -0.0251
15348TIP3   OH267534   1.817   1.089  15.096 -0.7562  0.3205  0.7603
15348TIP3    H167535   1.764   1.038  15.036  0.0276 -1.0208  1.1695
15348TIP3    H267536   1.798   1.052  15.183 -1.0748  1.5235  1.2266
15349TIP3   OH267537   3.756   0.622  14.436  0.2592  0.0586 -0.4903
15349TIP3    H167538   3.742   0.599  14.344 -0.1222 -0.7449 -0.2467
15349TIP3    H267539   3.842   0.584  14.457 -0.3728 -1.2259 -0.0863
15350TIP3   OH267540   5.339   6.148  14.190 -0.2996 -0.3032 -0.0832
15350TIP3    H167541   5.295   6.205  14.254 -1.4280 -0.9105 -0.2922
15350TIP3    H267542   5.318   6.188  14.105 -1.2911 -1.1275 -0.2470
15351TIP3   OH267543   5.076   2.309  15.391 -0.2595  0.0269 -0.5687
15351TIP3    H167544   5.169   2.308  15.416 -0.2235 -1.1165 -0.6673
15351TIP3    H267545   5.057   2.400  15.371  0.5986  0.4284  0.3747
15352TIP3   OH267546   0.862   3.172  13.706 -0.1399 -0.1900  0.4654
15352TIP3    H167547   0.879   3.162  13.799  0.7135  1.7781  0.5556
15352TIP3    H267548   0.948   3.164  13.665 -0.4307 -0.4529 -0.1076
15353TIP3   OH267549   0.112   5.282   2.960 -0.1260  0.4713 -0.6731
15353TIP3    H167550   0.112   5.254   3.051  0.1366  0.9671 -0.5162
15353TIP3    H267551   0.043   5.349   2.956  0.2715  0.8813 -0.7000
15354TIP3   OH267552   3.851   5.516  13.244  0.0270  0.1655  0.4992
15354TIP3    H167553   3.868   5.596  13.294 -0.8667 -0.1437  1.3235
15354TIP3    H267554   3.797   5.544  13.170  0.3611  0.4371  0.3545
15355TIP3   OH267555   2.520   0.786   4.064  0.1814 -0.6487 -0.2822
15355TIP3    H167556   2.505   0.872   4.104  1.6432 -0.8718  0.8381
15355TIP3    H267557   2.550   0.805   3.975  0.7168  0.0224  0.0312
15356TIP3   OH267558   0.563   1.202  11.351  0.0004  0.4164 -0.6971
15356TIP3    H167559   0.532   1.292  11.364 -0.1520  0.5460 -1.8438
15356TIP3    H267560   0.589   1.200  11.259  1.7726 -0.1766 -0.2179
15357TIP3   OH267561   3.428   1.923   5.598  0.2391 -0.4533  0.4317
15357TIP3    H167562   3.398   1.920   5.689 -1.0015  1.5587  0.1669
15357TIP3    H267563   3.515   1.963   5.603 -0.6643  1.6147  0.6503
15358TIP3   OH267564   4.196   0.330  13.277  0.0297 -0.2194  0.1550
15358TIP3    H167565   4.198   0.399  13.344 -2.0391  0.4845 -0.4241
15358TIP3    H267566   4.131   0.268  13.310 -2.7293  1.2429 -2.0999
15359TIP3   OH267567   6.077   2.939   1.069  0.3456 -0.3362 -0.2160
15359TIP3    H167568   6.158   2.950   1.119 -0.4135 -1.3219  1.3394
15359TIP3    H267569   6.088   2.854   1.025  0.0836 -0.5956  0.2048
15360TIP3   OH267570   3.961   6.265   5.720 -0.3832 -0.1206 -0.2972
15360TIP3    H167571   3.966   6.272   5.816 -1.0541 -0.4753 -0.2324
15360TIP3    H267572   4.051   6.246   5.693 -0.1836  0.0081  0.2568
15361TIP3   OH267573   5.447   3.043   0.365 -0.0141  0.1577 -0.0735
15361TIP3    H167574   5.416   2.960   0.329  0.3276  0.1344 -0.3256
15361TIP3    H267575   5.369   3.098   0.369 -0.9130 -1.1374  2.9632
15362TIP3   OH267576   1.582   3.047   1.312 -0.1044 -0.3699  0.3071
15362TIP3    H167577   1.535   3.130   1.312  1.1158  0.3504 -0.3490
15362TIP3    H267578   1.570   3.012   1.224  0.6153 -0.1581  0.1213
15363TIP3   OH267579   5.282   0.779   1.356  0.7437  0.0998  0.6518
15363TIP3    H167580   5.371   0.806   1.330  0.7209 -1.3455 -1.1963
15363TIP3    H267581   5.251   0.728   1.281 -1.9081  1.0727  0.9960
15364TIP3   OH267582   0.743   4.492  15.614  0.3004 -0.4511  0.4080
15364TIP3    H167583   0.789   4.492  15.530  2.4765 -0.5760  1.5318
15364TIP3    H267584   0.671   4.430  15.602 -0.2640  0.5030 -1.7399
15365TIP3   OH267585   4.902   3.153  16.555  0.4581  0.3804 -0.1530
15365TIP3    H167586   4.918   3.163  16.649 -0.2238 -0.4479  0.0539
15365TIP3    H267587   4.812   3.124  16.548  0.6541 -0.0512 -1.0462
15366TIP3   OH267588   5.700   5.983  16.257 -0.1723 -0.0091 -1.0477
15366TIP3    H167589   5.637   6.055  16.257 -1.1894 -0.8730 -0.4325
15366TIP3    H267590   5.755   5.999  16.180 -0.4400  1.3567 -0.9747
15367TIP3   OH267591   5.858   0.924  15.296 -0.4048  0.2843  0.6838
15367TIP3    H167592   5.783   0.929  15.236  0.8054  0.4705 -0.8700
15367TIP3    H267593   5.909   0.850  15.263  0.9227  1.1639  0.7097
15368TIP3   OH267594   5.072   6.145  16.182 -0.2252 -0.2846 -0.3913
15368TIP3    H167595   5.078   6.115  16.273  0.1622 -4.3148 -1.5220
15368TIP3    H267596   5.132   6.219  16.176 -0.0210 -0.1189  2.5365
15369TIP3   OH267597   1.762   5.596  12.199 -0.8138 -0.5457  0.1602
15369TIP3    H167598   1.694   5.573  12.262 -1.0473 -1.0447 -0.2691
15369TIP3    H267599   1.820   5.656  12.247  0.0514 -2.3234  1.4704
15370TIP3   OH267600   1.409   4.248  14.910  0.0612 -0.0024  0.1793
15370TIP3    H167601   1.400   4.324  14.853  0.0595  1.0663  1.5405
15370TIP3    H267602   1.500   4.221  14.900  0.0913  0.2378 -0.2388
15371TIP3   OH267603   4.441   5.539  11.376 -0.1982  0.2653  0.0703
15371TIP3    H167604   4.479   5.599  11.311 -3.1836  0.3763 -1.7698
15371TIP3    H267605   4.418   5.596  11.449  1.7713  0.4136  0.6177
15372TIP3   OH267606   0.998   4.445  17.133  0.3017 -0.6111 -0.0694
15372TIP3    H167607   1.067   4.415  17.192 -0.8127  1.7076  2.6165
15372TIP3    H267608   1.030   4.529  17.099  0.1757 -1.1063 -1.4952
15373TIP3   OH267609   1.936   1.176  11.973  0.1745 -0.8175 -0.1241
15373TIP3    H167610   1.974   1.264  11.967 -0.3569 -0.6590 -1.4664
15373TIP3    H267611   1.927   1.148  11.882 -0.3931 -1.9529  0.2709
15374TIP3   OH267612   1.964   1.168  11.644  0.1661 -0.6101  0.2308
15374TIP3    H167613   1.975   1.130  11.557 -2.4109 -0.6376 -0.1868
15374TIP3    H267614   1.923   1.254  11.628  0.9411  0.0032  1.3714
15375TIP3   OH267615   6.589   3.169   3.342 -0.1155  0.3348  0.1021
15375TIP3    H167616   6.568   3.076   3.337 -0.9838  0.5407 -0.2072
15375TIP3    H267617   6.597   3.187   3.436  0.4307 -0.1222  0.1520
15376TIP3   OH267618   5.013   1.420  17.012  0.4670  0.6409  0.2220
15376TIP3    H167619   5.090   1.445  16.961  0.2117  1.5796  0.2654
15376TIP3    H267620   4.942   1.414  16.947  0.4766  0.2330  0.2474
15377TIP3   OH267621   5.171   4.174   4.111 -0.1169 -0.0169  0.3739
15377TIP3    H167622   5.226   4.117   4.058  0.8688  1.0112  0.2248
15377TIP3    H267623   5.084   4.167   4.073 -0.1204 -1.7330  0.6424
15378TIP3   OH267624   5.642   1.423   3.483  0.1630  0.2735 -0.2271
15378TIP3    H167625   5.645   1.497   3.544  0.5498 -0.2504  0.4039
15378TIP3    H267626   5.574   1.447   3.419 -0.2126  0.8566  0.3767
15379TIP3   OH267627   3.625   1.345  11.681  0.3271 -0.2566 -0.6792
15379TIP3    H167628   3.568   1.323  11.607 -0.5886 -2.8055  0.6577
15379TIP3    H267629   3.607   1.277  11.746  0.9502  1.9678  2.0109
15380TIP3   OH267630   0.735   1.150   4.948 -0.3159  0.4270 -0.8413
15380TIP3    H167631   0.823   1.117   4.928 -0.6118  0.2557 -1.8917
15380TIP3    H267632   0.750   1.215   5.017  0.4839 -0.5205 -0.0788
15381TIP3   OH267633   1.089   5.194   4.532  0.2622  0.2791 -0.5503
15381TIP3    H167634   1.147   5.269   4.543  0.0927  0.3658 -0.2366
15381TIP3    H267635   1.052   5.180   4.619 -0.6750  0.6155 -0.8864
15382TIP3   OH267636   3.090   2.786  12.789  0.2006 -0.8817  0.8130
15382TIP3    H167637   3.077   2.782  12.695  0.4561  1.9574  0.5674
15382TIP3    H267638   3.152   2.715  12.808  1.5908 -0.3568 -1.4515
15383TIP3   OH267639   1.453   5.925   4.887 -0.0512  0.6654 -0.0725
15383TIP3    H167640   1.512   5.878   4.828 -0.1007 -0.0516  0.4296
15383TIP3    H267641   1.443   5.866   4.962 -1.4603  0.7419 -0.1696
15384TIP3   OH267642   1.321   2.483  16.754  0.4840  0.5761 -0.2191
15384TIP3    H167643   1.233   2.463  16.785  0.6302 -0.0555 -0.1923
15384TIP3    H267644   1.315   2.477  16.659  0.9626 -1.5688 -0.1530
15385TIP3   OH267645   2.230   3.382   1.052 -0.0505 -0.8697 -0.4863
15385TIP3    H167646   2.277   3.330   0.987  0.4656 -0.2809 -0.5994
15385TIP3    H267647   2.255   3.473   1.032  0.4164 -0.7076  0.7723
15386TIP3   OH267648   5.960   4.235  13.122 -0.7175 -0.4488 -0.0946
15386TIP3    H167649   6.020   4.310  13.125 -2.6848  1.2117  0.0811
15386TIP3    H267650   6.014   4.160  13.146  1.6185  0.6954 -1.3922
15387TIP3   OH267651   3.039   1.461   3.030  0.4882 -0.3467  0.3351
15387TIP3    H167652   3.076   1.502   2.952  1.1371  1.0372  1.3396
15387TIP3    H267653   3.114   1.444   3.087  0.1885 -2.5827  0.1513
15388TIP3   OH267654   4.645   6.396  16.743 -1.0007  0.5433  0.2748
15388TIP3    H167655   4.734   6.429  16.727 -0.8209 -0.1132 -0.1115
15388TIP3    H267656   4.640   6.386  16.839  0.3347 -2.0056  0.1845
15389TIP3   OH267657   3.060   2.728  14.172 -0.7710 -0.0139 -0.2745
15389TIP3    H167658   3.088   2.641  14.200 -1.0636 -0.2517 -0.7069
15389TIP3    H267659   3.048   2.776  14.253 -0.1019 -0.2150 -0.0481
15390TIP3   OH267660   6.416   4.139  13.871 -0.2171  0.0461  0.3166
15390TIP3    H167661   6.416   4.113  13.963 -1.3896  1.6892  0.8151
15390TIP3    H267662   6.326   4.165  13.853  0.0720  0.0893 -1.2093
15391TIP3   OH267663   3.320   2.854   4.780 -0.0741  0.0255  0.5600
15391TIP3    H167664   3.323   2.852   4.684 -1.0764 -3.6239  0.4406
15391TIP3    H267665   3.411   2.865   4.807  0.3007  0.4705 -0.7815
15392TIP3   OH267666   6.497   1.492   0.794  0.0779  0.0031 -0.0903
15392TIP3    H167667   6.456   1.412   0.763 -0.5662  0.2728  0.0536
15392TIP3    H267668   6.424   1.546   0.826  0.6787 -0.0978  1.5218
15393TIP3   OH267669   4.572   0.390  12.630 -0.4318 -0.1111 -0.0962
15393TIP3    H167670   4.579   0.470  12.577  0.6799 -0.0019  0.1745
15393TIP3    H267671   4.483   0.358  12.615 -0.4126  0.3772 -1.3756
15394TIP3   OH267672   4.313   5.032  11.517  0.4218 -0.4147  0.1205
15394TIP3    H167673   4.300   4.997  11.429  0.2394 -0.8834  0.3323
15394TIP3    H267674   4.375   5.104  11.505  1.7357 -1.5480 -0.1669
15395TIP3   OH267675   5.959   4.752   6.190 -0.6597  0.5804 -0.1448
15395TIP3    H167676   5.944   4.844   6.165  0.9838  0.8048 -0.4364
15395TIP3    H267677   6.041   4.728   6.145 -0.8276 -0.8957  0.2838
15396TIP3   OH267678   4.502   3.313  13.549 -0.0437 -0.2199 -0.6416
15396TIP3    H167679   4.476   3.323  13.640 -0.3582 -0.0338 -0.7522
15396TIP3    H267680   4.520   3.219  13.539 -2.9590 -0.7936 -1.1820
15397TIP3   OH267681   1.995   0.867  14.636 -0.4300 -0.1259 -0.6292
15397TIP3    H167682   1.947   0.941  14.674  0.7159  0.8159 -0.9393
15397TIP3    H267683   1.934   0.794  14.640 -1.1379  0.5126  0.9038
15398TIP3   OH267684   4.674   0.815  11.841  0.2173 -0.1252 -0.4480
15398TIP3    H167685   4.718   0.785  11.761 -0.6920 -1.1976 -0.5723
15398TIP3    H267686   4.642   0.902  11.820  0.6208 -0.1083 -1.0040
15399TIP3   OH267687   2.424   0.511   3.059 -0.3017 -0.3267  0.0226
15399TIP3    H167688   2.420   0.574   2.987 -0.6995 -0.0905  0.2498
15399TIP3    H267689   2.469   0.435   3.022 -0.9135 -0.3915 -0.6087
15400TIP3   OH267690   4.439   0.172  15.778  0.5966 -0.4407 -0.2553
15400TIP3    H167691   4.412   0.263  15.762  1.1485 -0.2183  0.0768
15400TIP3    H267692   4.526   0.166  15.740  1.4608 -0.2235  1.5901
15401TIP3   OH267693   0.569   2.851  12.342 -0.1987 -0.2389 -0.1989
15401TIP3    H167694   0.594   2.811  12.258 -2.8603  0.2011 -1.3125
15401TIP3    H267695   0.492   2.801  12.370 -0.9237  1.2904  0.6250
15402TIP3   OH267696   5.927   2.053  12.009  0.4522 -0.2602  0.7348
15402TIP3    H167697   5.980   1.990  12.058  1.4920 -0.4491 -0.5809
15402TIP3    H267698   5.990   2.104  11.960 -0.5827 -0.4778 -0.8830
15403TIP3   OH267699   2.259   0.670   0.103  0.4607 -0.1854 -0.6281
15403TIP3    H167700   2.217   0.724   0.036  0.0093  0.9411  0.5241
15403TIP3    H267701   2.345   0.710   0.115  0.6751 -0.5984 -0.7849
15404TIP3   OH267702   1.758   6.154  12.998  0.2533  0.0207  0.2721
15404TIP3    H167703   1.748   6.090  13.069  2.5322 -0.1213  0.5479
15404TIP3    H267704   1.671   6.192  12.987 -0.8337 -2.0774  1.0968
15405TIP3   OH267705   3.250   1.251   2.499  0.0757 -0.4702  0.6417
15405TIP3    H167706   3.302   1.325   2.528  1.4606 -0.3084 -2.0501
15405TIP3    H267707   3.160   1.276   2.520  0.5081  1.9424 -0.1045
15406TIP3   OH267708   1.880   3.220   2.743 -0.0211  0.4062  0.2209
15406TIP3    H167709   1.846   3.147   2.794 -1.5476  1.6485  1.0675
15406TIP3    H267710   1.900   3.288   2.807 -0.4416  1.4188 -0.6897
15407TIP3   OH267711   6.451   3.359  17.030  0.3449  0.1182  0.9220
15407TIP3    H167712   6.473   3.348  16.938 -0.3364  0.6913  0.6795
15407TIP3    H267713   6.516   3.307  17.077  0.9533  0.1587  0.1416
15408TIP3   OH267714   2.931   3.753   1.821 -0.3745  0.0946 -0.3291
15408TIP3    H167715   2.945   3.660   1.841  0.6600  0.2094 -0.4775
15408TIP3    H267716   2.905   3.754   1.729  0.1333 -0.0042 -0.4728
15409TIP3   OH267717   2.526   6.295  15.998  0.4224  0.2850  0.1222
15409TIP3    H167718   2.453   6.352  15.974  0.0652 -0.3897 -0.4125
15409TIP3    H267719   2.525   6.225  15.933  1.1286 -0.1016  0.5120
15410TIP3   OH267720   0.517   3.455   2.726 -0.6729 -0.1398 -0.1039
15410TIP3    H167721   0.459   3.530   2.729  0.0495  0.4047  1.1413
15410TIP3    H267722   0.586   3.475   2.789  0.4019 -1.1469 -0.9051
15411TIP3   OH267723   0.569   0.724  13.105  0.2027  0.9884  0.6446
15411TIP3    H167724   0.611   0.808  13.087  0.4918  0.6758 -0.1832
15411TIP3    H267725   0.539   0.693  13.019  1.8392 -0.6639  0.5849
15412TIP3   OH267726   3.828   0.427  11.612 -0.1322  0.4164 -0.6444
15412TIP3    H167727   3.783   0.498  11.568  0.0112 -1.0452 -3.3712
15412TIP3    H267728   3.759   0.375  11.652 -0.2989  1.5121  0.5657
15413TIP3   OH267729   3.544   6.636   0.040 -0.4124  0.0752  0.3747
15413TIP3    H167730   3.508   6.706   0.093 -1.1098 -0.1944  0.2756
15413TIP3    H267731   3.626   6.671   0.005 -0.2915  0.4975  1.0685
15414TIP3   OH267732   1.581   1.105   5.282 -0.0791  0.3077 -0.0236
15414TIP3    H167733   1.492   1.078   5.302 -0.2689  0.7253 -0.2899
15414TIP3    H267734   1.609   1.154   5.359 -0.2037  0.4740 -0.0846
15415TIP3   OH267735   6.516   3.830   4.781  0.4484 -0.1687  0.7949
15415TIP3    H167736   6.569   3.788   4.713  2.9589 -0.9130  3.0636
15415TIP3    H267737   6.474   3.758   4.827  1.5364  0.0531  2.1745
15416TIP3   OH267738   4.077   2.324   3.835 -0.1866 -1.0695  0.9291
15416TIP3    H167739   4.086   2.256   3.768 -0.7491  0.7526 -1.1230
15416TIP3    H267740   4.107   2.404   3.791 -1.8947  0.4523  2.3940
15417TIP3   OH267741   5.246   3.531   3.793  0.2334 -0.2229 -0.6997
15417TIP3    H167742   5.155   3.558   3.800  0.3377 -0.2636  1.4768
15417TIP3    H267743   5.292   3.582   3.859  1.6840 -0.6985 -1.2929
15418TIP3   OH267744   3.594   1.194  15.504  0.0749 -0.0630 -0.4220
15418TIP3    H167745   3.655   1.258  15.539 -0.9667  1.1123 -0.6901
15418TIP3    H267746   3.519   1.245  15.475  0.1563 -1.1360 -2.7802
15419TIP3   OH267747   5.577   6.164  12.146 -0.3015  0.6401 -0.0404
15419TIP3    H167748   5.493   6.127  12.120 -0.6992  1.2163  0.3970
15419TIP3    H267749   5.587   6.138  12.237 -1.1502  2.5547  0.6465
15420TIP3   OH267750   4.446   4.037   0.196 -0.6979  0.3020 -0.8501
15420TIP3    H167751   4.390   3.977   0.147  0.7252 -0.8514 -1.1264
15420TIP3    H267752   4.401   4.049   0.279 -1.0997 -1.0317 -0.8565
15421TIP3   OH267753   0.248   6.769  13.876  0.4243 -0.1736  0.2494
15421TIP3    H167754   0.273   6.823  13.801 -2.4343 -1.6128 -1.9440
15421TIP3    H267755   0.302   6.690  13.867 -0.9346 -0.9784 -1.2575
15422TIP3   OH267756   4.406   5.451  14.964  0.3649 -0.0986 -0.6529
15422TIP3    H167757   4.464   5.396  14.911  0.5031  1.9326 -2.8075
15422TIP3    H267758   4.423   5.540  14.933 -2.1704  0.8361  0.3636
15423TIP3   OH267759   3.251   4.440   0.028  0.5412  0.5166 -0.4929
15423TIP3    H167760   3.309   4.396   0.090 -0.1644  0.5881  0.2372
15423TIP3    H267761   3.224   4.371  -0.032  1.2858  0.4598 -0.7671
15424TIP3   OH267762   5.469   4.115   5.707  0.1873  0.2788 -0.1183
15424TIP3    H167763   5.533   4.159   5.651 -0.7377  0.8956 -0.7033
15424TIP3    H267764   5.407   4.074   5.646  0.6340 -1.2937  0.4175
15425TIP3   OH267765   4.284   6.675   4.913  0.7771 -0.0766 -0.0400
15425TIP3    H167766   4.331   6.757   4.928 -2.5967  2.4623 -1.8563
15425TIP3    H267767   4.266   6.642   5.001 -0.3330  2.8774  0.9806
15426TIP3   OH267768   2.958   0.692  17.295  0.0693  0.6238 -0.1213
15426TIP3    H167769   2.930   0.671  17.206  1.3686  0.1090 -0.4252
15426TIP3    H267770   2.878   0.686  17.347 -0.3499 -1.0811 -0.8929
15427TIP3   OH267771   0.780   6.606  11.097  0.1996 -0.0146 -0.1345
15427TIP3    H167772   0.847   6.546  11.066 -1.9146 -2.3205 -0.5618
15427TIP3    H267773   0.744   6.645  11.018  0.6839  0.8688  0.0642
15428TIP3   OH267774   2.184   0.806   5.748 -0.0255  0.2103 -0.0392
15428TIP3    H167775   2.171   0.712   5.737  0.3422  0.4617 -4.1870
15428TIP3    H267776   2.278   0.816   5.760 -0.3157  0.0214  3.4386
15429TIP3   OH267777   3.503   1.437   0.232 -0.2072 -0.5038  0.0417
15429TIP3    H167778   3.533   1.354   0.269  0.5432 -1.0573 -1.6583
15429TIP3    H267779   3.582   1.473   0.190 -0.7089  0.6959  0.1005
15430TIP3   OH267780   2.639   1.011  17.275 -0.2914 -0.0638 -0.8765
15430TIP3    H167781   2.634   1.106  17.267  0.1236 -0.0431 -0.9154
15430TIP3    H267782   2.680   0.996  17.360 -0.7589 -0.2191 -0.6718
15431TIP3   OH267783   0.865   3.242   1.999  0.4079 -0.2761  0.0446
15431TIP3    H167784   0.852   3.302   1.926  0.8910 -0.8207 -0.4985
15431TIP3    H267785   0.917   3.171   1.963  0.7916 -0.4779  0.9603
15432TIP3   OH267786   1.832   1.639  16.743  0.1409  0.2283  0.0431
15432TIP3    H167787   1.835   1.720  16.692 -0.5781  0.4732  0.3637
15432TIP3    H267788   1.854   1.666  16.832  2.1188 -0.3168 -0.2293
15433TIP3   OH267789   5.167   6.536   1.129  0.3639 -0.0963  0.4535
15433TIP3    H167790   5.215   6.499   1.055  0.9319 -0.3311  0.9346
15433TIP3    H267791   5.167   6.467   1.195 -0.6135 -0.0886  0.4787
15434TIP3   OH267792   0.351   2.346   4.473 -0.4357 -0.2282 -0.4519
15434TIP3    H167793   0.374   2.388   4.391  1.9672 -0.9625 -0.2352
15434TIP3    H267794   0.313   2.262   4.448  1.0785 -0.8226 -0.8538
15435TIP3   OH267795   3.845   6.399  16.861  0.3153  0.0431 -0.0359
15435TIP3    H167796   3.896   6.331  16.905  0.3392 -0.7583 -1.2514
15435TIP3    H267797   3.909   6.462  16.830  0.2608  0.8733  1.4634
15436TIP3   OH267798   1.044   1.674  14.592  0.3567 -0.2106  0.3370
15436TIP3    H167799   1.058   1.605  14.527 -0.8500 -1.2626  1.1471
15436TIP3    H267800   1.129   1.686  14.634  0.5632 -1.2828  0.2494
15437TIP3   OH267801   3.476   1.736   3.793 -0.3576 -0.8724 -0.0560
15437TIP3    H167802   3.569   1.752   3.809 -0.3854 -0.2003 -0.5337
15437TIP3    H267803   3.450   1.676   3.863 -0.0127  0.4219  1.2368
15438TIP3   OH267804   3.933   4.020  12.685 -0.4242 -0.2329 -0.7102
15438TIP3    H167805   3.983   3.966  12.747  1.5393  3.1594  0.9686
15438TIP3    H267806   3.984   4.020  12.605  3.3450  3.9323  1.2517
15439TIP3   OH267807   4.108   6.340   1.803  0.5137 -0.1051 -0.3954
15439TIP3    H167808   4.055   6.391   1.743  0.2216 -0.7070 -0.6547
15439TIP3    H267809   4.182   6.309   1.750 -0.6504 -2.1252 -0.9537
15440TIP3   OH267810   4.218   0.353  16.183  0.1915  0.4638 -0.4029
15440TIP3    H167811   4.187   0.290  16.119 -0.0477  0.4522 -0.2775
15440TIP3    H267812   4.220   0.436  16.136 -2.4576  0.9803  0.2180
15441TIP3   OH267813   1.724   2.158   0.213 -0.2517  0.2684  0.3618
15441TIP3    H167814   1.734   2.240   0.165 -4.1964  1.1241  0.6065
15441TIP3    H267815   1.635   2.129   0.192  0.4205 -3.1379  1.5702
15442TIP3   OH267816   5.127   4.847  13.786  0.6006 -0.1220  0.2991
15442TIP3    H167817   5.179   4.882  13.858  0.0045  0.5190  0.4227
15442TIP3    H267818   5.036   4.855  13.815  0.3595  0.0339 -0.4691
15443TIP3   OH267819   1.412   2.080   1.131 -0.3873  0.4435  0.4071
15443TIP3    H167820   1.366   2.019   1.189  0.1831  0.6237  1.0511
15443TIP3    H267821   1.342   2.133   1.092 -0.8401 -0.2531  0.2681
15444TIP3   OH267822   1.856   1.210  12.699 -0.2773 -0.5222  0.4799
15444TIP3    H167823   1.881   1.302  12.686 -1.1042 -0.3186  0.3227
15444TIP3    H267824   1.826   1.181  12.613  0.0089 -0.9573  0.5205
15445TIP3   OH267825   1.106   2.617   3.049 -0.0376 -0.1775  0.0628
15445TIP3    H167826   1.156   2.698   3.036 -1.3491  0.4438 -1.3408
15445TIP3    H267827   1.163   2.563   3.104  1.1911  1.3882  0.4128
15446TIP3   OH267828   1.798   6.568  14.705 -0.4049  0.2047  0.4176
15446TIP3    H167829   1.847   6.486  14.712 -0.0406  0.4746  1.1384
15446TIP3    H267830   1.714   6.542  14.668 -1.7072 -1.1201  3.8144
15447TIP3   OH267831   1.269   1.262   4.246 -0.0413 -0.2888 -0.6575
15447TIP3    H167832   1.337   1.316   4.205 -1.6215  0.3753 -2.5827
15447TIP3    H267833   1.318   1.197   4.296  1.9628  1.4829 -0.1534
15448TIP3   OH267834   3.846   5.390  12.276 -0.3491 -0.1743 -0.2947
15448TIP3    H167835   3.846   5.484  12.294  0.6202 -0.2850  0.3454
15448TIP3    H267836   3.815   5.383  12.185  0.6529  0.8512 -0.7364
15449TIP3   OH267837   1.260   0.060  16.634  0.0506 -0.2698 -0.1125
15449TIP3    H167838   1.195   0.120  16.670  0.3388 -0.6082  0.9923
15449TIP3    H267839   1.220  -0.027  16.640  0.2338 -0.3697 -0.2955
15450TIP3   OH267840   4.769   4.647   0.130  0.2338 -0.6633  0.0861
15450TIP3    H167841   4.682   4.625   0.097  0.4952 -0.8651 -0.4792
15450TIP3    H267842   4.829   4.594   0.078  0.8703  1.1798 -1.1486
15451TIP3   OH267843   4.934   2.347  15.916 -0.4372 -0.2171 -0.0226
15451TIP3    H167844   4.876   2.296  15.973 -0.6175  1.1372  1.0658
15451TIP3    H267845   4.989   2.396  15.976  1.0743 -0.5934 -1.0468
15452TIP3   OH267846   0.255   1.288   2.266  0.1916 -0.3602 -0.4002
15452TIP3    H167847   0.338   1.328   2.239  1.0307 -0.3906  1.9244
15452TIP3    H267848   0.229   1.235   2.191  1.5128  0.7982 -1.7397
15453TIP3   OH267849   1.407   2.466   1.147 -0.3545  0.1793  0.2162
15453TIP3    H167850   1.427   2.554   1.116 -0.8601 -0.2161 -1.3155
15453TIP3    H267851   1.468   2.409   1.100 -2.0798 -0.5811 -1.2456
15454TIP3   OH267852   1.744   0.577   4.454 -0.5700  0.1298 -0.1000
15454TIP3    H167853   1.675   0.543   4.513  0.4175  0.0555  1.0581
15454TIP3    H267854   1.757   0.667   4.482  0.0040  0.0534 -0.1131
15455TIP3   OH267855   5.352   0.458  15.377 -0.1065  0.4965  0.0843
15455TIP3    H167856   5.434   0.507  15.387 -0.0022 -0.0607  2.7206
15455TIP3    H267857   5.380   0.373  15.343  0.2918  0.6601 -0.0116
15456TIP3   OH267858   4.865   0.591  12.792 -0.2211  0.4329  0.2663
15456TIP3    H167859   4.945   0.632  12.824  0.1207 -0.7227  0.9155
15456TIP3    H267860   4.888   0.556  12.706  0.0793 -0.2216  0.6112
15457TIP3   OH267861   0.349   4.111  13.708 -0.3700 -0.1794  0.2817
15457TIP3    H167862   0.260   4.136  13.684 -0.5137  0.4509  1.4343
15457TIP3    H267863   0.402   4.189  13.690  0.1177 -0.8135 -1.1912
15458TIP3   OH267864   4.473   2.906  12.515  0.4055 -0.0187  0.2695
15458TIP3    H167865   4.516   2.916  12.430  0.7186  0.4914  0.4810
15458TIP3    H267866   4.380   2.914  12.495  0.5455  1.6898  0.1655
15459TIP3   OH267867   2.548   1.283  16.358 -0.2985 -0.4430 -0.2649
15459TIP3    H167868   2.550   1.377  16.343 -1.8021 -0.1887  0.9127
15459TIP3    H267869   2.455   1.261  16.357  0.0500 -2.0299 -1.0799
15460TIP3   OH267870   5.855   5.204   2.847 -0.4765  0.7491  0.3664
15460TIP3    H167871   5.924   5.258   2.808  0.5078 -0.4079  0.4390
15460TIP3    H267872   5.902   5.130   2.885 -1.7860 -0.1759  0.2270
15461TIP3   OH267873   6.004   4.112   3.299 -0.3129 -0.1663 -0.1369
15461TIP3    H167874   5.921   4.132   3.255 -0.2366  1.2726  0.3355
15461TIP3    H267875   6.070   4.121   3.230 -0.4932 -0.9176 -0.4191
15462TIP3   OH267876   1.577   5.742  16.783  0.1713  0.4784  0.2201
15462TIP3    H167877   1.517   5.687  16.734 -1.5001  2.4125 -0.0530
15462TIP3    H267878   1.629   5.787  16.717 -0.2825  1.1419  0.2997
15463TIP3   OH267879   4.561   3.168   1.555 -0.0105  0.2439 -0.3249
15463TIP3    H167880   4.619   3.196   1.625  0.5941  0.4507 -0.8993
15463TIP3    H267881   4.594   3.082   1.528 -1.6098 -0.9060  1.1542
15464TIP3   OH267882   3.691   0.699  13.882 -0.0437  0.3542 -0.3186
15464TIP3    H167883   3.779   0.685  13.849 -0.7526  0.0090 -2.1992
15464TIP3    H267884   3.636   0.639  13.831 -1.5870  1.7227 -0.3615
15465TIP3   OH267885   1.659   0.009   0.480  0.0013  0.2688 -0.2821
15465TIP3    H167886   1.656   0.100   0.509  2.9173  1.1032 -2.1782
15465TIP3    H267887   1.594   0.003   0.410  0.7586  1.3315 -1.1064
15466TIP3   OH267888   2.469   2.157   4.669  0.0932  0.3453  0.4229
15466TIP3    H167889   2.534   2.185   4.733  0.5778  0.0232  0.0818
15466TIP3    H267890   2.396   2.124   4.721 -0.5067  2.2101  0.8439
15467TIP3   OH267891   1.710   1.197  12.146  0.0450 -0.1254 -0.1095
15467TIP3    H167892   1.659   1.220  12.068  0.0823 -1.8447 -0.6991
15467TIP3    H267893   1.793   1.164  12.111 -0.1134 -1.3408  0.6100
15468TIP3   OH267894   2.066   2.502   5.294  0.1326  0.7077 -0.1290
15468TIP3    H167895   2.067   2.576   5.233 -1.5664  1.2005  0.3798
15468TIP3    H267896   2.044   2.427   5.240 -1.7007  1.1969 -0.1153
15469TIP3   OH267897   3.927   5.863   4.157 -0.5122 -0.3966  0.1341
15469TIP3    H167898   3.846   5.904   4.186  1.1113  2.3025  1.1853
15469TIP3    H267899   3.925   5.871   4.062 -0.2524  2.2752  0.2989
15470TIP3   OH267900   4.006   1.849   5.565  0.3425  0.2445  0.1821
15470TIP3    H167901   3.912   1.831   5.564  0.2646  0.5725 -1.5623
15470TIP3    H267902   4.047   1.763   5.576 -0.1497 -0.3070 -1.8387
15471TIP3   OH267903   6.065   2.616   2.996  0.4980 -0.0360 -0.1749
15471TIP3    H167904   6.059   2.545   2.932  0.1035  1.0438 -1.3754
15471TIP3    H267905   6.158   2.632   3.005  0.5740 -0.4720 -0.1582
15472TIP3   OH267906   6.576   0.589  12.316 -0.4019 -0.0630  0.4731
15472TIP3    H167907   6.562   0.673  12.271 -0.8872 -1.5761 -2.4287
15472TIP3    H267908   6.671   0.577  12.313 -0.5317 -1.2315 -2.5541
15473TIP3   OH267909   2.725   0.541  14.372 -0.0635  0.4027  0.4574
15473TIP3    H167910   2.708   0.513  14.462 -2.1347  0.8189  0.2443
15473TIP3    H267911   2.639   0.558  14.335  0.5655 -1.5247 -2.2104
15474TIP3   OH267912   3.731   1.315   1.737 -0.4889 -0.3548 -0.1137
15474TIP3    H167913   3.789   1.369   1.791  0.6829 -1.0515 -0.6292
15474TIP3    H267914   3.696   1.374   1.671  1.2696 -0.3178 -1.0646
15475TIP3   OH267915   0.519   6.222   2.891  0.0249 -0.3664 -0.3860
15475TIP3    H167916   0.462   6.163   2.841  0.9290 -0.4871 -1.3051
15475TIP3    H267917   0.558   6.279   2.825  0.2331  0.3536  0.3451
15476TIP3   OH267918   6.484   3.118   1.083  0.8519 -0.4349 -0.2868
15476TIP3    H167919   6.431   3.152   1.011  0.9704 -0.1621 -0.2458
15476TIP3    H267920   6.551   3.184   1.097  1.5000 -0.9926 -0.6638
15477TIP3   OH267921   4.530   1.401   1.004  1.1772 -0.0678  0.1899
15477TIP3    H167922   4.595   1.333   1.022 -0.7463 -1.7800  1.0614
15477TIP3    H267923   4.446   1.355   1.009 -0.3854  2.7381  2.9567
15478TIP3   OH267924   0.947   6.042  14.392 -0.4081 -0.1993  0.5795
15478TIP3    H167925   1.007   6.089  14.450  1.3084 -2.3669  0.6921
15478TIP3    H267926   0.939   5.955  14.431 -1.3365 -0.8668 -1.0063
15479TIP3   OH267927   1.885   5.057  14.906  0.4857 -0.3935  0.2176
15479TIP3    H167928   1.958   5.079  14.847  0.7742 -0.3495  0.5894
15479TIP3    H267929   1.926   5.045  14.991  0.3612 -2.5111  0.0322
15480TIP3   OH267930   2.858   0.397  16.166  1.0348  0.0259 -0.6539
15480TIP3    H167931   2.877   0.309  16.134  0.3185  0.3954 -2.1563
15480TIP3    H267932   2.943   0.441  16.169  1.2666 -0.4049 -0.8384
15481TIP3   OH267933   4.184   5.805   0.384 -0.0000 -0.1716  0.8182
15481TIP3    H167934   4.178   5.790   0.289  2.2536 -0.4159  0.6435
15481TIP3    H267935   4.121   5.874   0.401 -1.0152 -0.6439 -0.7181
15482TIP3   OH267936   1.854   0.076   4.517 -0.3369 -0.4335  0.8376
15482TIP3    H167937   1.822   0.014   4.582  0.0792 -1.2267  0.2978
15482TIP3    H267938   1.901   0.142   4.568 -3.0488  0.9930  1.7063
15483TIP3   OH267939   1.719   6.324   4.580 -0.2413  0.1085  0.0773
15483TIP3    H167940   1.684   6.241   4.610 -1.4486  0.8825  0.8857
15483TIP3    H267941   1.646   6.385   4.587  0.9821  1.5450  0.7874
15484TIP3   OH267942   1.570   0.559  11.745  0.7100  0.1932 -0.0837
15484TIP3    H167943   1.587   0.476  11.701 -0.3945  0.3730 -0.9038
15484TIP3    H267944   1.652   0.607  11.740  1.4811 -0.9628  0.7165
15485TIP3   OH267945   4.669   0.686  11.202 -0.0167  0.0700  0.4696
15485TIP3    H167946   4.636   0.720  11.285 -0.8925  0.8394 -0.1821
15485TIP3    H267947   4.713   0.760  11.161  0.0593 -0.1954  0.0646
15486TIP3   OH267948   0.909   6.497   1.727  0.2086 -0.0234  0.4794
15486TIP3    H167949   0.922   6.571   1.667 -2.3216 -0.4344 -0.6773
15486TIP3    H267950   0.981   6.437   1.706 -0.8511 -0.3793 -2.6080
15487TIP3   OH267951   5.991   1.326  12.564 -0.4701 -0.1930 -0.7769
15487TIP3    H167952   5.903   1.321  12.601  0.0416 -3.5118  0.3119
15487TIP3    H267953   5.979   1.369  12.479 -3.2246 -0.9557 -0.8592
15488TIP3   OH267954   0.241   3.005  15.683 -0.2166 -0.3363 -0.0038
15488TIP3    H167955   0.209   3.092  15.710 -0.7300 -0.4508 -0.2416
15488TIP3    H267956   0.162   2.950  15.682  0.2097 -0.9944  0.8710
15489TIP3   OH267957   4.381   6.205   1.244 -0.2727  0.1586 -0.4774
15489TIP3    H167958   4.339   6.235   1.163  0.1523 -1.6133 -1.3987
15489TIP3    H267959   4.474   6.220   1.229 -0.1657 -0.4717 -0.4601
15490TIP3   OH267960   0.118   1.469  13.437  0.2545 -0.8511  0.5936
15490TIP3    H167961   0.149   1.388  13.477 -0.0366 -1.5327 -0.4994
15490TIP3    H267962   0.043   1.443  13.384 -0.4865  0.3156  1.0281
15491TIP3   OH267963   4.770   5.317  11.055 -0.5007  0.3496 -0.9916
15491TIP3    H167964   4.745   5.383  10.990  1.6718  0.9958 -1.2518
15491TIP3    H267965   4.783   5.237  11.005 -0.4796  0.4268 -1.1109
15492TIP3   OH267966   0.172   0.553   0.470  0.1410 -0.6978 -0.0004
15492TIP3    H167967   0.123   0.473   0.451  0.0047 -0.6721  0.2352
15492TIP3    H267968   0.123   0.623   0.426 -0.3179 -0.6019  0.6393
15493TIP3   OH267969   2.096   1.339   2.683 -0.4172  0.1185  0.5643
15493TIP3    H167970   2.147   1.394   2.744 -0.4815 -0.4586  1.1485
15493TIP3    H267971   2.129   1.250   2.698 -1.4246 -0.2293  0.7725
15494TIP3   OH267972   1.154   6.794  15.576  0.0352  0.4015  0.6333
15494TIP3    H167973   1.189   6.737  15.644 -0.0009 -0.2856  0.0902
15494TIP3    H267974   1.216   6.786  15.503  1.5106  3.1539  1.4711
15495TIP3   OH267975   6.159   0.686   4.124 -0.3246 -0.4610  0.1624
15495TIP3    H167976   6.117   0.770   4.106  0.3149  0.0809  1.1026
15495TIP3    H267977   6.111   0.650   4.199  0.0504 -0.4396  0.4200
15496TIP3   OH267978   1.931   0.459   3.575 -0.1001 -0.5617  0.2529
15496TIP3    H167979   1.901   0.427   3.490  1.2577 -4.0282  0.9185
15496TIP3    H267980   2.015   0.500   3.557 -0.9655  1.0439 -0.3490
15497TIP3   OH267981   6.491   1.848  15.514  0.2022 -0.3409 -0.0308
15497TIP3    H167982   6.414   1.904  15.501 -1.4302 -1.0687  4.5183
15497TIP3    H267983   6.556   1.906  15.554  0.0414 -0.7685  0.8771
15498TIP3   OH267984   3.367   4.184  11.755 -0.0315  0.7129 -0.5592
15498TIP3    H167985   3.360   4.121  11.683  0.1670 -1.0251  0.8910
15498TIP3    H267986   3.441   4.153  11.807 -0.5110  1.6141  0.7164
15499TIP3   OH267987   4.871   2.305   4.987 -0.5687  0.0488  0.0883
15499TIP3    H167988   4.922   2.245   5.042 -0.8619 -0.2890 -0.0020
15499TIP3    H267989   4.897   2.392   5.015 -0.7308 -0.1219  0.7693
15500TIP3   OH267990   3.788   5.177  11.064 -0.7055  0.3227  0.2150
15500TIP3    H167991   3.827   5.187  11.151 -1.3490 -1.1168  0.6969
15500TIP3    H267992   3.802   5.262  11.021  1.3413  0.4439  1.0041
15501TIP3   OH267993   4.343   4.993  15.488  0.5838 -0.2847 -0.3067
15501TIP3    H167994   4.258   4.955  15.512  0.9613 -1.0366 -0.1316
15501TIP3    H267995   4.397   4.918  15.464  0.8441  0.2846 -1.5853
15502TIP3   OH267996   6.014   4.460   0.627 -0.0963  0.2903  0.1340
15502TIP3    H167997   6.094   4.501   0.661  0.1653  0.5628 -0.7817
15502TIP3    H267998   5.946   4.526   0.640 -0.4196 -0.3107  1.8438
15503TIP3   OH267999   2.769   3.725   4.411 -0.0011  0.1502 -0.6387
15503TIP3    H168000   2.789   3.646   4.361  0.8126  0.1990 -0.4180
15503TIP3    H268001   2.854   3.770   4.418 -0.5042  1.1808 -1.0036
15504TIP3   OH268002   4.480   5.162  15.933 -0.0396 -0.2282 -0.5307
15504TIP3    H168003   4.414   5.100  15.966  0.9925 -0.5636  1.0037
15504TIP3    H268004   4.560   5.109  15.926  0.4348  0.5309 -0.8956
15505TIP3   OH268005   1.524   6.699  11.826  0.4887 -0.3512  0.3377
15505TIP3    H168006   1.522   6.616  11.778 -2.1222  1.1725 -2.6238
15505TIP3    H268007   1.437   6.707  11.864  0.6712  1.0534  0.5165
15506TIP3   OH268008   6.624   2.800  11.232 -0.2871  0.4402  0.0502
15506TIP3    H168009   6.554   2.864  11.220  0.2825  1.0271 -0.1792
15506TIP3    H268010   6.693   2.828  11.172 -0.2665 -0.7409 -0.5139
15507TIP3   OH268011   3.256   0.026   0.388  0.2866  0.4162  1.0665
15507TIP3    H168012   3.181   0.044   0.331  0.5068 -0.6700  0.4258
15507TIP3    H268013   3.258   0.101   0.448  0.0145  1.5499 -0.2873
15508TIP3   OH268014   1.319   1.310  11.084 -0.1311 -0.1030  0.6433
15508TIP3    H168015   1.267   1.318  11.004  1.6681 -0.3203 -0.6371
15508TIP3    H268016   1.329   1.215  11.096  0.2357 -0.0662  0.6593
15509TIP3   OH268017   1.190   4.198  14.348 -0.5422 -0.2158  0.1614
15509TIP3    H168018   1.130   4.269  14.373 -0.6299 -0.1407 -0.2477
15509TIP3    H268019   1.197   4.143  14.426 -0.4740  0.2444  0.4853
15510TIP3   OH268020   2.438   3.576  12.563 -0.1451 -0.1820 -0.0069
15510TIP3    H168021   2.449   3.538  12.476 -0.6884 -2.6388  0.9156
15510TIP3    H268022   2.517   3.550  12.611  0.4743  1.7330  0.1006
15511TIP3   OH268023   0.858   5.368   3.686  0.4613 -0.6605 -0.0086
15511TIP3    H168024   0.947   5.335   3.702  0.6766 -0.1647 -0.1508
15511TIP3    H268025   0.802   5.314   3.741  0.6489 -2.1072 -1.1387
15512TIP3   OH268026   4.334   6.748   2.899  0.0582 -0.2652 -0.6780
15512TIP3    H168027   4.327   6.819   2.962 -1.0275 -1.6935  0.9010
15512TIP3    H268028   4.266   6.766   2.834 -0.5523 -0.1276 -0.0089
15513TIP3   OH268029   6.196   4.790  16.867  0.3849 -0.4643  0.1726
15513TIP3    H168030   6.253   4.827  16.799 -0.8362  0.9845 -0.1139
15513TIP3    H268031   6.151   4.717  16.825 -0.6668  0.6715 -0.7543
15514TIP3   OH268032   5.768   6.197   3.482 -0.3653 -0.4919  0.2683
15514TIP3    H168033   5.811   6.179   3.398  0.0168  0.1864  0.3060
15514TIP3    H268034   5.680   6.163   3.472 -0.7606  0.7914 -0.9055
15515TIP3   OH268035   1.538   0.351   3.083  0.2482  0.3512 -0.5660
15515TIP3    H168036   1.560   0.283   3.147 -1.5958  1.1741  1.0331
15515TIP3    H268037   1.454   0.324   3.047  1.1130  0.0680 -2.4889
15516TIP3   OH268038   3.945   5.688  16.723 -0.0529  0.7581  0.1813
15516TIP3    H168039   4.004   5.679  16.797 -2.8489 -1.5936  2.3330
15516TIP3    H268040   3.972   5.619  16.662 -0.9462 -0.8595  1.5289
15517TIP3   OH268041   1.329   5.684  12.472 -0.2665  0.3731 -0.0059
15517TIP3    H168042   1.362   5.713  12.557 -1.0138  0.2174  0.3485
15517TIP3    H268043   1.244   5.644  12.492 -0.4269  0.2923 -0.8183
15518TIP3   OH268044   5.528   4.581   0.578  0.0708  0.2926  0.8955
15518TIP3    H168045   5.569   4.526   0.511  0.5025  0.3525  1.1064
15518TIP3    H268046   5.491   4.518   0.640 -1.2084  0.2259  0.0888
15519TIP3   OH268047   0.542   5.091   0.022  0.0099  0.3909 -0.2377
15519TIP3    H168048   0.635   5.075   0.003 -0.3671  0.8247 -2.7225
15519TIP3    H268049   0.523   5.175  -0.019 -1.5844  0.0909 -0.1767
15520TIP3   OH268050   2.903   1.545   4.348 -0.1415 -0.7281  0.5392
15520TIP3    H168051   2.993   1.514   4.360 -0.1930 -1.0069  0.2210
15520TIP3    H268052   2.880   1.585   4.432  0.6630  0.3396  0.2778
15521TIP3   OH268053   0.304   5.117  16.149 -0.6236  0.0512 -0.1432
15521TIP3    H168054   0.286   5.067  16.069  0.6584  0.7796 -0.9119
15521TIP3    H268055   0.271   5.205  16.131  1.9326  0.9392 -0.9171
15522TIP3   OH268056   4.197   3.775   6.121  0.0161 -0.2422  0.1160
15522TIP3    H168057   4.201   3.870   6.124  1.2778 -0.2404 -0.8615
15522TIP3    H268058   4.268   3.746   6.179  0.0095 -0.5800 -0.0407
15523TIP3   OH268059   5.588   2.524   4.421 -0.0148  0.3074 -0.6910
15523TIP3    H168060   5.497   2.495   4.411 -0.5285  1.1442  1.1844
15523TIP3    H268061   5.585   2.618   4.405  1.0415  0.0172 -3.2134
15524TIP3   OH268062   3.395   4.549   1.967  0.6592 -0.1146 -0.2770
15524TIP3    H168063   3.483   4.582   1.984  0.7744  0.0196 -1.0797
15524TIP3    H268064   3.370   4.503   2.047 -0.1026  3.1823  1.5656
15525TIP3   OH268065   0.348   4.659   0.403 -0.3359  0.4328  0.0180
15525TIP3    H168066   0.263   4.699   0.383 -1.6772 -1.7637  0.8770
15525TIP3    H268067   0.337   4.621   0.490  2.9876  3.6475  2.0972
15526TIP3   OH268068   3.939   5.611   5.074  0.0297 -0.0985 -0.2123
15526TIP3    H168069   3.922   5.529   5.028  4.1732 -1.2998 -0.0059
15526TIP3    H268070   4.033   5.608   5.094 -0.2233  3.4089  2.3970
15527TIP3   OH268071   4.904   0.034   4.538 -0.1780  0.6453 -0.0893
15527TIP3    H168072   4.902   0.000   4.628 -1.3419 -0.8213 -0.6130
15527TIP3    H268073   4.989   0.076   4.530  1.8286 -2.8947  0.4462
15528TIP3   OH268074   0.444   1.671   0.424 -0.4168  0.2410 -0.1176
15528TIP3    H168075   0.475   1.628   0.504  1.4558 -1.6915 -1.7338
15528TIP3    H268076   0.521   1.673   0.367 -1.3879  2.5804 -1.5056
15529TIP3   OH268077   1.470   2.836  12.600  0.2022 -0.3497 -0.2280
15529TIP3    H168078   1.520   2.754  12.596  0.9449  0.0094  0.9325
15529TIP3    H268079   1.380   2.809  12.620  0.6563 -0.8609  1.2800
15530TIP3   OH268080   2.071   6.760   0.565  0.1838 -1.2282  0.2581
15530TIP3    H168081   2.008   6.728   0.500 -1.2272  2.0925 -0.2328
15530TIP3    H268082   2.017   6.778   0.642  0.6306  0.7095  0.1701
15531TIP3   OH268083   5.277   4.034  11.769  0.3107 -0.0163  0.1742
15531TIP3    H168084   5.205   4.026  11.830  1.1194 -1.2841  1.0283
15531TIP3    H268085   5.346   4.080  11.817  1.4877 -2.2780  0.8330
15532TIP3   OH268086   3.243   6.795   2.307 -0.1774 -0.2653 -0.4030
15532TIP3    H168087   3.231   6.859   2.237  0.4971 -0.4601 -0.7084
15532TIP3    H268088   3.246   6.711   2.261  1.9834 -0.2771 -0.3779
15533TIP3   OH268089   2.054   1.267  14.751  0.3690 -0.0834 -0.2593
15533TIP3    H168090   2.030   1.333  14.816  0.7463 -2.0015  1.9441
15533TIP3    H268091   2.142   1.240  14.777  1.3212  0.3961 -2.7484
15534TIP3   OH268092   5.444   1.481  16.022  0.0075  0.0540 -0.0487
15534TIP3    H168093   5.410   1.569  16.036 -0.2916 -0.0160 -0.3141
15534TIP3    H268094   5.388   1.445  15.953 -0.2064 -0.5277  0.4206
15535TIP3   OH268095   2.563   0.620   2.783 -0.3145  0.1405 -0.4990
15535TIP3    H168096   2.532   0.612   2.693  2.9256 -0.2195 -1.7157
15535TIP3    H268097   2.601   0.535   2.803  0.1662  0.6274  0.7373
15536TIP3   OH268098   2.849   0.942   1.952 -0.5130 -0.9952 -0.1143
15536TIP3    H168099   2.928   0.909   1.910 -0.4310 -0.0049 -0.7645
15536TIP3    H268100   2.787   0.956   1.880 -0.7837 -0.4233  0.2189
15537TIP3   OH268101   2.617   1.786  17.054  0.6250 -0.2403  0.1785
15537TIP3    H168102   2.589   1.791  17.145 -0.1820  0.2007 -0.0785
15537TIP3    H268103   2.712   1.796  17.057  0.7973 -1.8147  1.0889
15538TIP3   OH268104   4.852   6.103  12.567  0.3523 -0.1680 -0.4699
15538TIP3    H168105   4.770   6.112  12.616  1.0518 -0.8852  0.9040
15538TIP3    H268106   4.836   6.033  12.505  0.4550 -1.6251  1.0626
15539TIP3   OH268107   6.126   2.314   5.151 -0.0770 -0.2810 -0.0057
15539TIP3    H168108   6.053   2.289   5.094  0.6201 -1.9541 -0.2150
15539TIP3    H268109   6.165   2.390   5.108 -2.6773  1.7872  1.0052
15540TIP3   OH268110   0.407   4.400   4.114 -0.2816  0.2216 -1.0196
15540TIP3    H168111   0.338   4.427   4.174  0.4481 -0.3226  0.0976
15540TIP3    H268112   0.361   4.376   4.033 -1.5621 -1.4213  0.1356
15541TIP3   OH268113   4.870   5.875  11.403 -0.2346  0.1882  0.1800
15541TIP3    H168114   4.822   5.896  11.323 -0.2672  1.1317  0.4357
15541TIP3    H268115   4.938   5.942  11.409  0.5218 -0.5765  0.3268
15542TIP3   OH268116   0.547   0.243   1.157  0.2871  0.5393 -0.4815
15542TIP3    H168117   0.591   0.185   1.219  1.1685  0.3388 -1.2602
15542TIP3    H268118   0.617   0.274   1.100 -0.5841  0.1978 -1.7830
15543TIP3   OH268119   6.751   3.197  11.761 -0.0329 -0.1586 -0.1003
15543TIP3    H168120   6.773   3.116  11.807 -1.0733 -0.8243 -0.7345
15543TIP3    H268121   6.675   3.232  11.809  0.3854  0.4277  0.1461
15544TIP3   OH268122   4.855   1.637  13.581  0.1412 -0.2138  0.1102
15544TIP3    H168123   4.796   1.627  13.656  1.8653  0.1752  1.5887
15544TIP3    H268124   4.885   1.728  13.586 -0.2971  0.0631 -1.5449
15545TIP3   OH268125   2.142   4.081  12.184  0.2127 -0.8521  0.2363
15545TIP3    H168126   2.220   4.094  12.129 -0.8192 -0.0057 -1.0857
15545TIP3    H268127   2.158   4.136  12.261 -0.1681  1.4013 -1.2094
15546TIP3   OH268128   4.818   3.159  13.606 -0.6451  0.1395  0.0365
15546TIP3    H168129   4.785   3.177  13.517  2.3682  1.7057 -0.9085
15546TIP3    H268130   4.883   3.090  13.594  0.3228  0.8735  0.8766
15547TIP3   OH268131   0.067   5.231   1.880  1.2813 -0.2400  0.2370
15547TIP3    H168132   0.117   5.173   1.937  2.1328 -0.6014 -0.8204
15547TIP3    H268133   0.057   5.182   1.798 -0.6070 -0.0650  0.3198
15548TIP3   OH268134   1.006   4.377  11.602  0.2417 -0.2059  0.0051
15548TIP3    H168135   1.004   4.411  11.692  1.3314  0.8104 -0.3210
15548TIP3    H268136   1.001   4.282  11.612 -0.5509 -0.0698  1.0881
15549TIP3   OH268137   6.522   5.922   5.552  0.3230 -0.4206 -0.6794
15549TIP3    H168138   6.594   5.873   5.592 -0.4711 -0.8897  0.2339
15549TIP3    H268139   6.452   5.857   5.541  0.8475 -0.5911 -3.9414
15550TIP3   OH268140   2.964   6.478  13.149  0.4886 -0.1604 -0.4654
15550TIP3    H168141   2.915   6.502  13.227  0.6876 -0.9550 -0.0817
15550TIP3    H268142   3.049   6.519  13.160  0.2103  0.4991 -0.7174
15551TIP3   OH268143   4.367   1.803   3.209  0.0041 -0.8237  0.7976
15551TIP3    H168144   4.431   1.852   3.157 -0.8842 -0.9265 -0.4347
15551TIP3    H268145   4.366   1.715   3.171 -2.7110 -0.1582 -1.0326
15552TIP3   OH268146   3.440   1.675  12.312 -0.6634 -0.1869 -0.5803
15552TIP3    H168147   3.429   1.716  12.226  1.4221 -1.7627 -1.6955
15552TIP3    H268148   3.535   1.677  12.327 -1.0709  1.7309  2.6161
15553TIP3   OH268149   6.384   5.166  12.596 -0.5106 -0.2560 -0.1237
15553TIP3    H168150   6.381   5.127  12.683  4.4541 -0.1757  0.3702
15553TIP3    H268151   6.356   5.096  12.537 -1.0500 -1.3346  1.3653
15554TIP3   OH268152   2.012   0.976  11.451 -0.1553  0.4773 -0.4958
15554TIP3    H168153   2.027   1.017  11.366 -0.2225  2.5451  0.4465
15554TIP3    H268154   1.983   0.887  11.429  1.1889  0.4679 -2.5891
15555TIP3   OH268155   3.061   0.923  15.453 -1.0932 -0.2231  0.4848
15555TIP3    H168156   3.059   0.949  15.545 -0.9155 -1.3863  0.8289
15555TIP3    H268157   2.971   0.930  15.424 -1.0983  0.4720  0.6429
15556TIP3   OH268158   4.534   3.099   1.051 -0.3703  0.2096  0.0797
15556TIP3    H168159   4.480   3.020   1.052  0.0451 -0.0882  0.9890
15556TIP3    H268160   4.520   3.137   0.965 -2.8500  0.7339  0.6358
15557TIP3   OH268161   0.930   2.066  11.646  0.1153 -0.2944  0.0107
15557TIP3    H168162   0.910   2.102  11.733 -3.0747  4.3033 -2.2382
15557TIP3    H268163   0.923   1.972  11.658 -0.1404  0.0485  4.7060
15558TIP3   OH268164   0.296   0.251   6.854 -0.3937 -0.3934 -0.1137
15558TIP3    H168165   0.284   0.223   6.763 -1.2145 -0.4193 -0.0119
15558TIP3    H268166   0.377   0.210   6.882 -0.7698 -1.3987 -0.4602
15559TIP3   OH268167   5.651   5.113   1.582 -0.3004 -0.0126  0.1874
15559TIP3    H168168   5.708   5.058   1.529 -0.4504 -1.9097  1.8818
15559TIP3    H268169   5.575   5.130   1.526 -0.2894 -1.6279 -0.3686
15560TIP3   OH268170   1.547   1.358  10.654 -0.9544 -0.5031  0.7086
15560TIP3    H168171   1.543   1.277  10.704 -1.3668 -0.2338  1.1264
15560TIP3    H268172   1.483   1.415  10.696  0.0983  0.4177  1.1201
15561TIP3   OH268173   6.530   5.657   2.009  0.0562  0.0528  0.1294
15561TIP3    H168174   6.556   5.729   1.951 -0.2828 -1.0480 -1.4620
15561TIP3    H268175   6.607   5.600   2.011 -0.2710 -0.3987 -0.0351
15562TIP3   OH268176   4.778   6.109   5.354  0.5746 -0.5820 -0.0911
15562TIP3    H168177   4.787   6.014   5.366  0.2787 -0.4056  1.9970
15562TIP3    H268178   4.684   6.124   5.349  0.4216 -0.1918  2.5030
15563TIP3   OH268179   6.117   1.290   4.776  0.3474  0.1461  0.4801
15563TIP3    H168180   6.146   1.280   4.866 -0.8428  1.1730  1.0260
15563TIP3    H268181   6.063   1.213   4.759 -0.7018  0.6850  1.2163
15564TIP3   OH268182   5.097   4.774   5.446 -0.2700 -0.4561  0.2033
15564TIP3    H168183   5.027   4.831   5.480 -1.5917 -0.8466 -1.6808
15564TIP3    H268184   5.052   4.716   5.384  1.8516 -0.2163 -1.6729
15565TIP3   OH268185   3.069   5.925   6.097  0.3592  0.1041  0.4363
15565TIP3    H168186   3.108   5.885   6.019  1.6824 -0.2158  1.2236
15565TIP3    H268187   3.135   5.912   6.165 -0.3217  1.3222  1.3554
15566TIP3   OH268188   6.186   1.329  17.116  0.7911  0.2205 -0.2752
15566TIP3    H168189   6.110   1.323  17.059  0.2525  0.6705  0.3811
15566TIP3    H268190   6.199   1.239  17.148 -0.3706  0.4046  0.7559
15567TIP3   OH268191   4.918   1.262   2.600  0.2166 -0.3287 -0.1184
15567TIP3    H168192   4.899   1.175   2.635  1.2107 -0.9970 -1.1389
15567TIP3    H268193   5.001   1.251   2.554  2.0452  1.9207  2.3662
15568TIP3   OH268194   5.271   2.265   2.104 -0.8871  0.4787  0.0170
15568TIP3    H168195   5.308   2.352   2.090  1.2673 -0.2842  0.5435
15568TIP3    H268196   5.253   2.232   2.017 -0.9001  1.0998 -0.2238
15569TIP3   OH268197   3.442   2.800   3.526  0.0544  0.3336 -0.4442
15569TIP3    H168198   3.469   2.715   3.490 -0.4115 -1.0498  2.2546
15569TIP3    H268199   3.353   2.785   3.558  0.2190  1.6253  0.7138
15570TIP3   OH268200   2.762   1.569   3.509 -0.3777  0.5170  0.6263
15570TIP3    H168201   2.766   1.518   3.429 -0.8320 -1.8755  2.0314
15570TIP3    H268202   2.825   1.640   3.496  1.4119 -1.2502 -0.8718
15571TIP3   OH268203   4.633   6.776   4.373  0.2613  0.2585  0.0407
15571TIP3    H168204   4.623   6.694   4.422 -2.2071  0.3078 -0.2888
15571TIP3    H268205   4.702   6.823   4.419  1.2091 -1.6672  0.6836
15572TIP3   OH268206   5.815   0.771  12.052  0.4821  0.0553 -0.1719
15572TIP3    H168207   5.844   0.724  12.131  0.2920  1.5403  0.8289
15572TIP3    H268208   5.720   0.763  12.054  0.5355 -0.9504 -0.9544
15573TIP3   OH268209   6.211   5.994   3.379 -0.5502 -0.1249  0.2696
15573TIP3    H168210   6.186   6.073   3.427 -3.6119  0.0142 -1.3239
15573TIP3    H268211   6.153   5.992   3.304  0.6297 -3.0134 -0.7164
15574TIP3   OH268212   1.016   5.923   1.769 -0.2870  0.1859  0.4013
15574TIP3    H168213   1.072   5.888   1.839 -1.6909 -1.6715  0.6715
15574TIP3    H268214   0.968   5.995   1.811 -0.5272 -0.3916  1.1519
15575TIP3   OH268215   1.691   5.622  14.273  0.7951  0.4232 -0.3227
15575TIP3    H168216   1.691   5.717  14.284 -2.7590  0.4798  0.3901
15575TIP3    H268217   1.654   5.608  14.185 -1.1045 -0.2017  0.5055
15576TIP3   OH268218   6.788   2.747  14.719  0.1714 -0.0273  0.5640
15576TIP3    H168219   6.773   2.653  14.725  2.1020 -0.3877  0.3831
15576TIP3    H268220   6.877   2.755  14.686 -0.1020  1.8796  0.1542
15577TIP3   OH268221   5.644   2.100  14.552  0.6712 -0.0234  0.0558
15577TIP3    H168222   5.623   2.073  14.641  0.7695 -0.5110 -0.0649
15577TIP3    H268223   5.569   2.072  14.500  1.6504 -1.9272 -0.4071
15578TIP3   OH268224   4.289   5.723  13.568  0.2080  0.0809  0.7302
15578TIP3    H168225   4.320   5.643  13.612  0.6800  0.3838  0.9552
15578TIP3    H268226   4.368   5.775  13.554 -0.0758  0.4378  0.4327
15579TIP3   OH268227   6.711   1.986  11.591 -0.1778  0.2070  0.0772
15579TIP3    H168228   6.620   1.958  11.598  0.3181 -1.8279 -1.0473
15579TIP3    H268229   6.762   1.907  11.609  1.3140  0.6635 -1.8198
15580TIP3   OH268230   2.604   2.431   5.152 -0.0136  0.1955  0.1352
15580TIP3    H168231   2.628   2.519   5.182  0.1049  0.1260  0.2486
15580TIP3    H268232   2.688   2.384   5.148 -0.1051  0.0164  0.3109
15581TIP3   OH268233   5.740   5.098  16.213  0.4357 -0.6633  0.1608
15581TIP3    H168234   5.724   5.138  16.298 -0.1827 -0.0301 -0.2369
15581TIP3    H268235   5.779   5.167  16.160 -2.0705 -0.0158 -1.0112
15582TIP3   OH268236   4.220   3.542  10.538 -0.0218  0.2406 -0.4673
15582TIP3    H168237   4.295   3.485  10.557  0.9662  1.6038 -0.1175
15582TIP3    H268238   4.225   3.611  10.604 -1.4412  0.5116 -0.6210
15583TIP3   OH268239   3.151   4.989   5.047 -0.5162 -0.1585  0.4383
15583TIP3    H168240   3.239   4.966   5.076 -0.0404  0.8400 -0.1463
15583TIP3    H268241   3.164   5.062   4.986 -1.5618 -1.5011 -1.4710
15584TIP3   OH268242   0.613   6.408   1.170 -0.1275  0.1537  0.5380
15584TIP3    H168243   0.564   6.486   1.142  0.6827  0.0632 -1.3172
15584TIP3    H268244   0.547   6.339   1.178 -0.4878  0.3107 -0.7940
15585TIP3   OH268245   1.680   4.311  15.673  0.4228  0.4319 -0.0183
15585TIP3    H168246   1.662   4.263  15.755 -2.3886  1.3767  0.0456
15585TIP3    H268247   1.712   4.396  15.703  0.1636  0.4938  0.0928
15586TIP3   OH268248   1.316   5.781   3.708  0.3317 -0.3721 -0.1059
15586TIP3    H168249   1.254   5.778   3.635  0.8721  1.2946 -0.7065
15586TIP3    H268250   1.269   5.824   3.779 -0.4569 -2.7111  0.8731
15587TIP3   OH268251   4.028   0.888  12.148 -0.0986 -0.0174  0.0837
15587TIP3    H168252   3.988   0.954  12.205 -0.8607 -0.0173 -0.4400
15587TIP3    H268253   4.122   0.909  12.150 -0.4824  2.2577 -1.4973
15588TIP3   OH268254   4.112   2.721  14.106  0.1479 -0.1310 -0.3780
15588TIP3    H168255   4.108   2.671  14.188  0.4573 -0.2490 -0.4333
15588TIP3    H268256   4.175   2.673  14.052 -0.3073 -0.2410 -0.8148
15589TIP3   OH268257   4.473   0.011  14.661 -0.7128 -0.1799 -0.0179
15589TIP3    H168258   4.422   0.073  14.609 -1.1777 -0.0273  0.6116
15589TIP3    H268259   4.546   0.064  14.695 -1.7503  0.3484  1.4943
15590TIP3   OH268260   2.443   1.826  15.019 -0.9842  0.2030  0.0963
15590TIP3    H168261   2.470   1.755  14.961 -1.0789 -1.5327  2.0629
15590TIP3    H268262   2.493   1.902  14.989  0.9157 -1.2563 -0.6232
15591TIP3   OH268263   2.690   2.390   0.489  0.5110 -0.4694 -0.2052
15591TIP3    H168264   2.601   2.363   0.510 -0.2938  1.1511 -1.2496
15591TIP3    H268265   2.736   2.309   0.468 -0.3639 -1.4542  1.4630
15592TIP3   OH268266   0.378   3.755   3.201  0.2031 -0.0897  0.2448
15592TIP3    H168267   0.375   3.674   3.150  1.3873 -0.0545  0.0949
15592TIP3    H268268   0.401   3.727   3.290 -2.6679 -0.2441  1.0445
15593TIP3   OH268269   0.849   3.377   3.647 -0.0395 -0.4637  0.4345
15593TIP3    H168270   0.776   3.316   3.658 -0.3339 -0.3189 -0.5667
15593TIP3    H268271   0.848   3.430   3.727  0.1223 -1.6464  1.2502
15594TIP3   OH268272   0.796   1.941  10.776  0.4211  0.0173 -0.1849
15594TIP3    H168273   0.745   1.894  10.709  0.9792 -0.6527 -0.1514
15594TIP3    H268274   0.806   1.877  10.847 -1.6643  1.2427  1.3613
15595TIP3   OH268275   4.953   2.843  15.236 -0.4202  0.3789 -0.1913
15595TIP3    H168276   4.912   2.924  15.205  1.0767  0.9826 -0.6560
15595TIP3    H268277   4.946   2.848  15.332 -0.5954  0.9024 -0.2273
15596TIP3   OH268278   6.435   4.570  13.646  0.3737 -0.0740 -0.7104
15596TIP3    H168279   6.380   4.557  13.723 -1.5860  1.2310 -1.7850
15596TIP3    H268280   6.423   4.663  13.624  1.3704 -0.2749 -2.2176
15597TIP3   OH268281   5.002   2.484   2.593  0.3229  0.1021 -0.3058
15597TIP3    H168282   5.086   2.526   2.573  0.9437 -1.0893 -0.2416
15597TIP3    H268283   5.011   2.395   2.559 -0.0121 -0.7894  1.8129
15598TIP3   OH268284   4.124   5.621  14.331 -0.2042 -0.1949 -0.3487
15598TIP3    H168285   4.183   5.599  14.404 -0.1021 -1.2708 -0.7381
15598TIP3    H268286   4.136   5.715  14.318  0.6999 -0.2199  0.2216
15599TIP3   OH268287   3.716   4.152  14.495 -0.3991 -0.1790  0.4226
15599TIP3    H168288   3.737   4.201  14.415 -2.3987  0.7382  0.3710
15599TIP3    H268289   3.766   4.196  14.564 -0.2949  0.4036 -0.0096
15600TIP3   OH268290   5.910   0.501   6.583 -0.8993 -0.2139  0.1395
15600TIP3    H168291   5.991   0.492   6.532 -0.7356 -0.4670  0.4405
15600TIP3    H268292   5.909   0.424   6.640 -0.9083  0.2416  0.7575
15601TIP3   OH268293   6.245   2.875   3.771 -0.3434 -0.4389 -0.1712
15601TIP3    H168294   6.273   2.862   3.680 -0.4623 -1.5148 -0.0589
15601TIP3    H268295   6.289   2.806   3.820  1.6753  1.5354  1.0187
15602TIP3   OH268296   5.543   0.087  16.629 -0.0444 -0.0650 -0.0589
15602TIP3    H168297   5.474   0.065  16.566 -0.3325 -0.6261  0.4360
15602TIP3    H268298   5.598   0.150  16.583  0.5479 -1.4715 -1.4094
15603TIP3   OH268299   6.796   6.653   6.468  0.3122 -0.3427 -0.2612
15603TIP3    H168300   6.746   6.727   6.435  1.0907  0.7510  0.8990
15603TIP3    H268301   6.862   6.692   6.525 -0.1272 -1.9915  1.5078
15604TIP3   OH268302   6.072   5.561  14.150 -0.4292 -0.4573  0.0689
15604TIP3    H168303   5.984   5.581  14.184 -0.6052 -1.2456  0.0996
15604TIP3    H268304   6.104   5.645  14.116 -1.4315 -0.2764 -0.4804
15605TIP3   OH268305   5.379   4.455  12.932 -0.3042 -0.0737  0.8694
15605TIP3    H168306   5.452   4.427  12.878 -1.1561  0.4049 -0.5913
15605TIP3    H268307   5.325   4.377  12.942  0.0630 -0.2651  1.3993
15606TIP3   OH268308   4.852   3.568  13.476 -0.4569 -0.2222 -0.0135
15606TIP3    H168309   4.941   3.557  13.442 -0.6819 -0.3106 -0.5651
15606TIP3    H268310   4.848   3.507  13.550 -0.2121 -0.5504 -0.2701
15607TIP3   OH268311   2.832   0.818   1.609 -0.8326 -0.4191  0.2432
15607TIP3    H168312   2.757   0.858   1.565 -0.3202  0.9890  0.5915
15607TIP3    H268313   2.834   0.729   1.576 -1.0626  0.2880 -1.8360
15608TIP3   OH268314   0.196   2.179   5.329  0.7046  0.1758 -0.3174
15608TIP3    H168315   0.164   2.187   5.240 -0.3285  0.7280  0.0906
15608TIP3    H268316   0.215   2.086   5.339  0.5497  0.0635 -1.0114
15609TIP3   OH268317   2.457   2.627   4.397 -0.2138  0.3567  0.3181
15609TIP3    H168318   2.543   2.662   4.420  0.0651 -0.4838  0.5796
15609TIP3    H268319   2.409   2.624   4.479 -0.0312 -0.4082  0.4095
15610TIP3   OH268320   2.211   3.752   2.737  0.3404  0.5880 -0.5285
15610TIP3    H168321   2.173   3.667   2.757  0.6604  0.4064 -0.6949
15610TIP3    H268322   2.139   3.814   2.751  0.8229  0.6182  2.2871
15611TIP3   OH268323   2.406   6.729   1.026  0.1300  0.2742 -0.3278
15611TIP3    H168324   2.449   6.797   1.079 -0.2182  0.4118 -0.2136
15611TIP3    H268325   2.471   6.660   1.017  0.7611  0.9501 -1.0868
15612TIP3   OH268326   0.315   1.636   5.452 -0.2908 -0.3767 -0.8179
15612TIP3    H168327   0.300   1.691   5.529  0.3704 -0.0353 -0.9189
15612TIP3    H268328   0.384   1.682   5.404 -1.5776  0.0759 -2.2721
15613TIP3   OH268329   2.341   6.274  15.484  0.3554 -0.2633  0.1261
15613TIP3    H168330   2.287   6.195  15.488  1.1264 -0.8648 -1.0198
15613TIP3    H268331   2.429   6.243  15.465  0.3730  0.9370 -2.1399
15614TIP3   OH268332   0.909   5.602   5.136  0.1460  0.4573 -0.0941
15614TIP3    H168333   0.883   5.634   5.050 -0.2726  0.3469 -0.0099
15614TIP3    H268334   0.992   5.557   5.121 -0.3427 -0.2994 -0.5963
15615TIP3   OH268335   0.131   5.548   1.876  0.3429  0.4536 -0.2300
15615TIP3    H168336   0.046   5.545   1.920  1.1813  0.8877  1.5029
15615TIP3    H268337   0.140   5.463   1.833  0.4746 -0.9627  2.4241
15616TIP3   OH268338   5.239   4.949  13.260 -0.0828  0.0321 -0.0989
15616TIP3    H168339   5.166   5.009  13.247 -0.0780  0.3015  1.0201
15616TIP3    H268340   5.302   4.973  13.193 -0.5601  0.5238 -0.3794
15617TIP3   OH268341   4.245   0.535   5.640 -0.5510  0.2646 -0.2599
15617TIP3    H168342   4.334   0.539   5.675 -0.9551  1.5776  0.6751
15617TIP3    H268343   4.194   0.491   5.708 -0.9032  0.8658 -0.1263
15618TIP3   OH268344   1.697   3.939   2.721  0.4069  0.1665  0.1498
15618TIP3    H168345   1.678   4.033   2.725  0.2768  0.1690 -0.5230
15618TIP3    H268346   1.626   3.898   2.772  0.3262  0.4100  0.2349
15619TIP3   OH268347   0.534   1.388  14.907 -0.0909  0.0870  0.1986
15619TIP3    H168348   0.593   1.464  14.910  0.8774 -0.6801  1.4446
15619TIP3    H268349   0.486   1.392  14.989  0.1563 -0.7810  0.3952
15620TIP3   OH268350   3.532   0.488   3.964 -0.0922  0.2532  0.1566
15620TIP3    H168351   3.560   0.422   3.901  1.0198  0.6002  0.2762
15620TIP3    H268352   3.445   0.514   3.933 -0.4928 -1.1624  0.0398
15621TIP3   OH268353   3.942   0.738  14.087  0.1421  0.6182 -0.7091
15621TIP3    H168354   3.864   0.794  14.090 -0.3181 -0.0055 -0.9097
15621TIP3    H268355   3.954   0.718  13.994  1.6393  2.2057 -0.9191
15622TIP3   OH268356   0.843   1.880  11.051  0.5657  0.3907  0.1761
15622TIP3    H168357   0.917   1.837  11.094  0.9086  0.2323 -0.5598
15622TIP3    H268358   0.783   1.809  11.029  0.8514  0.3474 -0.4905
15623TIP3   OH268359   0.870   2.523  16.607 -0.0260  0.8889 -0.0491
15623TIP3    H168360   0.895   2.579  16.533 -0.0838  1.8705  0.6512
15623TIP3    H268361   0.775   2.514  16.600  0.2098 -1.2110 -1.5747
15624TIP3   OH268362   3.907   1.839  10.775  0.4120  0.3541 -0.1985
15624TIP3    H168363   3.877   1.778  10.708 -0.2616  1.1516 -0.6390
15624TIP3    H268364   3.935   1.916  10.726  0.9838  0.5064  0.3687
15625TIP3   OH268365   5.175   4.310  16.701  0.3439 -0.4662 -0.1108
15625TIP3    H168366   5.189   4.353  16.617  0.8441 -2.6616 -1.2380
15625TIP3    H268367   5.110   4.364  16.746  0.2963  0.9305 -1.7745
15626TIP3   OH268368   5.920   5.145   5.593  0.0934  0.5095  0.1998
15626TIP3    H168369   5.875   5.213   5.645 -0.1870  0.7622 -0.3637
15626TIP3    H268370   6.012   5.169   5.597  0.2026 -0.0324  1.4000
15627TIP3   OH268371   6.450   4.549   5.682 -0.3710  0.2675  0.2102
15627TIP3    H168372   6.454   4.480   5.616  2.4439 -0.9209  1.4632
15627TIP3    H268373   6.457   4.630   5.632 -2.0384 -0.3776 -1.1609
15628TIP3   OH268374   2.294   1.878  15.604  0.5207  0.3636 -0.3362
15628TIP3    H168375   2.208   1.864  15.643  1.6749  0.2181  2.3207
15628TIP3    H268376   2.300   1.973  15.593  0.0341  0.3746 -0.5277
15629TIP3   OH268377   2.642   6.372   2.676  0.2379 -0.2678  0.0653
15629TIP3    H168378   2.570   6.394   2.736 -0.1953  0.2960 -0.6483
15629TIP3    H268379   2.611   6.295   2.629 -0.1061  0.2518 -0.5737
15630TIP3   OH268380   3.472   1.112  11.839  0.2161  0.3273  0.1257
15630TIP3    H168381   3.450   1.167  11.914 -0.5596 -0.9182  0.8470
15630TIP3    H268382   3.508   1.032  11.877 -0.1935 -0.3258 -0.8261
15631TIP3   OH268383   1.636   6.343   2.086 -0.3306  0.1223  0.0673
15631TIP3    H168384   1.588   6.277   2.136 -0.3264 -0.3016 -0.4770
15631TIP3    H268385   1.705   6.294   2.041 -0.1185  0.5496 -0.0838
15632TIP3   OH268386   0.270   4.069   6.168  0.0401  0.3758 -0.7384
15632TIP3    H168387   0.319   4.004   6.219 -0.5256  0.3265 -0.2453
15632TIP3    H268388   0.215   4.113   6.233 -1.2612 -0.2041 -1.4363
15633TIP3   OH268389   4.546   2.383  15.676 -0.4785 -0.7663  0.3163
15633TIP3    H168390   4.494   2.363  15.598 -1.7612  1.1017  0.6275
15633TIP3    H268391   4.633   2.348  15.656  0.9083  4.0321 -4.3205
15634TIP3   OH268392   6.077   0.690   1.491  0.1485 -0.2439  0.0407
15634TIP3    H168393   6.147   0.712   1.429 -0.6736  0.2485 -0.7311
15634TIP3    H268394   6.048   0.603   1.465 -1.1086  0.4972 -1.1604
15635TIP3   OH268395   3.826   6.278   1.188  0.2048 -0.6145  0.3878
15635TIP3    H168396   3.817   6.226   1.107  0.5006  1.8379 -1.3419
15635TIP3    H268397   3.867   6.218   1.250  0.7741 -2.3717 -1.5438
15636TIP3   OH268398   5.528   1.740  12.178  0.3801 -0.2243  0.0942
15636TIP3    H168399   5.576   1.665  12.212  1.7883  0.1534 -0.9207
15636TIP3    H268400   5.522   1.724  12.084 -0.0028  0.5429 -0.0257
15637TIP3   OH268401   6.363   3.576  14.220 -0.0093 -0.0268  0.5270
15637TIP3    H168402   6.436   3.638  14.221  0.3464 -0.4311 -0.0377
15637TIP3    H268403   6.287   3.628  14.248  0.5458  0.3210  1.4275
15638TIP3   OH268404   1.777   4.239   5.442 -0.6905 -0.3215 -0.1063
15638TIP3    H168405   1.764   4.177   5.370 -1.8681 -1.7428  1.2553
15638TIP3    H268406   1.690   4.252   5.479  0.0537 -0.8261  1.9902
15639TIP3   OH268407   0.909   5.647  14.989 -0.4119 -0.3456  0.3716
15639TIP3    H168408   0.835   5.677  14.937  0.0334 -3.1383 -2.1391
15639TIP3    H268409   0.977   5.713  14.975 -0.9123 -0.1309 -1.2471
15640TIP3   OH268410   0.504   6.217  14.234 -0.4056  0.3205 -0.0557
15640TIP3    H168411   0.428   6.189  14.183 -0.3909 -1.5012  0.8278
15640TIP3    H268412   0.532   6.299  14.193 -2.3468  0.6145 -0.8923
15641TIP3   OH268413   5.092   1.858   1.932  0.3599 -0.4521  0.3165
15641TIP3    H168414   5.009   1.811   1.941  0.3829 -0.5258  0.1460
15641TIP3    H268415   5.103   1.870   1.838  1.0370 -1.3314  0.2739
15642TIP3   OH268416   1.684   1.564  16.045 -0.2679 -0.4556  1.0553
15642TIP3    H168417   1.596   1.530  16.027 -0.3948 -1.2152  2.9245
15642TIP3    H268418   1.729   1.491  16.087  1.9319 -0.7602 -1.5247
15643TIP3   OH268419   4.295   2.311   0.942  0.3371 -0.5639 -0.6842
15643TIP3    H168420   4.219   2.370   0.937 -0.2171 -1.2475 -0.4950
15643TIP3    H268421   4.353   2.340   0.871  2.3437  3.2819  2.1458
15644TIP3   OH268422   5.231   0.151   5.380 -0.0874  0.3538 -0.0502
15644TIP3    H168423   5.163   0.135   5.445  0.0481 -1.6134 -0.3233
15644TIP3    H268424   5.206   0.097   5.306  0.9783  0.7878 -0.7454
15645TIP3   OH268425   6.779   4.582   3.837  0.1266 -0.1825 -0.1815
15645TIP3    H168426   6.852   4.619   3.888  0.3030  1.1975 -1.3687
15645TIP3    H268427   6.821   4.522   3.776  0.1272 -0.3709  0.0038
15646TIP3   OH268428   5.744   1.818  10.978 -0.3817  0.0088 -0.2051
15646TIP3    H168429   5.669   1.859  10.934  1.7837  1.9037 -2.4457
15646TIP3    H268430   5.800   1.788  10.906  0.5245 -2.3847  1.3972
15647TIP3   OH268431   0.617   2.446   5.612  0.0730  0.7839 -0.2795
15647TIP3    H168432   0.542   2.432   5.555  0.7586 -2.5468 -0.5986
15647TIP3    H268433   0.588   2.415   5.698  1.2436 -1.4764 -0.6169
15648TIP3   OH268434   6.748   6.579  11.891  0.6260  0.7248 -0.1669
15648TIP3    H168435   6.813   6.581  11.962  1.1714  0.3210 -0.6463
15648TIP3    H268436   6.695   6.657  11.905  1.0280  0.9038  0.4120
15649TIP3   OH268437   0.095   4.079   3.271 -0.1617 -0.3486  0.3590
15649TIP3    H168438   0.163   4.038   3.324 -0.4603 -1.1062  0.1643
15649TIP3    H268439   0.133   4.083   3.183 -0.3708 -0.7685  0.2510
15650TIP3   OH268440   1.220   0.834   2.671 -0.2596  0.1352 -0.7365
15650TIP3    H168441   1.278   0.853   2.597  0.9013 -1.1645 -0.2223
15650TIP3    H268442   1.188   0.745   2.654 -1.5035  0.5382 -0.6037
15651TIP3   OH268443   3.306   4.006   0.291 -0.1388 -0.3941  0.6225
15651TIP3    H168444   3.248   3.990   0.366 -0.2775 -1.4885  0.3083
15651TIP3    H268445   3.394   3.986   0.324  0.5405  3.6936  1.8608
15652TIP3   OH268446   5.221   4.564   1.860 -0.0901 -0.6688  0.0479
15652TIP3    H168447   5.151   4.502   1.840  0.1669 -0.7301 -0.6994
15652TIP3    H268448   5.288   4.512   1.903  0.3821 -1.0584 -1.1053
15653TIP3   OH268449   2.568   1.452  15.821 -0.0610  0.3095 -0.2283
15653TIP3    H168450   2.510   1.475  15.749  0.8696  3.1891 -0.1960
15653TIP3    H268451   2.654   1.482  15.792  1.1033 -1.9844  0.5704
15654TIP3   OH268452   0.393   3.071   5.637 -0.4094  0.4472  0.3335
15654TIP3    H168453   0.356   3.155   5.611 -0.3294  0.4298  0.1613
15654TIP3    H268454   0.331   3.036   5.701 -0.6656  0.4402  0.0850
15655TIP3   OH268455   2.654   2.740  16.584 -0.6572  0.1004 -0.7991
15655TIP3    H168456   2.696   2.823  16.606 -2.2802  0.3250  1.9549
15655TIP3    H268457   2.726   2.678  16.574  0.4636  1.2633 -0.1842
15656TIP3   OH268458   4.460   5.120   6.548  0.3551  0.2692  0.2576
15656TIP3    H168459   4.525   5.095   6.613  0.9689 -2.3928 -1.2479
15656TIP3    H268460   4.496   5.199   6.508  1.4548  0.1926  1.0532
15657TIP3   OH268461   2.552   4.189   3.155 -0.2774 -0.2170 -0.2102
15657TIP3    H168462   2.513   4.272   3.129  0.9263  0.2033 -0.7444
15657TIP3    H268463   2.594   4.156   3.075  2.2661  0.3991  0.7457
15658TIP3   OH268464   4.715   2.361   0.299  0.3572  0.7704 -0.0087
15658TIP3    H168465   4.665   2.280   0.292  0.3710  0.8698 -2.0343
15658TIP3    H268466   4.805   2.336   0.277  1.1009  0.7596  2.7017
15659TIP3   OH268467   3.952   2.031   0.147  0.0991  0.4939  0.0591
15659TIP3    H168468   3.938   2.005   0.056  1.2315  0.3405 -0.0850
15659TIP3    H268469   3.864   2.032   0.185 -0.3978  0.6254 -1.0443
15660TIP3   OH268470   6.714   0.152   5.318  0.2520 -0.1313 -0.7727
15660TIP3    H168471   6.624   0.141   5.287 -0.4951 -0.1595  1.2642
15660TIP3    H268472   6.767   0.109   5.251 -0.8610  2.7796 -3.8954
15661TIP3   OH268473   1.070   5.466   1.548  0.0818  0.1867 -0.3011
15661TIP3    H168474   0.974   5.457   1.545 -0.1236  1.8603  0.1873
15661TIP3    H268475   1.087   5.555   1.516  1.3750  0.3523  0.7609
15662TIP3   OH268476   2.209   6.383   2.892  0.2596 -0.2938 -0.1617
15662TIP3    H168477   2.216   6.306   2.836  1.1160  0.5084 -1.2182
15662TIP3    H268478   2.217   6.350   2.981  2.3431 -1.2530 -0.6546
15663TIP3   OH268479   1.142   6.578   1.196 -0.0628  0.1689  0.1182
15663TIP3    H168480   1.236   6.568   1.186  0.2312  2.1749  0.3941
15663TIP3    H268481   1.117   6.509   1.257  1.4607  0.4376  1.0980
15664TIP3   OH268482   1.251   3.666  15.927 -0.4273  0.3825 -0.6129
15664TIP3    H168483   1.287   3.755  15.923  0.2207  0.2441  1.0647
15664TIP3    H268484   1.315   3.613  15.879  0.5594  0.4670  0.5450
15665TIP3   OH268485   0.210   6.773   2.862  0.0103 -0.1027  0.3136
15665TIP3    H168486   0.221   6.837   2.791 -0.9364 -0.7850 -0.4804
15665TIP3    H268487   0.119   6.786   2.891  0.3575  0.1002  1.3466
15666TIP3   OH268488   0.451   2.289   0.858 -0.2879  0.1075 -0.2366
15666TIP3    H168489   0.492   2.363   0.813  3.1379 -0.6072  1.4236
15666TIP3    H268490   0.468   2.214   0.801 -2.0403  0.2145 -0.9660
15667TIP3   OH268491   1.123   2.451  10.616  0.2409 -0.2520  0.0326
15667TIP3    H168492   1.198   2.504  10.591 -0.1459  1.5148  2.2928
15667TIP3    H268493   1.142   2.424  10.706 -1.3931 -0.5981  0.3011
15668TIP3   OH268494   2.994   2.779   3.584 -0.7209  0.3082  0.5573
15668TIP3    H168495   2.937   2.850   3.614  0.0842  1.0955  0.2526
15668TIP3    H268496   3.057   2.822   3.526 -1.1341 -0.8924 -0.8203
15669TIP3   OH268497   0.764   3.825   1.897 -0.9739  0.1674 -0.2126
15669TIP3    H168498   0.738   3.820   1.989  0.9782 -0.1073  0.3570
15669TIP3    H268499   0.765   3.734   1.867 -1.8358  0.2722 -0.6065
15670TIP3   OH268500   5.116   6.323   3.967  0.5589  0.0616  0.0922
15670TIP3    H168501   5.096   6.284   4.052 -1.6078  1.1709  0.1675
15670TIP3    H268502   5.165   6.403   3.988  0.5496  0.0230  0.2618
15671TIP3   OH268503   2.962   3.325   6.036 -0.4493  0.7756 -1.1872
15671TIP3    H168504   2.909   3.273   6.096  1.1029  2.4253  1.8665
15671TIP3    H268505   2.980   3.406   6.084  2.9258  1.2211 -2.8826
15672TIP3   OH268506   1.522   2.346  16.528 -0.6900  0.1936  0.0735
15672TIP3    H168507   1.519   2.323  16.621  0.9996 -0.2562  0.0464
15672TIP3    H268508   1.484   2.270  16.484  0.2053 -0.4039  0.3034
15673TIP3   OH268509   4.013   1.535  15.762  0.2598  0.1351  0.1986
15673TIP3    H168510   3.955   1.595  15.717 -1.4048 -1.6145 -0.1285
15673TIP3    H268511   3.967   1.512  15.842  1.3449  0.0907  0.8322
15674TIP3   OH268512   0.023   5.578   2.809 -0.2934 -0.5117 -0.0816
15674TIP3    H168513   0.026   5.673   2.800  1.1833 -0.5942 -0.7515
15674TIP3    H268514   0.047   5.562   2.901  0.7636 -0.2833 -0.3130
15675TIP3   OH268515   4.846   5.916  12.345  0.1036  0.2525 -0.5284
15675TIP3    H168516   4.809   5.833  12.316  0.7643 -1.5575  3.1464
15675TIP3    H268517   4.940   5.904  12.341  0.2263  1.2411 -0.9533
15676TIP3   OH268518   3.092   2.122  16.983 -0.3739  0.1345  0.2765
15676TIP3    H168519   3.137   2.039  16.966  0.3402  0.4412  0.6158
15676TIP3    H268520   3.009   2.115  16.936 -0.0333 -0.5089 -0.2392
15677TIP3   OH268521   2.657   1.688  12.354  0.2712  0.3677 -0.6513
15677TIP3    H168522   2.724   1.629  12.321  1.1582  0.7774  0.3946
15677TIP3    H268523   2.705   1.759  12.396 -0.7032  2.4689 -2.8169
15678TIP3   OH268524   4.294   5.226  14.000 -0.1467  0.1364 -0.4549
15678TIP3    H168525   4.225   5.253  13.939  0.2910  0.8151 -0.6680
15678TIP3    H268526   4.322   5.308  14.042  3.5079  0.7054 -3.4838
15679TIP3   OH268527   4.189   4.625   4.082 -0.0081 -0.0082  0.0268
15679TIP3    H168528   4.234   4.632   3.998  2.4694 -0.2923  1.2303
15679TIP3    H268529   4.235   4.686   4.139 -0.5022 -1.0382  1.6079
15680TIP3   OH268530   1.801   1.484   3.145 -0.5381 -0.0118 -0.2016
15680TIP3    H168531   1.826   1.392   3.152 -1.4256 -0.2931 -0.5347
15680TIP3    H268532   1.786   1.512   3.235  0.7489  0.1205 -0.0052
15681TIP3   OH268533   1.910   3.358   5.813 -0.0158 -0.2808 -0.5002
15681TIP3    H168534   1.913   3.352   5.909 -0.6095  1.9628 -0.2850
15681TIP3    H268535   2.001   3.366   5.787  0.1621 -1.0537 -0.1445
15682TIP3   OH268536   6.719   1.780   3.297  0.0861 -0.0726 -0.0296
15682TIP3    H168537   6.731   1.718   3.369 -1.5442 -1.0016 -0.5069
15682TIP3    H268538   6.765   1.740   3.223  0.0939 -0.0884 -0.0162
15683TIP3   OH268539   5.166   0.663   0.012  0.5598  0.4418 -0.3693
15683TIP3    H168540   5.103   0.732  -0.005  0.8135  0.8876  0.4497
15683TIP3    H268541   5.200   0.639  -0.074 -0.3175  0.5743 -0.7632
15684TIP3   OH268542   0.416   3.275  16.796  0.0861 -0.1860 -0.4359
15684TIP3    H168543   0.391   3.316  16.880  0.4257 -1.6501  0.4047
15684TIP3    H268544   0.496   3.226  16.816  1.0403  0.6483 -1.9948
15685TIP3   OH268545   0.905   2.072  15.320  0.1675 -0.5285 -0.0385
15685TIP3    H168546   0.995   2.103  15.312 -0.1722  0.7682  0.7682
15685TIP3    H268547   0.862   2.139  15.373 -1.0721 -1.5373  0.2730
15686TIP3   OH268548   4.895   6.569  10.787 -0.0697 -0.1937 -0.0160
15686TIP3    H168549   4.923   6.525  10.707  0.5448  0.7410 -0.3281
15686TIP3    H268550   4.868   6.498  10.845 -0.8128 -0.8697 -1.1507
15687TIP3   OH268551   1.415   2.621   5.885 -0.1862 -0.5474 -0.3755
15687TIP3    H168552   1.412   2.566   5.964  0.0297 -1.5566 -1.0551
15687TIP3    H268553   1.482   2.580   5.830 -2.5300 -1.7823 -2.4844
15688TIP3   OH268554   5.075   1.587   5.027 -0.0804 -0.2350  0.3591
15688TIP3    H168555   5.082   1.680   5.006  1.2785 -0.8835 -2.6235
15688TIP3    H268556   5.003   1.556   4.972 -0.6626 -0.9357  1.4892
15689TIP3   OH268557   2.060   5.042   6.007 -0.2138 -0.7983 -0.1022
15689TIP3    H168558   2.060   5.137   5.995  1.8206 -0.7822 -0.2873
15689TIP3    H268559   2.070   5.030   6.102 -0.2123 -0.8295 -0.1064
15690TIP3   OH268560   4.850   0.132  14.491 -0.5871  0.2534 -0.0796
15690TIP3    H168561   4.904   0.158  14.565 -0.1800  0.2109 -0.3606
15690TIP3    H268562   4.780   0.080  14.530 -0.4800  0.3855  0.2948
15691TIP3   OH268563   2.312   4.968   2.256 -0.2093 -0.5648  0.0924
15691TIP3    H168564   2.302   5.063   2.257 -3.5978 -0.7958 -0.5396
15691TIP3    H268565   2.354   4.949   2.172  2.7487  0.3937  1.2196
15692TIP3   OH268566   3.077   1.956  15.326  0.3051 -0.9423  0.3876
15692TIP3    H168567   3.032   1.975  15.408 -1.4746 -1.5277 -0.4033
15692TIP3    H268568   3.051   2.026  15.266 -1.5336 -2.5260 -0.7753
15693TIP3   OH268569   3.197   3.679  14.878  0.0828 -0.5925 -0.5230
15693TIP3    H168570   3.192   3.753  14.937  0.7104 -1.0420  0.1105
15693TIP3    H268571   3.268   3.625  14.913 -0.6836 -1.7377 -0.6782
15694TIP3   OH268572   1.727   3.899   3.166  0.3583  0.4386  0.1445
15694TIP3    H168573   1.769   3.823   3.127  1.0651 -0.1884  2.0107
15694TIP3    H268574   1.637   3.870   3.184 -0.2029  0.9739 -1.5934
15695TIP3   OH268575   6.493   6.617   5.802 -0.1349  0.2377 -0.3027
15695TIP3    H168576   6.500   6.538   5.855 -0.3744 -0.8126 -1.7669
15695TIP3    H268577   6.558   6.676   5.838  0.4120 -0.8265  0.5080
15696TIP3   OH268578   3.197   4.513   4.384 -0.3169  0.7073 -0.2059
15696TIP3    H168579   3.172   4.600   4.352  1.3292  1.8052  1.2843
15696TIP3    H268580   3.144   4.501   4.463  0.8498  1.2697  0.6951
15697TIP3   OH268581   6.262   5.374  13.094 -0.0067 -0.0405  0.3941
15697TIP3    H168582   6.245   5.314  13.167  0.9277  0.0613  0.7122
15697TIP3    H268583   6.175   5.394  13.059 -0.3774 -1.0843  0.6731
15698TIP3   OH268584   2.386   6.433   1.401  0.6589  0.2097 -0.6160
15698TIP3    H168585   2.480   6.442   1.386  0.6820 -0.1053 -0.6686
15698TIP3    H268586   2.346   6.500   1.345  0.8842  0.8247 -0.0581
15699TIP3   OH268587   1.309   6.425   5.087 -0.7579 -0.0503 -0.3086
15699TIP3    H168588   1.395   6.469   5.089 -0.3706 -0.6043 -2.6817
15699TIP3    H268589   1.319   6.351   5.147 -0.0137  0.6178  0.4200
15700TIP3   OH268590   4.622   6.490   4.353  0.5529 -0.3101 -0.6800
15700TIP3    H168591   4.662   6.410   4.386 -1.9292 -1.0241  0.9620
15700TIP3    H268592   4.597   6.470   4.263  0.3353 -1.2621 -0.4156
15701TIP3   OH268593   4.390   4.074   6.376 -0.4168  0.0901 -0.1170
15701TIP3    H168594   4.445   4.010   6.421  0.7496  0.6265 -0.7217
15701TIP3    H268595   4.396   4.153   6.430  1.7323  1.0275 -1.5789
15702TIP3   OH268596   6.551   2.630   2.632 -0.1083 -0.2151  0.1350
15702TIP3    H168597   6.534   2.661   2.543  0.4144 -1.1136 -0.2928
15702TIP3    H268598   6.630   2.577   2.625 -0.8991 -1.5585  0.8377
15703TIP3   OH268599   5.663   2.566   3.586 -0.0137  0.2445  0.1581
15703TIP3    H168600   5.713   2.634   3.632  0.2264  0.6976 -0.7347
15703TIP3    H268601   5.730   2.510   3.547 -0.2143 -0.4370  0.7858
15704TIP3   OH268602   1.351   3.227  13.431  0.1243 -0.1920  0.1188
15704TIP3    H168603   1.403   3.188  13.501  0.1369  1.3958  1.0432
15704TIP3    H268604   1.411   3.234  13.357  0.1090 -1.8971 -0.0909
15705TIP3   OH268605   4.081   0.994  13.844  0.1707 -0.4401  0.1714
15705TIP3    H168606   4.120   0.980  13.758 -1.2868 -0.9190 -0.4403
15705TIP3    H268607   4.096   0.912  13.891  0.6282 -0.3183  0.2430
15706TIP3   OH268608   3.798   3.084  10.514 -0.3813 -0.0042 -0.0485
15706TIP3    H168609   3.720   3.057  10.464 -0.1326  0.4309 -0.6947
15706TIP3    H268610   3.773   3.072  10.606 -0.7957 -0.9699 -0.2806
15707TIP3   OH268611   3.980   0.993  11.474 -0.1374 -0.1017  0.2799
15707TIP3    H168612   4.044   1.049  11.518 -0.2773  1.2302 -1.1003
15707TIP3    H268613   3.906   1.051  11.457 -0.3293 -0.7205 -1.1104
15708TIP3   OH268614   2.576   1.843   0.060  0.3379  0.8110 -0.4652
15708TIP3    H168615   2.562   1.938   0.055 -0.0804  0.7786  0.0012
15708TIP3    H268616   2.661   1.829   0.018  0.4260  1.3990 -0.4936
15709TIP3   OH268617   6.420   0.292  12.845  0.1067  0.5443 -0.3385
15709TIP3    H168618   6.382   0.250  12.923  4.2479  0.6084  2.0049
15709TIP3    H268619   6.371   0.373  12.835 -0.8758  0.3163  1.9590
15710TIP3   OH268620   1.314   4.747   2.993 -0.4214 -0.1775 -0.0612
15710TIP3    H168621   1.407   4.729   2.976 -1.0430 -1.3848 -2.6215
15710TIP3    H268622   1.286   4.677   3.052  0.1080 -0.2414  0.1185
15711TIP3   OH268623   6.222   6.204  15.777 -0.4137  0.4905  0.0637
15711TIP3    H168624   6.188   6.125  15.819 -0.4560  0.6806  0.3942
15711TIP3    H268625   6.148   6.239  15.727 -0.2648  0.0753 -0.4497
15712TIP3   OH268626   2.516   3.426   3.548 -0.0937  0.1549 -0.3164
15712TIP3    H168627   2.498   3.341   3.507 -0.2273  0.0731 -0.0869
15712TIP3    H268628   2.441   3.480   3.525 -0.9259 -0.3530  1.1093
15713TIP3   OH268629   1.742   1.034  10.360 -0.2534  0.2904  0.5767
15713TIP3    H168630   1.758   1.120  10.321 -1.5851 -1.0573 -3.4992
15713TIP3    H268631   1.650   1.036  10.385 -0.1735  0.1862  0.8766
15714TIP3   OH268632   1.119   0.342   4.842  0.0038  0.2369 -0.1988
15714TIP3    H168633   1.073   0.426   4.836 -0.4783 -0.0979 -2.0940
15714TIP3    H268634   1.049   0.278   4.856  0.0943 -0.0539 -0.9838
15715TIP3   OH268635   2.719   1.716  13.459 -0.2491  0.2856 -0.1543
15715TIP3    H168636   2.629   1.687  13.444 -0.5087  1.8424 -1.9949
15715TIP3    H268637   2.735   1.699  13.552 -2.6556  0.5455  0.3600
15716TIP3   OH268638   3.064   3.961  11.589  1.0587  0.2868  0.3514
15716TIP3    H168639   3.010   3.926  11.518  0.9940 -3.3487  1.9846
15716TIP3    H268640   3.015   4.037  11.621 -1.7349 -1.2058 -0.0387
15717TIP3   OH268641   5.672   0.052  12.210 -1.0724  0.8477 -0.1596
15717TIP3    H168642   5.748   0.099  12.241 -1.2349  1.6787 -0.9726
15717TIP3    H268643   5.622   0.117  12.160 -0.0890 -0.6935 -3.3968
15718TIP3   OH268644   6.123   0.567  12.024  0.0573 -0.2956 -0.2475
15718TIP3    H168645   6.092   0.607  12.104 -0.4918  0.0735 -0.6413
15718TIP3    H268646   6.103   0.631  11.955 -0.3682 -1.0126 -0.8102
15719TIP3   OH268647   5.072   5.061   5.630  0.3790  0.3145 -0.1009
15719TIP3    H168648   5.014   5.005   5.579  1.4249  0.8536 -1.9802
15719TIP3    H268649   5.068   5.026   5.719  0.5886 -2.4308 -1.0885
15720TIP3   OH268650   2.201   6.097   2.047 -0.0501  0.1712 -0.4075
15720TIP3    H168651   2.234   6.133   2.130  1.1261  0.7612 -1.1069
15720TIP3    H268652   2.121   6.051   2.072  0.6754 -0.3197  1.1859
15721TIP3   OH268653   0.129   6.809  15.134  0.1521 -0.0210 -0.4415
15721TIP3    H168654   0.189   6.811  15.209  1.4831  0.2766 -1.4649
15721TIP3    H268655   0.042   6.813  15.173  0.6763 -2.4782  1.2176
15722TIP3   OH268656   0.125   5.612  11.836  0.0390  0.1269  0.0361
15722TIP3    H168657   0.181   5.535  11.851  0.9028  0.8527  0.6634
15722TIP3    H268658   0.150   5.673  11.905 -1.1350  0.7056 -0.0357
15723TIP3   OH268659   3.560   6.145   5.200  0.4993 -0.1971  0.1738
15723TIP3    H168660   3.508   6.196   5.138  0.9525 -0.7052 -0.6484
15723TIP3    H268661   3.648   6.183   5.194  1.0101 -1.4654 -0.9581
15724TIP3   OH268662   1.203   5.535   3.622 -0.0233 -0.0019  0.4199
15724TIP3    H168663   1.295   5.556   3.640  0.0972  0.5544 -0.7734
15724TIP3    H268664   1.174   5.602   3.560 -0.9081 -0.8270 -0.0956
15725TIP3   OH268665   2.095   2.505   2.943  0.6105  0.1248 -0.3044
15725TIP3    H168666   2.093   2.410   2.956  1.9523 -0.1197 -1.5985
15725TIP3    H268667   2.106   2.541   3.031  3.4751 -1.1154 -0.0253
15726TIP3   OH268668   2.689   4.563   1.610 -0.4903 -0.1542  0.3135
15726TIP3    H168669   2.641   4.618   1.671 -0.2165 -0.3854  0.7468
15726TIP3    H268670   2.637   4.564   1.530 -0.1871  1.2245  0.1069
15727TIP3   OH268671   1.454   2.476  14.902  0.1243 -0.3551  0.6333
15727TIP3    H168672   1.487   2.458  14.990  0.0014  0.4185  0.8494
15727TIP3    H268673   1.533   2.495  14.850  0.3901 -2.7552  0.0584
15728TIP3   OH268674   6.644   2.841  17.288  0.5943  0.1225  0.6285
15728TIP3    H168675   6.588   2.786  17.233 -0.1585  0.4506  1.0446
15728TIP3    H268676   6.673   2.783  17.358  0.6974 -0.0267  0.4638
15729TIP3   OH268677   2.903   6.561  13.779 -0.3881  0.0371 -0.6403
15729TIP3    H168678   2.856   6.563  13.695 -1.6373  0.8696  0.0508
15729TIP3    H268679   2.850   6.504  13.834  0.8972 -1.2058 -0.6613
15730TIP3   OH268680   3.882   1.844   3.055 -0.3534  0.3537 -0.7813
15730TIP3    H168681   3.965   1.888   3.043 -0.0528 -0.4350 -1.7794
15730TIP3    H268682   3.896   1.785   3.129 -1.0973  2.6427  1.3097
15731TIP3   OH268683   0.539   3.565  11.455  0.2443  0.4621  0.0812
15731TIP3    H168684   0.580   3.520  11.381 -0.2384  1.0336 -0.5485
15731TIP3    H268685   0.587   3.647  11.464  1.9624 -0.6757  2.0488
15732TIP3   OH268686   4.390   2.478   5.726 -0.0020 -0.2692 -0.3525
15732TIP3    H168687   4.390   2.512   5.815  4.5255 -2.3053  0.6897
15732TIP3    H268688   4.332   2.401   5.730  0.4005 -0.5194  0.9289
15733TIP3   OH268689   5.275   3.590  16.839  0.2758  0.0542  0.0806
15733TIP3    H168690   5.335   3.656  16.874  0.0439  0.4344 -0.2330
15733TIP3    H268691   5.326   3.544  16.773  0.3061  0.1991  0.0028
15734TIP3   OH268692   4.309   0.466   0.376  0.3907 -0.1649 -0.1478
15734TIP3    H168693   4.266   0.404   0.435  1.2743 -1.6919 -1.0446
15734TIP3    H268694   4.247   0.539   0.369  0.3708  0.2033  2.8187
15735TIP3   OH268695   1.152   4.022  13.340 -0.2788  0.2392  0.3175
15735TIP3    H168696   1.087   3.954  13.357  0.2603 -0.6244 -0.9527
15735TIP3    H268697   1.104   4.089  13.291 -0.6211  0.4296  0.8986
15736TIP3   OH268698   4.933   1.314   2.272 -0.0385 -0.2184  0.0846
15736TIP3    H168699   5.020   1.353   2.262 -0.1467  0.4854  1.5930
15736TIP3    H268700   4.950   1.220   2.282  0.4924 -0.1601 -0.2197
15737TIP3   OH268701   6.021   2.292   0.723  0.0665 -0.3302  0.0448
15737TIP3    H168702   6.022   2.360   0.791  0.2855 -0.4535  0.1642
15737TIP3    H268703   6.073   2.221   0.760 -0.7961 -0.8800  0.2478
15738TIP3   OH268704   2.440   0.463  16.262 -0.0510  0.0873 -0.6462
15738TIP3    H168705   2.388   0.452  16.341  0.1749  0.8671 -0.3857
15738TIP3    H268706   2.411   0.546  16.225 -0.1627 -0.2759 -1.3894
15739TIP3   OH268707   0.245   1.560  16.214  0.3986 -0.2952 -0.5995
15739TIP3    H168708   0.263   1.585  16.124  2.1534 -1.4023 -0.6187
15739TIP3    H268709   0.239   1.643  16.262  0.0389  0.2815 -1.6292
15740TIP3   OH268710   5.309   1.876  14.841  0.4226 -0.3460 -0.3209
15740TIP3    H168711   5.250   1.803  14.852 -0.1273 -0.0250 -1.0663
15740TIP3    H268712   5.278   1.942  14.903 -0.1185 -0.1052 -0.8477
15741TIP3   OH268713   0.274   6.359  16.050  0.0477 -0.0723  0.1507
15741TIP3    H168714   0.283   6.339  15.957  1.2385  0.6812  0.0806
15741TIP3    H268715   0.274   6.454  16.055  1.1285 -0.0900  0.9992
15742TIP3   OH268716   4.671   1.474  10.978  0.5227 -0.2969 -0.4866
15742TIP3    H168717   4.626   1.499  10.897 -1.8193  0.0713  0.8242
15742TIP3    H268718   4.731   1.547  10.996  1.7958 -0.8282 -2.3245
15743TIP3   OH268719   3.100   0.807  10.801  0.1879 -0.4744  0.4256
15743TIP3    H168720   3.127   0.829  10.712 -1.4099  0.2306  0.0748
15743TIP3    H268721   3.031   0.871  10.821 -0.0861 -1.1825  1.8394
15744TIP3   OH268722   2.929   6.197   4.282 -0.0591  0.5960  0.1835
15744TIP3    H168723   3.018   6.187   4.249 -0.1194  0.0104  0.1855
15744TIP3    H268724   2.877   6.222   4.205  0.1697  1.3315  0.2589
15745TIP3   OH268725   5.750   6.177   1.625 -0.1020  0.0979 -0.0501
15745TIP3    H168726   5.670   6.210   1.668 -0.9780 -0.2225 -1.3747
15745TIP3    H268727   5.795   6.127   1.693 -0.9201  0.4713  0.7857
15746TIP3   OH268728   0.804   4.355  14.102  0.0716 -0.4644  0.2977
15746TIP3    H168729   0.830   4.378  14.191 -0.5120 -1.3053  0.7026
15746TIP3    H268730   0.731   4.294  14.114  0.5763 -1.2999 -0.7390
15747TIP3   OH268731   6.197   5.308   2.918  0.1734  0.2200  0.1781
15747TIP3    H168732   6.278   5.330   2.963  0.5360 -0.3749 -0.1670
15747TIP3    H268733   6.199   5.358   2.837 -0.0092  0.5324  0.3657
15748TIP3   OH268734   4.575   5.967   0.748 -0.3627  0.4838 -0.0734
15748TIP3    H168735   4.565   5.895   0.810  1.4770  0.8978  0.7888
15748TIP3    H268736   4.506   5.954   0.684 -0.1035 -2.0217  0.0670
15749TIP3   OH268737   3.800   3.001  13.644 -0.1147 -0.2708  0.1404
15749TIP3    H168738   3.811   3.004  13.739  0.4822  1.9067  0.0574
15749TIP3    H268739   3.715   2.959  13.631 -0.9051  0.7311  1.7224
15750TIP3   OH268740   2.497   0.363   5.048 -0.3545  0.6531 -0.3351
15750TIP3    H168741   2.402   0.353   5.033 -0.8285  3.5405  0.1753
15750TIP3    H268742   2.510   0.335   5.138 -0.7251  0.3245 -0.3784
15751TIP3   OH268743   3.333   3.548  11.125  0.1089  0.2361  0.0850
15751TIP3    H168744   3.349   3.623  11.182  1.3078  0.1084 -0.0685
15751TIP3    H268745   3.417   3.502  11.122  0.0938  0.2839 -1.8592
15752TIP3   OH268746   2.378   4.362  11.645 -0.3966 -0.4860 -0.5830
15752TIP3    H168747   2.464   4.375  11.684  0.7143 -0.4469 -2.8735
15752TIP3    H268748   2.317   4.408  11.703  1.0462 -0.8649  1.2984
15753TIP3   OH268749   4.673   0.300  12.886  0.6473  0.6295 -0.4609
15753TIP3    H168750   4.621   0.361  12.835  2.8698  3.7124  0.6388
15753TIP3    H268751   4.758   0.298  12.842  1.1483 -0.3999  0.4911
15754TIP3   OH268752   1.956   4.614  12.720  0.3654 -0.7094 -0.1515
15754TIP3    H168753   2.013   4.537  12.716  3.1382  1.1614  0.4313
15754TIP3    H268754   1.926   4.626  12.629 -1.0548 -3.0121 -0.0746
15755TIP3   OH268755   5.567   3.079  13.901  0.0718  0.0921  0.7753
15755TIP3    H168756   5.551   3.143  13.970 -0.1701 -1.8317  2.6302
15755TIP3    H268757   5.594   3.131  13.825  0.6704  2.2995  2.3970
15756TIP3   OH268758   4.775   2.287  17.280  0.0558  0.1072  0.1561
15756TIP3    H168759   4.847   2.332  17.235  0.6071 -1.2353 -0.3608
15756TIP3    H268760   4.701   2.297  17.221  0.2540  0.0826 -0.0999
15757TIP3   OH268761   0.416   5.348  13.066  0.4073  0.3025 -0.2361
15757TIP3    H168762   0.324   5.373  13.055  0.6972  2.0645  0.8898
15757TIP3    H268763   0.413   5.262  13.108 -0.7759  1.1345  1.4847
15758TIP3   OH268764   4.939   1.327   1.302  0.5109  0.4063 -0.0768
15758TIP3    H168765   4.936   1.311   1.396 -0.5615 -1.4367 -0.3704
15758TIP3    H268766   4.894   1.411   1.291 -2.5067 -0.9543  0.8199
15759TIP3   OH268767   6.540   6.265  11.865 -0.3510  0.3860  0.3792
15759TIP3    H168768   6.611   6.241  11.925  1.1895 -0.0262 -1.5239
15759TIP3    H268769   6.474   6.196  11.877  0.6991 -0.6370  0.3760
15760TIP3   OH268770   1.209   6.817  13.628 -0.1243 -0.1914 -0.1832
15760TIP3    H168771   1.206   6.725  13.653 -0.3529 -0.1218  0.0513
15760TIP3    H268772   1.277   6.855  13.683  2.1571 -0.8360 -2.3750
15761TIP3   OH268773   3.705   1.281  13.642  1.0308 -0.2480 -0.0753
15761TIP3    H168774   3.779   1.327  13.680  0.0700  0.6077  0.8418
15761TIP3    H268775   3.737   1.192  13.626  2.4847  0.3276 -0.5127
15762TIP3   OH268776   2.151   2.296   4.003  0.1283 -1.0319 -0.0646
15762TIP3    H168777   2.242   2.291   3.973  0.5162 -1.7196  1.1470
15762TIP3    H268778   2.147   2.237   4.078 -0.5364  1.2338  1.8193
15763TIP3   OH268779   1.228   5.446   4.574  0.3817  0.0677 -0.3540
15763TIP3    H168780   1.153   5.504   4.566  0.6717  0.2961 -1.7199
15763TIP3    H268781   1.303   5.498   4.545  0.8652 -0.5591 -0.2816
15764TIP3   OH268782   1.483   5.859   1.166  0.1147  0.2117 -0.4275
15764TIP3    H168783   1.464   5.781   1.219  1.1437 -0.0710 -0.4416
15764TIP3    H268784   1.561   5.897   1.207 -0.5667  1.4471 -0.2167
15765TIP3   OH268785   4.470   6.799  12.409 -0.4517 -0.6682 -0.1279
15765TIP3    H168786   4.375   6.805  12.420 -0.4367 -1.0849  0.2602
15765TIP3    H268787   4.482   6.790  12.314 -0.8468 -1.3774 -0.1217
15766TIP3   OH268788   3.693   3.386  16.088 -0.1770 -0.2918  0.2219
15766TIP3    H168789   3.784   3.364  16.068  0.4061  2.0000  0.0847
15766TIP3    H268790   3.688   3.383  16.183  0.8263  2.0874  0.4234
15767TIP3   OH268791   1.546   3.286  14.048  0.2731 -0.3263 -0.5284
15767TIP3    H168792   1.543   3.276  14.143 -1.2412  2.5916 -0.1447
15767TIP3    H268793   1.459   3.320  14.025  1.0292  0.2620 -2.7714
15768TIP3   OH268794   1.334   6.223  12.556  0.1942  0.1593 -0.5000
15768TIP3    H168795   1.312   6.145  12.505 -1.5822 -0.6228  1.3087
15768TIP3    H268796   1.397   6.191  12.621 -2.0012 -0.3605  1.5116
15769TIP3   OH268797   4.231   4.771  10.308  0.0198  0.3006  0.0212
15769TIP3    H168798   4.326   4.776  10.308  0.0116  2.6053  2.2661
15769TIP3    H268799   4.212   4.677  10.297  2.5417 -0.3507  0.5128
15770TIP3   OH268800   0.906   3.296  14.482  0.2439 -0.3466 -0.2399
15770TIP3    H168801   0.868   3.313  14.396  0.4124 -0.7697 -0.4025
15770TIP3    H268802   0.892   3.202  14.496 -2.7378  0.2540  1.6271
15771TIP3   OH268803   4.156   5.155   3.423  0.2481  0.1594 -0.3246
15771TIP3    H168804   4.069   5.126   3.451 -0.2637  0.6946 -1.3017
15771TIP3    H268805   4.140   5.238   3.377  1.2247  0.0591 -0.8700
15772TIP3   OH268806   1.082   3.836  11.498 -0.4213  0.1660  0.3179
15772TIP3    H168807   1.066   3.810  11.589  0.9994  1.6267  1.0466
15772TIP3    H268808   1.090   3.932  11.502  0.5416  0.1835 -1.1960
15773TIP3   OH268809   4.377   2.486   4.987 -0.2977 -0.3661 -0.2594
15773TIP3    H168810   4.439   2.531   5.043  0.0046  0.2597 -1.0742
15773TIP3    H268811   4.427   2.414   4.948 -0.5933 -1.0038  0.4955
15774TIP3   OH268812   4.027   2.153   0.609  0.7591 -0.6120  0.0098
15774TIP3    H168813   4.096   2.219   0.603  0.1689 -0.0850 -1.4837
15774TIP3    H268814   4.063   2.085   0.666  2.3446 -0.1634 -0.4275
15775TIP3   OH268815   2.714   6.122  12.765  0.1140  0.3963 -0.4714
15775TIP3    H168816   2.769   6.154  12.694  1.7304  1.4004  1.1384
15775TIP3    H268817   2.734   6.029  12.770  0.9518  0.5631 -0.5431
15776TIP3   OH268818   2.463   0.848  12.178 -0.0537 -0.8420  0.3595
15776TIP3    H168819   2.374   0.873  12.204 -0.2746 -1.6469  0.3909
15776TIP3    H268820   2.468   0.871  12.085  0.0346  0.0863  0.5803
15777TIP3   OH268821   1.669   1.267  10.946  0.4892 -0.1851 -0.8386
15777TIP3    H168822   1.617   1.222  10.879  0.9430 -4.0645  1.1100
15777TIP3    H268823   1.759   1.238  10.930  0.9953  0.9247 -0.0981
15778TIP3   OH268824   3.728   3.138  13.202  0.2337  0.0227 -0.5343
15778TIP3    H168825   3.755   3.216  13.155  2.0398 -0.0808  0.2623
15778TIP3    H268826   3.768   3.146  13.289 -0.3077 -1.3502 -0.1186
15779TIP3   OH268827   3.537   1.997   5.209 -0.2291 -0.2066 -0.2949
15779TIP3    H168828   3.498   2.082   5.190  0.1968  0.4093  1.3722
15779TIP3    H268829   3.469   1.949   5.258 -0.5325 -0.9131 -1.3768
15780TIP3   OH268830   6.356   0.628  15.350  0.3929 -0.1777  0.4100
15780TIP3    H168831   6.405   0.617  15.432 -0.1614  2.4648  1.1874
15780TIP3    H268832   6.386   0.556  15.294  4.7977  0.8978  1.0231
15781TIP3   OH268833   6.049   0.447  15.201  0.0301  0.4433  0.4131
15781TIP3    H168834   6.049   0.475  15.110 -1.6967 -2.4595 -0.6056
15781TIP3    H268835   6.016   0.523  15.250 -1.3736  1.2730 -1.6969
15782TIP3   OH268836   4.312   6.800   3.982 -0.0568 -0.0015 -0.2729
15782TIP3    H168837   4.225   6.836   3.963 -0.7570 -2.1237 -1.3971
15782TIP3    H268838   4.310   6.785   4.077 -0.4775  0.9762 -0.1049
15783TIP3   OH268839   2.765   3.411   1.620 -0.3812 -0.2725  0.2150
15783TIP3    H168840   2.697   3.459   1.572 -0.5649 -0.9843 -0.2460
15783TIP3    H268841   2.847   3.451   1.591 -0.6209  1.3034  1.5566
15784TIP3   OH268842   0.715   1.822   6.019 -1.0760 -0.6849  0.9321
15784TIP3    H168843   0.737   1.754   5.954 -0.8936 -1.3523  1.6729
15784TIP3    H268844   0.768   1.800   6.095  3.0620  3.2148 -0.3861
15785TIP3   OH268845   5.808   2.842  11.449 -0.0070  0.3852 -0.1800
15785TIP3    H168846   5.802   2.751  11.478  2.0881  0.6593  1.3956
15785TIP3    H268847   5.735   2.853  11.387 -2.2041 -1.4670  1.8835
15786TIP3   OH268848   0.431   3.587   1.137 -0.4210 -0.0247 -0.7936
15786TIP3    H168849   0.348   3.617   1.175 -0.2532  1.3121 -1.4207
15786TIP3    H268850   0.452   3.653   1.070  0.4122 -1.1349 -1.6565
15787TIP3   OH268851   1.208   0.061  14.635 -0.3092 -0.0560 -0.1653
15787TIP3    H168852   1.136  -0.003  14.643  0.6952 -1.3895 -1.2396
15787TIP3    H268853   1.281   0.010  14.601  1.6498  0.9357  2.2586
15788TIP3   OH268854   4.874   6.386  17.251  0.1254  0.7454  0.3279
15788TIP3    H168855   4.806   6.331  17.290  1.2109  0.2227  1.5816
15788TIP3    H268856   4.901   6.339  17.173 -0.9034  0.9418 -0.1693
15789TIP3   OH268857   5.285   1.586   4.466  0.0410 -0.4081  0.1258
15789TIP3    H168858   5.217   1.555   4.406  0.3538  0.5529 -0.7726
15789TIP3    H268859   5.244   1.658   4.514  0.8859  1.4725 -1.7618
15790TIP3   OH268860   1.314   5.787  16.912  1.2095 -0.2206  0.1110
15790TIP3    H168861   1.304   5.706  16.860  0.7416  0.0483 -0.2320
15790TIP3    H268862   1.405   5.787  16.938  1.0331 -1.2828  0.8069
15791TIP3   OH268863   0.504   0.621   4.924  0.0327  0.8108  0.7009
15791TIP3    H168864   0.432   0.559   4.933  0.4532  0.3288  0.7787
15791TIP3    H268865   0.532   0.638   5.014 -0.1512  1.1944  0.6853
15792TIP3   OH268866   6.070   1.360  15.842 -0.6067  0.4051  0.0622
15792TIP3    H168867   6.090   1.324  15.755  0.0315 -1.0907  0.8001
15792TIP3    H268868   5.977   1.383  15.838 -0.4414  0.9340 -1.1988
15793TIP3   OH268869   5.749   0.177  14.780 -0.0346 -0.2456 -0.1606
15793TIP3    H168870   5.717   0.259  14.743  0.1154  0.7738  1.8019
15793TIP3    H268871   5.815   0.204  14.844 -0.1649 -1.8769  0.7322
15794TIP3   OH268872   0.149   3.929  15.564  0.0382 -0.2012  0.1772
15794TIP3    H168873   0.204   3.965  15.634 -0.0160 -2.2062  1.3094
15794TIP3    H268874   0.206   3.930  15.487 -0.4677  3.7895 -0.3837
15795TIP3   OH268875   6.389   0.480   2.573 -0.1582 -0.1554 -0.1839
15795TIP3    H168876   6.313   0.510   2.622 -0.2374 -1.0828  0.2972
15795TIP3    H268877   6.447   0.441   2.639  1.5933  2.1290 -0.2616
15796TIP3   OH268878   6.624   6.289   3.152 -0.1205 -0.0063  0.2182
15796TIP3    H168879   6.703   6.293   3.206  1.5683 -2.0997 -1.8686
15796TIP3    H268880   6.589   6.202   3.167 -1.5241  0.5610  0.3715
15797TIP3   OH268881   0.639   1.471  13.115  0.7898 -0.2567  0.1518
15797TIP3    H168882   0.645   1.522  13.035 -2.2473  2.3666  1.3794
15797TIP3    H268883   0.715   1.499  13.166  0.1995  1.7927  0.0224
15798TIP3   OH268884   1.003   6.761   0.646  0.6185  0.1115 -0.2142
15798TIP3    H168885   1.046   6.802   0.570 -0.7492 -2.4367 -2.5664
15798TIP3    H268886   1.028   6.669   0.640  1.2557 -0.0381  3.1300
15799TIP3   OH268887   3.011   4.735  15.827 -0.0833  0.1198 -0.4846
15799TIP3    H168888   2.931   4.695  15.863  0.8401 -0.5055  0.9902
15799TIP3    H268889   3.057   4.769  15.903  1.7741 -0.8737 -1.0898
15800TIP3   OH268890   5.555   2.571  13.865 -0.2004  0.1667 -0.1293
15800TIP3    H168891   5.647   2.580  13.840  0.2897  0.7390  1.7086
15800TIP3    H268892   5.528   2.658  13.892 -1.3965  0.0670 -0.8780
15801TIP3   OH268893   3.416   2.006   6.476  0.4533  0.5769  0.0808
15801TIP3    H168894   3.506   1.990   6.447  0.3928 -0.3979  0.3788
15801TIP3    H268895   3.370   1.924   6.458 -0.5628  1.3008 -0.7363
15802TIP3   OH268896   0.354   4.906   0.942  0.1596 -0.3718 -0.4884
15802TIP3    H168897   0.422   4.964   0.906 -0.3739  1.4067  1.1700
15802TIP3    H268898   0.302   4.880   0.867  1.2967  0.1194 -1.4791
15803TIP3   OH268899   6.108   4.111  15.152 -0.2602  0.2649 -0.5755
15803TIP3    H168900   6.147   4.136  15.236  1.3743 -1.2411 -0.8162
15803TIP3    H268901   6.063   4.189  15.122  1.8792  1.8740  0.1662
15804TIP3   OH268902   4.289   2.122  14.832 -0.4408 -0.5623 -1.0340
15804TIP3    H168903   4.355   2.055  14.851  1.1441  1.3842  0.9357
15804TIP3    H268904   4.277   2.167  14.916 -1.1073  1.8808 -2.3615
15805TIP3   OH268905   5.655   2.736   0.570  0.2017  0.4649 -0.5594
15805TIP3    H168906   5.705   2.746   0.651 -1.7904 -0.4418  0.8620
15805TIP3    H268907   5.653   2.641   0.554 -0.0059  0.5849 -1.2920
15806TIP3   OH268908   5.689   3.947  15.951  0.1313  0.2618 -0.0300
15806TIP3    H168909   5.599   3.963  15.923  0.4395  1.0084 -0.6227
15806TIP3    H268910   5.684   3.867  16.004 -1.3847  1.9829  2.5917
15807TIP3   OH268911   1.455   6.379   5.710  0.2776  0.1990 -0.8405
15807TIP3    H168912   1.487   6.454   5.760  0.3597  0.9671 -2.0110
15807TIP3    H268913   1.360   6.386   5.715  0.2778  0.7975 -1.5284
15808TIP3   OH268914   0.766   4.377  12.043 -0.1537 -0.2821 -0.2662
15808TIP3    H168915   0.687   4.328  12.019  0.5178 -0.2092 -2.9005
15808TIP3    H268916   0.732   4.454  12.089 -1.4305 -1.3642  0.7086
15809TIP3   OH268917   3.323   6.477   1.292 -0.3773  0.3483 -0.4528
15809TIP3    H168918   3.228   6.487   1.281 -0.3372  0.5579 -0.6224
15809TIP3    H268919   3.335   6.462   1.386 -0.4581  1.7990 -0.1858
15810TIP3   OH268920   4.460   5.470  15.307 -0.1213 -0.6379 -0.2282
15810TIP3    H168921   4.527   5.469  15.375  0.9249 -0.4472 -1.2275
15810TIP3    H268922   4.381   5.502  15.352  0.3028 -1.3347  1.0771
15811TIP3   OH268923   4.081   5.905  13.472  0.1644 -0.1263 -0.2190
15811TIP3    H168924   4.145   5.854  13.522  1.1311  1.3636  0.1553
15811TIP3    H268925   4.007   5.916  13.532  0.5883  0.1726  0.2616
15812TIP3   OH268926   2.516   1.567  11.424  0.2174 -0.1016  0.1952
15812TIP3    H168927   2.533   1.658  11.448  0.9112 -0.2113  0.1490
15812TIP3    H268928   2.489   1.570  11.333  0.1431  0.0718  0.2246
15813TIP3   OH268929   5.891   5.765  13.522 -0.2842 -0.1177  0.1978
15813TIP3    H168930   5.943   5.733  13.448 -0.9060 -2.1255  0.5512
15813TIP3    H268931   5.808   5.792  13.483 -0.0130  0.3918 -0.0300
15814TIP3   OH268932   2.315   3.212  12.891 -0.2279  0.1485 -0.6282
15814TIP3    H168933   2.265   3.163  12.826 -1.4848  1.1427 -0.4589
15814TIP3    H268934   2.402   3.172  12.890 -0.6084 -0.7121 -1.9596
15815TIP3   OH268935   4.114   2.096   3.098  0.1359  0.8884 -0.7414
15815TIP3    H168936   4.111   2.029   3.166 -1.3471  0.4414 -1.2130
15815TIP3    H268937   4.167   2.166   3.135  0.6896 -0.0274  0.2361
15816TIP3   OH268938   2.399   6.280   6.140 -0.3228 -0.0332 -0.0638
15816TIP3    H168939   2.382   6.258   6.049  0.5688  2.9218 -1.0508
15816TIP3    H268940   2.479   6.231   6.162  0.6527  0.8173 -1.5864
15817TIP3   OH268941   6.341   1.137  15.448 -0.0687  0.1023  0.6109
15817TIP3    H168942   6.395   1.081  15.392 -0.0694  0.8868 -0.2039
15817TIP3    H268943   6.340   1.093  15.533  0.7795 -0.5949  0.2724
15818TIP3   OH268944   5.726   3.995   1.701  0.0170  0.5253 -0.2357
15818TIP3    H168945   5.734   4.023   1.610  2.9802 -1.2650 -0.6895
15818TIP3    H268946   5.655   3.931   1.701 -1.1162  1.7585 -0.9029
15819TIP3   OH268947   2.283   4.447  14.228 -0.5508  0.2543 -0.1756
15819TIP3    H168948   2.378   4.457  14.237 -0.4700 -0.9893  0.5702
15819TIP3    H268949   2.251   4.442  14.318 -1.2871  0.3139 -0.4260
15820TIP3   OH268950   4.768   5.226  16.914 -0.1580  0.6204 -0.7479
15820TIP3    H168951   4.777   5.296  16.849 -0.0625 -0.6298 -2.1423
15820TIP3    H268952   4.852   5.226  16.960 -0.3752  1.7958 -0.3246
15821TIP3   OH268953   0.404   5.447   4.666  0.3435  0.2718  0.0314
15821TIP3    H168954   0.432   5.357   4.650  2.0104  0.8426 -0.5105
15821TIP3    H268955   0.461   5.500   4.610  1.0631  1.8107  2.0677
15822TIP3   OH268956   0.301   0.447  16.805  0.6025 -1.0629 -0.0402
15822TIP3    H168957   0.370   0.508  16.830 -0.0071  0.0251 -0.9072
15822TIP3    H268958   0.342   0.360  16.810  2.3683 -0.3848 -1.5530
15823TIP3   OH268959   2.791   5.975   2.017 -0.2804  0.2700  0.6436
15823TIP3    H168960   2.702   6.001   2.039  0.2138  2.8058 -0.0347
15823TIP3    H268961   2.831   5.952   2.101 -0.6676  2.2493  1.4252
15824TIP3   OH268962   0.582   2.770  11.598 -0.8994  0.1529  0.2438
15824TIP3    H168963   0.597   2.864  11.593  0.1456 -0.0448 -0.6299
15824TIP3    H268964   0.522   2.751  11.526 -1.6522  0.2400  0.8375
15825TIP3   OH268965   0.441   4.394   0.331 -0.3666  0.6026  0.5257
15825TIP3    H168966   0.537   4.390   0.333 -0.3927 -1.0411 -0.1218
15825TIP3    H268967   0.421   4.484   0.304  0.9825  0.9911  0.7560
15826TIP3   OH268968   6.038   4.335  12.583  0.3465 -0.0413  0.0728
15826TIP3    H168969   5.978   4.400  12.548 -1.0694 -1.2934  0.0309
15826TIP3    H268970   6.021   4.256  12.531  0.5987 -0.9927  1.3665
15827TIP3   OH268971   1.830   3.065   2.063  0.2229  0.4703 -0.2438
15827TIP3    H168972   1.854   3.089   1.973 -1.0823  0.1813 -0.6924
15827TIP3    H268973   1.913   3.045   2.105  0.9663  1.6138 -1.0778
15828TIP3   OH268974   4.132   4.211   3.285  0.6715  0.5032  0.2529
15828TIP3    H168975   4.042   4.209   3.252  0.2909 -1.1839  1.3053
15828TIP3    H268976   4.165   4.123   3.269  1.0059  0.0907  2.8217
15829TIP3   OH268977   3.551   4.517  11.448  0.2292  0.5668  0.0392
15829TIP3    H168978   3.582   4.477  11.529 -1.3345 -2.6357 -0.7872
15829TIP3    H268979   3.556   4.611  11.465  1.5584  0.0760  3.1885
15830TIP3   OH268980   2.340   2.854  10.908 -0.3301  0.3267 -0.0422
15830TIP3    H168981   2.295   2.878  10.827 -0.9368  3.9806  1.1633
15830TIP3    H268982   2.277   2.875  10.978  0.5476 -1.7182  1.4874
15831TIP3   OH268983   5.071   1.532   1.463  0.4718  0.0618 -0.4108
15831TIP3    H168984   5.155   1.493   1.439 -1.0190 -0.9941 -5.1167
15831TIP3    H268985   5.079   1.624   1.436  0.2668  0.0509 -0.5167
15832TIP3   OH268986   6.629   3.204   5.057  0.3907 -0.2696 -0.4215
15832TIP3    H168987   6.550   3.165   5.095 -1.3821 -0.0907 -3.5562
15832TIP3    H268988   6.672   3.248   5.130 -2.9104  0.3727  1.3219
15833TIP3   OH268989   0.272   5.501  13.670 -0.7466  0.2794  0.1599
15833TIP3    H168990   0.355   5.524  13.712 -0.6403  0.0646  0.0685
15833TIP3    H268991   0.249   5.417  13.708 -0.3489 -0.2048 -0.6474
15834TIP3   OH268992   5.908   1.144   0.118  0.0358  0.3584 -0.1448
15834TIP3    H168993   5.882   1.205   0.050 -0.9806  0.3987  0.2721
15834TIP3    H268994   5.830   1.133   0.173  0.5242 -0.4721  0.4127
15835TIP3   OH268995   3.808   2.291   4.199  0.0709  0.3743 -0.6289
15835TIP3    H168996   3.774   2.289   4.109  1.5986 -0.0234 -1.2266
15835TIP3    H268997   3.865   2.368   4.201  1.1389 -0.3909 -0.4502
15836TIP3   OH268998   0.632   6.268   5.755 -0.1612  0.0759  0.5270
15836TIP3    H168999   0.593   6.215   5.686 -0.4308  0.1379  0.6299
15836TIP3    H269000   0.726   6.253   5.747 -0.1708  0.2986 -0.0238
15837TIP3   OH269001   1.994   3.616  17.163 -0.2265 -0.3875  0.6245
15837TIP3    H169002   1.964   3.539  17.116 -1.2091 -0.0844  0.7327
15837TIP3    H269003   2.076   3.589  17.204  0.1608 -0.9429 -0.4744
15838TIP3   OH269004   5.777   6.151  14.734 -0.3526  0.0149  0.1087
15838TIP3    H169005   5.730   6.072  14.709 -0.9923  0.0830  1.0388
15838TIP3    H269006   5.814   6.131  14.820 -0.2638  0.6186  0.2158
15839TIP3   OH269007   5.791   5.582   5.091  0.0185 -0.3810 -0.2984
15839TIP3    H169008   5.701   5.550   5.101  0.7658 -3.0115 -1.2245
15839TIP3    H269009   5.843   5.525   5.146  1.5033 -1.1481 -2.3829
15840TIP3   OH269010   1.062   3.723   3.535  0.1234  0.5422  0.1273
15840TIP3    H169011   1.014   3.741   3.616 -1.0987  1.9797 -0.8713
15840TIP3    H269012   1.125   3.794   3.528 -0.7183  1.2111 -0.8600
15841TIP3   OH269013   1.388   4.417   2.416  0.0293 -0.5697  0.0094
15841TIP3    H169014   1.384   4.474   2.493 -1.9964 -1.1788  0.4382
15841TIP3    H269015   1.465   4.362   2.430 -0.6345 -1.0762  1.9448
15842TIP3   OH269016   3.895   1.025  13.109  0.6286 -0.1252 -0.2880
15842TIP3    H169017   3.808   0.987  13.100  1.1055 -1.7438  1.3273
15842TIP3    H269018   3.948   0.982  13.042  0.1298  1.1343 -1.5187
15843TIP3   OH269019   1.652   4.750   0.040 -0.2815 -0.0386  0.2310
15843TIP3    H169020   1.589   4.775   0.108 -1.9637 -0.6366 -1.0321
15843TIP3    H269021   1.601   4.695  -0.020  1.4260 -0.3996 -0.9421
15844TIP3   OH269022   3.365   5.135  15.720  0.0962 -0.2812 -0.1744
15844TIP3    H169023   3.303   5.064  15.707  1.7314 -1.8552  0.2106
15844TIP3    H269024   3.423   5.131  15.643  2.1486 -1.5039  1.3426
15845TIP3   OH269025   2.641   0.921   2.496  0.2842 -0.0918 -0.5708
15845TIP3    H169026   2.689   0.846   2.463  1.5886  2.0514 -4.1847
15845TIP3    H269027   2.703   0.994   2.490 -1.2312  1.5455  1.7389
15846TIP3   OH269028   3.807   5.394   3.050  0.0252 -0.1730  0.5695
15846TIP3    H169029   3.785   5.479   3.088  2.4747  0.1148  1.5297
15846TIP3    H269030   3.745   5.383   2.978  0.0530  2.7140 -0.0002
15847TIP3   OH269031   4.308   2.705  10.490  0.2260 -0.2118 -0.1386
15847TIP3    H169032   4.365   2.775  10.459  0.4329 -0.5386 -0.4986
15847TIP3    H269033   4.353   2.624  10.464 -1.0020 -0.4807 -1.5511
15848TIP3   OH269034   0.530   5.405   0.097  0.5893 -0.1131 -0.1469
15848TIP3    H169035   0.574   5.434   0.017 -0.1882 -1.0024 -0.9193
15848TIP3    H269036   0.582   5.443   0.168  1.0264  1.0729 -1.0744
15849TIP3   OH269037   2.079   3.018   1.333  0.1901 -0.0397 -0.0625
15849TIP3    H169038   2.092   3.113   1.324 -1.3705  0.1578 -0.6487
15849TIP3    H269039   2.166   2.983   1.352  0.7430  1.5513  0.5060
15850TIP3   OH269040   0.123   5.515  13.417 -0.3078  0.1524 -0.0678
15850TIP3    H169041   0.030   5.514  13.438 -0.8217  2.5943 -1.7163
15850TIP3    H269042   0.168   5.498  13.500 -2.1773 -2.3979  0.5146
15851TIP3   OH269043   2.904   2.810   1.808 -0.5118  0.3196 -0.2848
15851TIP3    H169044   2.855   2.870   1.864  0.1487  0.6607 -0.0616
15851TIP3    H269045   2.966   2.866   1.762 -1.1258  0.0654 -1.4654
15852TIP3   OH269046   1.089   0.853  11.779  0.1973  0.3234 -0.1842
15852TIP3    H169047   1.120   0.764  11.793  2.2755  1.0681  0.3393
15852TIP3    H269048   1.112   0.872  11.688 -2.3692 -0.4091 -1.0650
15853TIP3   OH269049   0.060   0.810  11.820  0.0659 -0.0594  0.4403
15853TIP3    H169050   0.109   0.728  11.814  2.9426  1.6234 -2.7334
15853TIP3    H269051  -0.019   0.794  11.769  1.8157 -0.2807 -2.4229
15854TIP3   OH269052   0.850   2.201  16.504 -0.5944  0.3211 -0.1846
15854TIP3    H169053   0.938   2.226  16.475 -0.0595  1.0021  1.8605
15854TIP3    H269054   0.850   2.105  16.503  0.6270  0.2887  1.0112
15855TIP3   OH269055   3.453   3.674   5.166  0.3458 -0.4526 -0.1834
15855TIP3    H169056   3.479   3.587   5.194 -0.6358 -0.6356  0.2044
15855TIP3    H269057   3.533   3.713   5.130  0.8881 -1.3510  0.0231
15856TIP3   OH269058   1.112   6.399  14.797  0.3026 -0.1447 -0.3280
15856TIP3    H169059   1.195   6.422  14.839 -0.2938  2.6276 -0.4205
15856TIP3    H269060   1.068   6.342  14.860  2.2006 -1.6326 -0.2668
15857TIP3   OH269061   5.148   3.469  13.762 -0.7211  0.2276  0.2517
15857TIP3    H169062   5.175   3.560  13.744  0.9688 -0.2612  0.1201
15857TIP3    H269063   5.072   3.477  13.820 -2.1010  1.7516 -1.6571
15858TIP3   OH269064   4.266   2.955   4.399  0.1080 -0.0320 -0.1270
15858TIP3    H169065   4.352   2.916   4.382 -0.1423 -1.0960  0.9858
15858TIP3    H269066   4.204   2.898   4.354 -0.1649 -0.2877  0.5625
15859TIP3   OH269067   2.776   1.463  13.817 -0.0124  0.0619 -0.2203
15859TIP3    H169068   2.775   1.478  13.912  0.9565  0.5811 -0.2807
15859TIP3    H269069   2.754   1.370  13.807  0.3193 -0.1022  0.5411
15860TIP3   OH269070   5.890   4.149   1.056  0.3272 -0.5303 -0.4953
15860TIP3    H169071   5.925   4.085   0.994  0.6836  0.0227 -0.8674
15860TIP3    H269072   5.808   4.109   1.087 -0.7546 -0.0693 -2.6098
15861TIP3   OH269073   4.082   1.040   2.527  0.4388 -0.1495 -0.7719
15861TIP3    H169074   4.038   1.008   2.605  0.9320 -0.3833 -0.5818
15861TIP3    H269075   4.030   1.114   2.498  1.9983  2.0608  1.6293
15862TIP3   OH269076   6.018   1.223   4.168  0.6013  0.7817  0.2977
15862TIP3    H169077   6.071   1.299   4.144  1.0617  0.1069 -0.8445
15862TIP3    H269078   5.984   1.246   4.255 -2.2536  3.9358 -1.3857
15863TIP3   OH269079   3.444   2.457  12.279  0.1632  0.3472  0.4610
15863TIP3    H169080   3.525   2.414  12.251 -0.3808 -0.7076  0.4217
15863TIP3    H269081   3.412   2.402  12.350 -1.8703 -0.8469 -1.2613
15864TIP3   OH269082   4.378   3.408  11.252  0.4801 -0.3892 -0.3685
15864TIP3    H169083   4.391   3.494  11.212 -1.9413 -0.9793 -2.7024
15864TIP3    H269084   4.434   3.349  11.201  2.1010 -0.2999  1.1968
15865TIP3   OH269085   4.619   1.546  16.573  0.1661  0.8848 -0.9659
15865TIP3    H169086   4.542   1.499  16.540  1.1993 -2.0269  0.4633
15865TIP3    H269087   4.690   1.519  16.515  1.4499 -2.1580  1.7776
15866TIP3   OH269088   1.783   2.207   1.864 -0.5891 -0.3073 -0.0902
15866TIP3    H169089   1.860   2.153   1.881 -0.7048 -0.5485 -0.3296
15866TIP3    H269090   1.819   2.293   1.843 -0.3199 -0.7086 -1.3632
15867TIP3   OH269091   5.086   1.656   4.278  0.1843 -0.0144 -0.3837
15867TIP3    H169092   5.002   1.632   4.319  0.1388  2.6663  1.3702
15867TIP3    H269093   5.082   1.752   4.271  2.5563  0.0543 -1.5569
15868TIP3   OH269094   5.416   0.976  13.757 -0.4645 -0.1700 -0.2649
15868TIP3    H169095   5.333   0.979  13.805 -0.0079  1.2190  0.4960
15868TIP3    H269096   5.435   1.067  13.736  0.3636 -0.5657 -1.3465
15869TIP3   OH269097   2.323   5.309  14.832  0.3261 -0.1873 -0.0573
15869TIP3    H169098   2.397   5.369  14.831  1.0191 -1.0206 -1.1909
15869TIP3    H269099   2.252   5.359  14.871  0.7404  1.5503 -1.3840
15870TIP3   OH269100   5.103   6.515   0.754 -0.0259 -0.9450  0.1216
15870TIP3    H169101   5.026   6.465   0.729  0.8813 -1.3176 -2.2910
15870TIP3    H269102   5.122   6.489   0.844 -1.6205 -2.2274  0.1211
15871TIP3   OH269103   5.672   3.657  14.238  0.1147  0.2501  0.5008
15871TIP3    H169104   5.765   3.636  14.223  0.4609  0.9841  1.5463
15871TIP3    H269105   5.672   3.749  14.263 -1.1454  0.9311 -1.7015
15872TIP3   OH269106   0.652   3.455   5.987  0.0477  0.2456 -0.1438
15872TIP3    H169107   0.719   3.442   5.919 -0.2978 -1.2698 -0.2210
15872TIP3    H269108   0.686   3.528   6.039  0.1751  1.6804 -2.1009
15873TIP3   OH269109   0.379   1.363   3.665  0.4940  0.0843 -0.2612
15873TIP3    H169110   0.380   1.432   3.732  2.0934 -1.4592  1.3916
15873TIP3    H269111   0.466   1.323   3.669 -0.8007 -3.0148 -0.0775
15874TIP3   OH269112   4.930   4.380   0.537  0.4214 -0.5408  0.5846
15874TIP3    H169113   4.987   4.430   0.478 -0.4035 -0.1832  0.0658
15874TIP3    H269114   4.984   4.362   0.613  1.3391 -0.5098 -0.0394
15875TIP3   OH269115   1.372   5.886   2.716 -0.7525 -0.2369  0.0815
15875TIP3    H169116   1.340   5.854   2.800  0.3787 -1.5843  0.0457
15875TIP3    H269117   1.448   5.940   2.739  0.2752 -1.5540 -0.0947
15876TIP3   OH269118   5.478   2.013   0.005  0.2190  0.1667  0.0450
15876TIP3    H169119   5.418   1.964   0.060  0.1477  0.3822  0.1567
15876TIP3    H269120   5.489   1.958  -0.073  0.7037 -0.3727  0.4826
15877TIP3   OH269121   6.420   3.073  12.498 -0.4471  0.1838 -0.1390
15877TIP3    H169122   6.504   3.056  12.541 -0.9339 -0.4736  0.5985
15877TIP3    H269123   6.391   2.987  12.467 -0.9266  0.3718 -0.2272
15878TIP3   OH269124   2.910   1.431   2.003  0.0351  0.0048  0.5469
15878TIP3    H169125   2.872   1.370   2.066  0.2897 -0.8646 -0.1249
15878TIP3    H269126   2.965   1.376   1.947 -0.4803  0.6952 -0.6698
15879TIP3   OH269127   5.946   6.494  11.658  0.4145  0.1805  0.1848
15879TIP3    H169128   6.008   6.476  11.587 -0.1859  1.9287 -0.8345
15879TIP3    H269129   5.909   6.408  11.679  2.3614 -0.7472  0.0761
15880TIP3   OH269130   0.638   3.001  15.326  0.6711 -0.6326  0.3837
15880TIP3    H169131   0.664   3.089  15.302  2.4934 -0.7846  1.6441
15880TIP3    H269132   0.559   3.013  15.380  0.3600  0.1371 -0.2332
15881TIP3   OH269133   1.992   5.888   5.988 -0.5161  0.0247 -0.1686
15881TIP3    H169134   1.928   5.845   5.931 -1.8324 -1.1747  2.0810
15881TIP3    H269135   2.056   5.821   6.007 -0.1318  0.3947 -0.1461
15882TIP3   OH269136   4.607   3.988  14.865  0.2276 -0.0136 -0.7845
15882TIP3    H169137   4.588   3.946  14.780  0.0040  2.1912 -1.9020
15882TIP3    H269138   4.524   3.984  14.912  0.2214 -0.8279 -0.8402
15883TIP3   OH269139   2.541   4.125  12.440 -0.2467  0.1008 -0.1287
15883TIP3    H169140   2.512   4.112  12.530 -1.0024 -0.2810 -0.4178
15883TIP3    H269141   2.571   4.039  12.411  2.3581  0.7076  0.5381
15884TIP3   OH269142   2.279   1.238  13.700 -0.6486  0.2320  0.1803
15884TIP3    H169143   2.366   1.202  13.683 -0.5537  1.1044 -1.3901
15884TIP3    H269144   2.264   1.222  13.793  1.0495 -0.2169  0.4111
15885TIP3   OH269145   2.873   4.707  13.924  0.7469 -0.1025 -0.1230
15885TIP3    H169146   2.886   4.613  13.939  0.2025 -0.1418  0.1067
15885TIP3    H269147   2.944   4.731  13.864  2.2863 -0.1930  1.5418
15886TIP3   OH269148   5.808   1.020   2.533 -0.2468  0.3248 -0.0037
15886TIP3    H169149   5.839   0.948   2.588  0.8217  0.1592 -0.7952
15886TIP3    H269150   5.727   0.986   2.494  0.1567 -0.3844 -0.2377
15887TIP3   OH269151   3.796   6.200  13.087 -0.0203  0.0403 -0.9018
15887TIP3    H169152   3.850   6.164  13.016 -0.1665  0.1658 -1.0806
15887TIP3    H269153   3.787   6.293  13.065  1.4493  0.4821  0.2602
15888TIP3   OH269154   5.467   3.099  16.606  0.3364  0.1263 -0.1104
15888TIP3    H169155   5.447   3.062  16.521  0.4243  1.2943 -0.6651
15888TIP3    H269156   5.386   3.141  16.634 -0.2550 -1.7838  1.2542
15889TIP3   OH269157   6.337   6.757   1.718  0.0824  0.0190 -0.2948
15889TIP3    H169158   6.376   6.669   1.715 -0.3284 -0.1624 -0.4436
15889TIP3    H269159   6.306   6.773   1.629 -1.4749 -0.4519  0.1275
15890TIP3   OH269160   3.678   5.939  11.909  0.3550  0.1569  0.3381
15890TIP3    H169161   3.653   5.851  11.882 -1.8018 -0.1169  2.8849
15890TIP3    H269162   3.646   5.996  11.839  0.7544 -0.9732 -0.7877
15891TIP3   OH269163   2.940   1.530   4.732 -0.4023  0.3872  0.0861
15891TIP3    H169164   2.977   1.595   4.793  0.7919 -0.1610 -0.0183
15891TIP3    H269165   2.934   1.577   4.649  1.3421  0.1384 -0.2229
15892TIP3   OH269166   6.449   1.045   4.649 -0.5818 -0.1748  0.4165
15892TIP3    H169167   6.366   1.022   4.608 -0.8317  0.7436  0.4054
15892TIP3    H269168   6.489   1.108   4.589  1.1184 -2.1438 -0.6760
15893TIP3   OH269169   6.668   4.481  11.004 -0.3688  0.2541  0.1422
15893TIP3    H169170   6.602   4.414  11.021 -1.1652  1.2478  1.0505
15893TIP3    H269171   6.618   4.559  10.981  0.5146  0.8067  0.0486
15894TIP3   OH269172   6.030   5.799   5.421  0.6340 -0.2390  0.1443
15894TIP3    H169173   5.971   5.813   5.346  0.6744  0.2901  0.2050
15894TIP3    H269174   6.058   5.708   5.413 -0.7504 -0.7219  0.5134
15895TIP3   OH269175   2.004   1.280  16.987 -0.0043  0.1098  0.3637
15895TIP3    H169176   2.080   1.319  16.943 -0.3828 -0.1411 -0.5290
15895TIP3    H269177   1.931   1.297  16.928 -0.3269 -1.1958  0.3602
15896TIP3   OH269178   2.746   6.634   0.766 -0.0203  0.4042 -0.1301
15896TIP3    H169179   2.808   6.619   0.837 -0.6890 -0.3540  0.3084
15896TIP3    H269180   2.764   6.564   0.703 -1.3994 -0.7516  0.6964
15897TIP3   OH269181   1.501   3.502  11.390 -0.1943  0.1855  0.0767
15897TIP3    H169182   1.452   3.577  11.357  0.6709  1.5011  1.6245
15897TIP3    H269183   1.593   3.526  11.377  0.1142 -1.7815 -1.8197
15898TIP3   OH269184   1.176   0.618  16.121  0.2777  0.2718  0.3942
15898TIP3    H169185   1.189   0.577  16.206 -2.0140 -0.3592  0.5101
15898TIP3    H269186   1.089   0.657  16.126  1.6437  3.7531 -0.3237
15899TIP3   OH269187   5.278   0.040  16.811 -0.3584 -0.1240 -0.0275
15899TIP3    H169188   5.221   0.118  16.810  0.1256  0.2354 -0.3704
15899TIP3    H269189   5.355   0.067  16.761 -0.1475 -0.8034 -0.0764
15900TIP3   OH269190   4.606   4.824   0.487 -0.0127  0.1213 -0.5993
15900TIP3    H169191   4.534   4.885   0.469 -1.1442 -1.2383 -0.8783
15900TIP3    H269192   4.607   4.765   0.412  0.5725 -0.6353 -0.0126
15901TIP3   OH269193   3.185   3.507   1.829  0.0890 -0.0178  0.2132
15901TIP3    H169194   3.205   3.469   1.743 -1.6075 -0.0104 -0.2178
15901TIP3    H269195   3.112   3.455   1.861  0.9608 -0.2779  1.8610
15902TIP3   OH269196   6.622   5.856   0.952  0.3406 -0.4809  0.0649
15902TIP3    H169197   6.655   5.781   0.902  0.0579 -0.9351  0.5493
15902TIP3    H269198   6.698   5.913   0.963  0.4201 -0.3795 -0.8531
15903TIP3   OH269199   5.278   4.294  16.033  0.0857 -0.2381 -1.0651
15903TIP3    H169200   5.229   4.238  15.972  0.3145 -0.6584 -0.8645
15903TIP3    H269201   5.244   4.382  16.016  0.3679 -0.2950 -2.0202
15904TIP3   OH269202   1.400   2.142  13.185  0.4973  0.3463 -0.3047
15904TIP3    H169203   1.462   2.215  13.191 -0.8261  1.5123 -0.2951
15904TIP3    H269204   1.446   2.068  13.226  1.6124  1.3493  0.3248
15905TIP3   OH269205   4.090   5.178  12.934  0.1476  0.2780  0.9726
15905TIP3    H169206   4.057   5.192  12.845 -0.2227  0.5117  1.1423
15905TIP3    H269207   4.089   5.265  12.974  0.2346  0.1616  1.2279
15906TIP3   OH269208   5.404   0.399   2.747 -0.1965  0.1044  0.3397
15906TIP3    H169209   5.351   0.448   2.810  1.8016  1.1161  1.3211
15906TIP3    H269210   5.383   0.308   2.764 -0.5251  0.4117  1.7445
15907TIP3   OH269211   4.458   2.608  12.578 -0.0585  0.0541  0.5566
15907TIP3    H169212   4.478   2.700  12.557  0.0980  0.3277  1.7945
15907TIP3    H269213   4.381   2.588  12.525  0.5608  0.5364 -0.5736
15908TIP3   OH269214   2.277   2.946  12.787  0.1653  0.1896 -0.4191
15908TIP3    H169215   2.357   2.975  12.744  0.7726  0.5672  0.9341
15908TIP3    H269216   2.307   2.887  12.856 -0.7978 -0.4433 -0.5186
15909TIP3   OH269217   2.713   5.015  13.381  0.7478 -0.3032 -0.0744
15909TIP3    H169218   2.686   5.065  13.459  1.4454  1.5508 -0.9522
15909TIP3    H269219   2.727   4.926  13.413 -0.0661  0.1551  1.6828
15910TIP3   OH269220   1.694   1.305   0.891  0.3222  0.0400 -0.1112
15910TIP3    H169221   1.695   1.369   0.962 -0.4359 -1.3752  1.2300
15910TIP3    H269222   1.765   1.244   0.912 -1.3461 -1.7168  0.7739
15911TIP3   OH269223   2.027   1.582  11.688 -0.0955  0.3678  0.1384
15911TIP3    H169224   2.078   1.510  11.652  1.5034  0.9434  1.1711
15911TIP3    H269225   1.954   1.539  11.734  1.1313 -0.6348  1.1992
15912TIP3   OH269226   2.163   1.022  10.599 -0.7353  0.2546 -0.7835
15912TIP3    H169227   2.131   0.942  10.640 -0.4993 -0.1763 -1.4153
15912TIP3    H269228   2.084   1.067  10.568 -1.0021  1.0467  0.9005
15913TIP3   OH269229   0.698   1.322  15.833 -0.3278  0.0440 -0.5567
15913TIP3    H169230   0.739   1.356  15.913  0.9421  1.5213 -1.7735
15913TIP3    H269231   0.763   1.264  15.795 -0.1320  0.8165 -1.4555
15914TIP3   OH269232   0.673   5.349  14.036  0.4486  0.0609  0.2876
15914TIP3    H169233   0.621   5.313  13.964  1.2938 -1.1512  0.2521
15914TIP3    H269234   0.717   5.273  14.074  0.2145  0.6983  1.9451
15915TIP3   OH269235   0.516   4.019  17.163 -0.0917  0.5354  0.2817
15915TIP3    H169236   0.492   3.937  17.121  0.4169 -0.0058  1.0196
15915TIP3    H269237   0.562   3.993  17.243  0.2680  1.5338  0.4216
15916TIP3   OH269238   0.789   5.739   0.708  0.1080 -0.0953 -0.0984
15916TIP3    H169239   0.746   5.729   0.623  0.9642 -1.2896 -0.4207
15916TIP3    H269240   0.880   5.715   0.692  0.7576  1.6476  0.7435
15917TIP3   OH269241   3.881   3.132  12.821 -0.0002 -0.1897  0.1810
15917TIP3    H169242   3.888   3.128  12.726 -1.5626 -0.7805  0.0448
15917TIP3    H269243   3.787   3.120  12.838  0.0320  1.3388  1.7382
15918TIP3   OH269244   2.583   4.203  14.343 -0.7663 -0.4681 -0.4883
15918TIP3    H169245   2.672   4.230  14.365 -0.7199 -0.8552 -0.1959
15918TIP3    H269246   2.560   4.257  14.267 -1.0384  1.1014  0.6629
15919TIP3   OH269247   5.608   0.484   2.519  0.4807  0.7212 -0.0664
15919TIP3    H169248   5.537   0.432   2.555  1.7257 -0.0223  1.4154
15919TIP3    H269249   5.568   0.568   2.497 -0.7962  0.4297  1.0318
15920TIP3   OH269250   1.626   3.763  11.321  0.6491  0.4553 -0.3516
15920TIP3    H169251   1.555   3.820  11.352  1.8381  1.1193  1.3010
15920TIP3    H269252   1.610   3.754  11.227 -0.8237  1.7294 -0.2657
15921TIP3   OH269253   6.589   5.784  14.637 -0.2894 -0.2774  0.3600
15921TIP3    H169254   6.644   5.785  14.715  0.5669  0.5140 -0.2289
15921TIP3    H269255   6.505   5.817  14.666  0.0616  0.1259  0.9358
15922TIP3   OH269256   3.570   2.885  13.607  0.1802 -0.1435 -0.6029
15922TIP3    H169257   3.581   2.790  13.611 -0.5861 -0.2031  0.5181
15922TIP3    H269258   3.477   2.899  13.623  0.2108  0.7793 -1.2137
15923TIP3   OH269259   2.044   3.010  13.024 -0.5030 -0.0210 -0.4442
15923TIP3    H169260   1.999   3.071  12.966 -2.0003 -1.1610 -0.5430
15923TIP3    H269261   2.021   3.038  13.112 -2.2616 -1.1345 -0.4972
15924TIP3   OH269262   1.913   5.790   5.069  0.4227  0.1805 -0.3476
15924TIP3    H169263   1.867   5.752   5.145 -0.4013  2.5920  0.4431
15924TIP3    H269264   1.873   5.747   4.993 -0.4815 -0.4861  0.4801
15925TIP3   OH269265   0.638   1.376  16.628 -0.2725  0.1045  0.3727
15925TIP3    H169266   0.607   1.397  16.716 -0.1156 -0.4963  0.5712
15925TIP3    H269267   0.619   1.455  16.577 -2.8614 -0.4795  0.2864
15926TIP3   OH269268   1.830   6.539   0.752  0.4805 -0.2788  0.2272
15926TIP3    H169269   1.802   6.457   0.710  0.7604 -0.3974  0.2665
15926TIP3    H269270   1.858   6.512   0.840 -0.3561  0.0059  0.5838
15927TIP3   OH269271   5.365   2.214  14.711 -0.1418  0.5080 -0.1266
15927TIP3    H169272   5.414   2.287  14.749  0.6854 -0.1902  0.1834
15927TIP3    H269273   5.416   2.136  14.734 -0.8066 -0.1371 -0.7685
15928TIP3   OH269274   0.405   1.053  15.141 -0.0754  0.6992  0.1510
15928TIP3    H169275   0.409   0.957  15.138  0.2277  0.7164 -0.0316
15928TIP3    H269276   0.486   1.079  15.184 -0.3556  0.8575  0.5899
15929TIP3   OH269277   0.009   1.466   5.004  0.1309 -0.2579  0.1413
15929TIP3    H169278  -0.056   1.534   4.989  0.4928 -0.0128 -0.3608
15929TIP3    H269279  -0.027   1.388   4.964  1.9410  0.8143 -4.1511
15930TIP3   OH269280   4.993   2.963   1.784  0.0319 -0.5459  0.4994
15930TIP3    H169281   4.913   2.923   1.750 -0.7481  1.5509 -0.3030
15930TIP3    H269282   4.989   2.951   1.879 -0.8899 -1.0307  0.4038
15931TIP3   OH269283   2.352   3.187  11.746  0.4581  0.5321  0.2823
15931TIP3    H169284   2.408   3.261  11.771  1.2218  0.2968 -0.6556
15931TIP3    H269285   2.402   3.142  11.678  0.5589 -1.5504  1.6357
15932TIP3   OH269286   1.086   0.880  17.301 -0.3116 -0.0439  0.1847
15932TIP3    H169287   1.124   0.923  17.224 -1.9687  0.2906 -0.5040
15932TIP3    H269288   1.054   0.952  17.355 -1.3750 -0.3291 -0.0389
15933TIP3   OH269289   0.329   1.308  11.543 -0.6062  0.0332 -0.3566
15933TIP3    H169290   0.352   1.230  11.594  0.1216  0.9364  0.7433
15933TIP3    H269291   0.269   1.357  11.600 -1.0249  0.3052 -1.0190
15934TIP3   OH269292   6.013   5.688  11.502  0.1722  0.1484 -0.1265
15934TIP3    H169293   5.927   5.673  11.462 -0.0883 -1.4318  0.9316
15934TIP3    H269294   6.057   5.603  11.497  1.2912  0.6845  0.2579
15935TIP3   OH269295   5.034   2.524  16.081  0.4455  0.1660 -0.5362
15935TIP3    H169296   5.000   2.600  16.130  0.0481  0.0460 -0.6228
15935TIP3    H269297   5.125   2.515  16.111  0.0653 -0.2118  0.5587
15936TIP3   OH269298   2.244   5.296   1.031 -0.4021  0.5605  0.0805
15936TIP3    H169299   2.237   5.329   0.942 -2.3614  0.3133  0.0959
15936TIP3    H269300   2.253   5.375   1.085  2.3721  0.6491 -0.3924
15937TIP3   OH269301   0.704   0.521   5.606 -0.1492  0.3023 -0.5903
15937TIP3    H169302   0.732   0.470   5.530 -0.4647  0.3119 -0.7142
15937TIP3    H269303   0.612   0.542   5.588  0.2140  1.6718 -0.9725
15938TIP3   OH269304   2.674   0.121  16.570 -0.2787  0.1177 -0.1722
15938TIP3    H169305   2.765   0.093  16.562  0.6708  1.6469  3.3351
15938TIP3    H269306   2.633   0.051  16.621 -1.0997 -0.5284 -1.6765
15939TIP3   OH269307   6.632   3.262   2.926  0.4395 -0.0914 -0.2998
15939TIP3    H169308   6.714   3.266   2.975  0.7805  0.0589 -0.8693
15939TIP3    H269309   6.613   3.353   2.903 -1.1109  0.1981  1.7603
15940TIP3   OH269310   2.746   2.378   0.928 -0.2158  0.2284 -0.9717
15940TIP3    H169311   2.704   2.317   0.867  1.1181 -0.9665 -0.7372
15940TIP3    H269312   2.839   2.356   0.925  0.0680  1.0653  0.4713
15941TIP3   OH269313   5.722   1.750   2.844 -0.1888  0.2872  0.4233
15941TIP3    H169314   5.744   1.797   2.924  1.1875 -1.3365  1.0661
15941TIP3    H269315   5.649   1.693   2.870 -0.2356  0.3015  0.3218
15942TIP3   OH269316   4.988   2.684   6.712  0.1629 -0.0772  0.2399
15942TIP3    H169317   5.048   2.642   6.651 -1.2604 -1.1974 -0.4477
15942TIP3    H269318   5.044   2.741   6.765  1.7607 -0.8001 -0.5918
15943TIP3   OH269319   1.716   0.999  17.183  0.7092 -0.2772  0.1288
15943TIP3    H169320   1.671   0.936  17.239  0.2039  0.3051  0.3851
15943TIP3    H269321   1.677   0.987  17.097 -1.4732  1.6447  0.7633
15944TIP3   OH269322   1.337   5.285   5.550  0.1808 -0.2297  0.1465
15944TIP3    H169323   1.431   5.304   5.555 -0.2144  1.7170  1.3634
15944TIP3    H269324   1.318   5.285   5.457  1.4331 -1.0315 -0.1447
15945TIP3   OH269325   5.392   3.247  12.375 -0.2075 -0.3937  0.2143
15945TIP3    H169326   5.353   3.242  12.288  2.2869 -0.7961 -0.9768
15945TIP3    H269327   5.463   3.311  12.366  0.7083 -1.1394  1.6677
15946TIP3   OH269328   0.770   0.019  13.120 -0.6437  0.1666  0.0116
15946TIP3    H169329   0.814   0.009  13.035  2.0867  1.4259  1.1585
15946TIP3    H269330   0.801  -0.056  13.171  0.4022  1.1646  0.8939
15947TIP3   OH269331   3.957   0.123   5.673  0.2164  0.7228 -0.4064
15947TIP3    H169332   4.021   0.151   5.739 -1.0942 -1.3388  1.8968
15947TIP3    H269333   3.899   0.198   5.663  0.1031  0.8865  1.2538
15948TIP3   OH269334   3.802   5.832  11.369  0.2401  0.0842  0.6613
15948TIP3    H169335   3.888   5.799  11.395  0.2342  0.3046  0.9771
15948TIP3    H269336   3.746   5.815  11.445  0.2945  1.0162  0.9296
15949TIP3   OH269337   5.359   5.254   1.753 -0.4592  0.3890 -0.2241
15949TIP3    H169338   5.396   5.201   1.824 -0.4286  1.3117  0.4709
15949TIP3    H269339   5.385   5.344   1.774 -0.8857  0.7401 -1.1345
15950TIP3   OH269340   6.683   6.630   1.591 -0.1288  0.3785 -0.5978
15950TIP3    H169341   6.752   6.567   1.610 -0.7591  0.2287  1.4396
15950TIP3    H269342   6.602   6.585   1.614 -0.8760  0.7802 -2.3194
15951TIP3   OH269343   4.403   4.832  12.782  0.2590 -0.0960  1.0208
15951TIP3    H169344   4.376   4.923  12.781 -0.7845 -0.3927  0.2845
15951TIP3    H269345   4.367   4.795  12.701  1.6439 -0.8900  0.7346
15952TIP3   OH269346   3.905   2.831  10.738  0.1715  0.3065 -0.2154
15952TIP3    H169347   3.844   2.783  10.682  1.3597 -1.3032 -0.2000
15952TIP3    H269348   3.849   2.871  10.806 -0.8980 -0.7935 -0.4124
15953TIP3   OH269349   0.300   4.161  12.177 -0.3308 -0.4871  0.6688
15953TIP3    H169350   0.354   4.197  12.247  0.8577 -1.6606  0.3922
15953TIP3    H269351   0.270   4.077  12.211 -2.2001  0.2152  0.8946
15954TIP3   OH269352   2.527   3.923   2.452 -0.2694 -0.1937  0.1043
15954TIP3    H169353   2.620   3.917   2.472 -0.5287 -1.5407  1.0694
15954TIP3    H269354   2.485   3.871   2.520 -1.6456 -0.4650 -0.9109
15955TIP3   OH269355   2.512   6.096   1.831 -0.8453 -0.2046 -0.0885
15955TIP3    H169356   2.518   6.015   1.780  0.4860 -0.0513 -0.2257
15955TIP3    H269357   2.477   6.070   1.916  0.0727 -1.0183  0.0489
15956TIP3   OH269358   0.069   2.936  11.193 -0.0035  0.2578 -0.1859
15956TIP3    H169359   0.162   2.960  11.191  0.2535 -0.5950  0.4476
15956TIP3    H269360   0.032   2.975  11.115  0.7897  1.0244 -0.1957
15957TIP3   OH269361   5.173   6.735   0.118  0.1286 -0.1446 -0.5092
15957TIP3    H169362   5.209   6.734   0.029 -0.4171 -0.0927 -0.7350
15957TIP3    H269363   5.135   6.822   0.127  1.1172  0.2270  0.1641
15958TIP3   OH269364   6.678   3.719  13.109  0.3430  0.1184  0.2194
15958TIP3    H169365   6.753   3.761  13.150  1.4505  0.6357 -2.1437
15958TIP3    H269366   6.715   3.669  13.036 -1.3195 -2.1153  0.7709
15959TIP3   OH269367   5.977   0.749  15.073  0.0099  0.0387 -0.0222
15959TIP3    H169368   5.882   0.745  15.061  0.0326  0.9239 -0.5688
15959TIP3    H269369   6.010   0.671  15.029 -0.5553 -1.0738  1.4130
15960TIP3   OH269370   4.066   0.466  11.484  0.4791  0.5728  0.2145
15960TIP3    H169371   3.986   0.444  11.532  0.2385  0.2063 -0.3524
15960TIP3    H269372   4.048   0.552  11.445 -0.3204 -0.2644 -1.3631
15961TIP3   OH269373   0.232   2.178   2.278  0.8653  0.7732  0.0622
15961TIP3    H169374   0.158   2.153   2.223 -0.5044  1.5513  1.4844
15961TIP3    H269375   0.289   2.101   2.278 -1.0557 -0.7393  0.7512
15962TIP3   OH269376   3.978   3.591   2.179 -0.4139  0.3046  0.7610
15962TIP3    H169377   4.055   3.541   2.205 -0.5817  0.4935  1.6524
15962TIP3    H269378   4.005   3.640   2.102  0.8197  1.4980  1.9032
15963TIP3   OH269379   4.249   5.174  15.313 -0.0502 -0.6076 -0.0381
15963TIP3    H169380   4.271   5.139  15.399 -0.4695 -0.9874 -0.0798
15963TIP3    H269381   4.192   5.108  15.274  1.4017 -1.1996 -1.2427
15964TIP3   OH269382   1.430   5.991  11.685 -0.3518  0.2308  0.0517
15964TIP3    H169383   1.378   5.980  11.606 -0.1451 -0.2965 -0.0100
15964TIP3    H269384   1.406   5.917  11.741 -1.1539  1.0645  0.8551
15965TIP3   OH269385   0.609   6.028   3.528 -0.2331 -0.0511  0.2596
15965TIP3    H169386   0.704   6.016   3.535 -0.3913 -0.6712  1.5127
15965TIP3    H269387   0.572   5.946   3.559 -1.2192  0.9949  2.0290
15966TIP3   OH269388   0.637   6.087  16.383  0.0061 -0.1213  0.2278
15966TIP3    H169389   0.716   6.136  16.407 -0.9420  1.0456  1.0827
15966TIP3    H269390   0.572   6.112  16.448 -1.1154 -1.0023 -0.5008
15967TIP3   OH269391   1.920   4.081   3.977 -0.0251  0.1980 -0.4297
15967TIP3    H169392   1.961   4.101   3.893 -1.0357  1.5038 -0.6485
15967TIP3    H269393   1.993   4.055   4.034  0.9172  1.0854 -1.1997
15968TIP3   OH269394   3.855   5.177  12.436  0.3762  0.1107  0.2690
15968TIP3    H169395   3.853   5.251  12.375  1.6269  0.6365  0.8349
15968TIP3    H269396   3.874   5.101  12.381 -2.0736 -0.0414 -0.5004
15969TIP3   OH269397   1.258   4.748   5.751  0.2487  0.5328  0.1708
15969TIP3    H169398   1.321   4.735   5.681 -0.4693 -2.1299 -0.0890
15969TIP3    H269399   1.272   4.674   5.810 -2.9467 -0.5350 -0.2044
15970TIP3   OH269400   3.334   1.630   4.011 -0.1656  0.6216  0.2394
15970TIP3    H169401   3.378   1.622   4.096  1.1364 -2.2762 -0.5843
15970TIP3    H269402   3.263   1.694   4.027 -0.6076 -0.4983  3.7546
15971TIP3   OH269403   1.823   4.110   0.744  0.3316  0.4295  0.0732
15971TIP3    H169404   1.889   4.086   0.809  0.3736 -2.1429 -0.8141
15971TIP3    H269405   1.831   4.044   0.675 -3.1940 -0.0539 -0.0715
15972TIP3   OH269406   0.806   6.420  10.537 -0.7070 -0.3256 -0.3235
15972TIP3    H169407   0.781   6.429  10.445 -2.0940  0.6571  0.1098
15972TIP3    H269408   0.730   6.378  10.578  0.2389 -1.5273  0.2353
15973TIP3   OH269409   6.419   6.509   1.700 -0.4575 -0.0405 -0.3412
15973TIP3    H169410   6.463   6.459   1.768  2.5816 -0.1728 -2.2442
15973TIP3    H269411   6.350   6.451   1.668 -0.3795 -0.8948  0.9561
15974TIP3   OH269412   0.044   0.259  12.291 -0.0829  0.1024  0.2745
15974TIP3    H169413   0.118   0.246  12.351 -0.4549  0.7978  0.8906
15974TIP3    H269414  -0.031   0.223  12.337  0.3338 -4.0673 -1.7845
15975TIP3   OH269415   4.498   4.569   5.189 -0.6014  0.3442  0.6647
15975TIP3    H169416   4.514   4.631   5.261 -1.2574  2.6687 -1.0501
15975TIP3    H269417   4.406   4.585   5.166 -1.1082 -2.0755  0.8051
15976TIP3   OH269418   2.258   2.715   4.222  0.1687  0.1708 -0.1592
15976TIP3    H169419   2.215   2.660   4.156 -0.9277  2.1822 -1.1987
15976TIP3    H269420   2.299   2.652   4.281 -2.6837 -1.8516 -0.1096
15977TIP3   OH269421   1.489   5.390  10.685  0.1051  0.0463  0.2023
15977TIP3    H169422   1.508   5.343  10.604  0.4142 -0.2340  0.4378
15977TIP3    H269423   1.509   5.482  10.665  1.8563 -0.2477  0.4829
15978TIP3   OH269424   4.140   0.640  15.139  0.5226 -0.0248  0.0587
15978TIP3    H169425   4.194   0.571  15.178 -0.4762 -2.0862 -1.9260
15978TIP3    H269426   4.065   0.647  15.197  0.3699 -1.0488  0.0126
15979TIP3   OH269427   5.985   0.233  13.295  0.3428  0.3375 -0.2495
15979TIP3    H169428   6.070   0.256  13.331  0.0805 -0.2299  0.7920
15979TIP3    H269429   5.958   0.155  13.345 -0.1514 -0.3581 -1.5369
15980TIP3   OH269430   2.008   5.417  16.514 -0.0901  0.5126  0.0191
15980TIP3    H169431   2.019   5.380  16.601 -1.4677 -0.2069 -0.0803
15980TIP3    H269432   2.030   5.346  16.454 -0.9394  0.4166 -0.1919
15981TIP3   OH269433   0.971   5.104  12.276  0.0187 -0.0731 -0.3463
15981TIP3    H169434   0.883   5.068  12.288 -0.6454  1.6375  0.2743
15981TIP3    H269435   0.996   5.076  12.188 -0.9414 -1.0038 -0.3489
15982TIP3   OH269436   2.313   1.453   5.410 -0.1952  0.7530  0.4037
15982TIP3    H169437   2.381   1.401   5.367 -0.3584  1.4734 -0.7660
15982TIP3    H269438   2.335   1.449   5.503  0.3319 -0.6128  0.2523
15983TIP3   OH269439   5.756   5.235  12.020  0.0899 -0.4376 -0.2184
15983TIP3    H169440   5.808   5.183  11.958  1.6705  0.7990 -0.0142
15983TIP3    H269441   5.751   5.322  11.978 -1.0969 -0.3039  0.1819
15984TIP3   OH269442   3.265   0.929   4.921 -0.4301  0.4645 -0.0205
15984TIP3    H169443   3.235   1.007   4.968 -1.2415 -0.7125  1.5116
15984TIP3    H269444   3.195   0.866   4.934  1.0230 -1.1273  0.3368
15985TIP3   OH269445   3.408   5.461  12.601 -0.1168  0.1063 -0.0000
15985TIP3    H169446   3.417   5.410  12.520 -2.7742  0.1147 -0.3624
15985TIP3    H269447   3.399   5.552  12.572 -0.0626  0.2375  0.3827
15986TIP3   OH269448   3.658   1.504   1.569 -0.0373  0.3226 -0.0311
15986TIP3    H169449   3.716   1.507   1.493 -0.5795  1.8485 -0.4128
15986TIP3    H269450   3.659   1.592   1.604 -0.5901 -0.1166  1.1445
15987TIP3   OH269451   5.824   0.799   2.213 -0.4640  0.1609 -0.0965
15987TIP3    H169452   5.893   0.733   2.212 -0.9265 -0.3230 -1.4666
15987TIP3    H269453   5.810   0.816   2.306  0.8461 -0.4044  0.2387
15988TIP3   OH269454   4.846   1.995  12.561  0.0104  0.6314  0.1400
15988TIP3    H169455   4.934   1.966  12.537 -0.1709  1.5224 -1.7251
15988TIP3    H269456   4.791   1.973  12.486 -0.6412  3.3500 -0.2985
15989TIP3   OH269457   0.257   2.735   4.145  0.1565 -0.1505 -0.3243
15989TIP3    H169458   0.214   2.650   4.151  1.0071 -0.4779  1.7611
15989TIP3    H269459   0.344   2.715   4.110  0.7394 -0.3235  1.1543
15990TIP3   OH269460   6.156   3.616  15.651 -0.1982  0.3055  0.1625
15990TIP3    H169461   6.119   3.607  15.739  0.3172  1.2776  0.4923
15990TIP3    H269462   6.209   3.696  15.655  1.8324 -0.9499 -0.3365
15991TIP3   OH269463   3.656   2.229   2.884  0.2917  0.0342 -0.0005
15991TIP3    H169464   3.741   2.186   2.878  0.2253 -0.1683  0.4800
15991TIP3    H269465   3.637   2.256   2.794  1.9467  2.2613  0.2510
15992TIP3   OH269466   4.246   3.943   3.065  0.5014  0.2936 -0.2389
15992TIP3    H169467   4.288   3.909   2.986 -1.3601 -1.9503 -0.3961
15992TIP3    H269468   4.154   3.949   3.042 -0.0922 -0.4236  1.7151
15993TIP3   OH269469   1.316   0.398   0.227  0.2201 -0.2493  0.2663
15993TIP3    H169470   1.221   0.393   0.236  0.1469 -0.7680 -0.6823
15993TIP3    H269471   1.335   0.491   0.220 -0.2893 -0.1835 -0.2591
15994TIP3   OH269472   4.287   4.546   6.483  0.1061 -0.1676  0.3548
15994TIP3    H169473   4.209   4.600   6.475 -0.0934 -0.5029  0.0303
15994TIP3    H269474   4.359   4.609   6.486 -0.2531  0.2343  2.1739
15995TIP3   OH269475   5.869   3.519   5.508 -0.0909  0.0973  0.3537
15995TIP3    H169476   5.904   3.605   5.485 -0.2834  0.5393  1.6192
15995TIP3    H269477   5.941   3.476   5.554 -0.8925  0.7468  2.3499
15996TIP3   OH269478   1.452   0.183  17.011 -0.1404  0.1311 -0.1755
15996TIP3    H169479   1.419   0.093  17.013 -0.4034  0.1928 -1.3601
15996TIP3    H269480   1.485   0.198  17.100 -2.0307 -0.4143  0.6681
15997TIP3   OH269481   2.993   1.370   5.343 -0.7284  0.1242 -0.4990
15997TIP3    H169482   2.954   1.395   5.428 -0.7655  0.6542 -0.6678
15997TIP3    H269483   3.037   1.450   5.313  0.7289 -0.5341 -0.1952
15998TIP3   OH269484   6.613   1.392  17.257  0.1284 -0.2327  0.3481
15998TIP3    H169485   6.552   1.406  17.329 -0.7331 -0.4505 -0.3153
15998TIP3    H269486   6.690   1.352  17.298 -0.7750 -1.3847  1.0063
15999TIP3   OH269487   2.009   1.703  11.451  0.1205 -0.1560 -0.0734
15999TIP3    H169488   2.061   1.648  11.392  0.4472  0.5456 -0.4457
15999TIP3    H269489   2.029   1.668  11.538  0.1276 -0.7876 -0.3208
16000TIP3   OH269490   4.464   1.821  11.859 -0.4001  0.0941  0.5865
16000TIP3    H169491   4.548   1.774  11.858 -1.2553 -1.5049  1.4223
16000TIP3    H269492   4.476   1.889  11.926 -0.6290 -1.8688  2.7293
16001TIP3   OH269493   0.429   4.511  16.937 -0.1073  0.1448 -0.2855
16001TIP3    H169494   0.495   4.481  16.875  0.4135 -0.9401  0.7651
16001TIP3    H269495   0.355   4.451  16.925  1.4630 -2.7724  2.8159
16002TIP3   OH269496   0.947   4.612   0.537 -0.4250 -0.4954 -0.3194
16002TIP3    H169497   0.852   4.622   0.544 -0.3810 -0.0092 -0.3414
16002TIP3    H269498   0.972   4.557   0.611 -0.3212  2.1641  1.7785
16003TIP3   OH269499   5.970   4.703   2.891 -0.0203  0.4520  0.1852
16003TIP3    H169500   5.964   4.798   2.900 -0.1075  0.5072 -0.3733
16003TIP3    H269501   5.879   4.673   2.887 -0.0312  0.5882 -1.7787
16004TIP3   OH269502   6.658   6.374   6.693 -0.0214 -0.5448 -0.2339
16004TIP3    H169503   6.633   6.453   6.742 -0.7343 -0.6239 -0.4585
16004TIP3    H269504   6.744   6.350   6.728  0.1410  0.2519 -0.0653
16005TIP3   OH269505   2.902   5.520  13.913  0.5727 -0.3363  0.2667
16005TIP3    H169506   2.930   5.574  13.987  0.6891  0.6435 -0.4690
16005TIP3    H269507   2.808   5.507  13.927  0.5167  0.1835  0.3752
16006TIP3   OH269508   0.973   3.835   5.213 -0.6303  0.5429 -0.3218
16006TIP3    H169509   0.917   3.763   5.242 -1.6281  1.4032 -0.0571
16006TIP3    H269510   1.062   3.798   5.215 -0.8806 -0.1065  1.7299
16007TIP3   OH269511   4.515   6.248   4.574  0.5736  0.4881 -0.4745
16007TIP3    H169512   4.540   6.304   4.648  0.4784 -0.4871  0.3271
16007TIP3    H269513   4.427   6.279   4.550  0.6995  0.9642 -0.3409
16008TIP3   OH269514   6.066   0.657   2.205 -0.2903  0.2381 -0.4895
16008TIP3    H169515   6.144   0.699   2.171  0.1855  0.7475  1.1645
16008TIP3    H269516   6.057   0.577   2.153  1.5745 -0.0475 -0.4183
16009TIP3   OH269517   4.829   6.459  14.158 -0.0120 -0.1167  0.0603
16009TIP3    H169518   4.770   6.530  14.133  0.1815 -0.1213 -0.4086
16009TIP3    H269519   4.800   6.384  14.106  0.4778 -0.0891 -0.2525
16010TIP3   OH269520   5.069   4.688   4.815 -0.2384  0.1032 -0.0460
16010TIP3    H169521   5.080   4.694   4.910 -0.7649  0.6051 -0.0150
16010TIP3    H269522   4.977   4.667   4.803 -0.2661  0.4642 -0.4593
16011TIP3   OH269523   1.281   4.027   0.201 -0.5236  0.2045  0.4492
16011TIP3    H169524   1.274   3.971   0.278 -0.5839  0.7620  0.8539
16011TIP3    H269525   1.267   4.116   0.234 -2.1447  0.3196 -0.4501
16012TIP3   OH269526   6.439   4.239   3.788  0.0427  0.3819  0.1337
16012TIP3    H169527   6.527   4.230   3.824 -0.5171  1.8772  2.0164
16012TIP3    H269528   6.381   4.224   3.862 -1.2511  1.2929 -0.6479
16013TIP3   OH269529   5.050   4.484   0.081  0.1695 -0.2141  0.4758
16013TIP3    H169530   5.071   4.530   0.162 -0.1547  1.7447 -0.4898
16013TIP3    H269531   5.078   4.394   0.096  3.4794  0.8454  1.4954
16014TIP3   OH269532   5.430   3.025  15.450  0.4849  0.7185 -0.2155
16014TIP3    H169533   5.484   2.960  15.404 -1.2075 -2.0513  1.3947
16014TIP3    H269534   5.400   2.979  15.529 -4.0277  2.0340 -0.8593
16015TIP3   OH269535   5.737   6.635   5.434 -0.0614  0.0684  0.0975
16015TIP3    H169536   5.820   6.675   5.458  0.1246 -1.2429  1.7617
16015TIP3    H269537   5.759   6.574   5.364 -0.2013  2.0713 -1.8016
16016TIP3   OH269538   4.845   3.020   4.679  0.6440  0.5161  0.0025
16016TIP3    H169539   4.800   2.944   4.716  4.4507 -1.1088  1.8511
16016TIP3    H269540   4.891   3.059   4.753  1.9395  2.2707 -1.6383
16017TIP3   OH269541   0.894   1.070   1.761 -0.5754 -0.4083 -0.0440
16017TIP3    H169542   0.868   1.143   1.705 -0.2742 -1.7835 -2.1121
16017TIP3    H269543   0.917   1.000   1.699 -0.4646 -2.1162  1.8264
16018TIP3   OH269544   2.698   3.364   5.894 -0.2162  0.2793  0.4234
16018TIP3    H169545   2.785   3.380   5.858 -1.0241  4.5374 -0.1963
16018TIP3    H269546   2.701   3.402   5.982 -1.3709  0.2542  0.4848
16019TIP3   OH269547   3.471   6.554  14.618  0.3854  0.4914  0.0555
16019TIP3    H169548   3.386   6.513  14.636  0.6273 -0.2800 -0.4753
16019TIP3    H269549   3.524   6.483  14.580  1.1962  1.0170  0.1839
16020TIP3   OH269550   1.117   0.447  12.118  0.3538 -0.0320  0.0110
16020TIP3    H169551   1.204   0.469  12.152 -0.3594  0.9011  1.3433
16020TIP3    H269552   1.078   0.532  12.095 -0.3591 -0.4033 -0.1782
16021TIP3   OH269553   4.567   4.778   2.191 -0.1518 -0.0130 -0.0968
16021TIP3    H169554   4.573   4.843   2.261  1.1318 -1.6356  1.3651
16021TIP3    H269555   4.480   4.739   2.203 -0.1358  0.0578  0.2635
16022TIP3   OH269556   0.635   5.541   3.301 -0.2893  0.2296  0.0275
16022TIP3    H169557   0.575   5.600   3.348 -0.5044  0.0864 -0.0648
16022TIP3    H269558   0.721   5.563   3.336 -0.2966  0.9740 -0.3924
16023TIP3   OH269559   4.434   2.815   4.623 -0.2011 -0.5204 -0.0061
16023TIP3    H169560   4.387   2.898   4.625  0.4616 -0.1504  1.4278
16023TIP3    H269561   4.457   2.803   4.531  0.9282  1.5960 -0.0467
16024TIP3   OH269562   6.741   3.558   1.734  0.5356 -0.3070  0.4639
16024TIP3    H169563   6.721   3.628   1.673 -0.9401 -1.3794 -0.3549
16024TIP3    H269564   6.722   3.595   1.821  2.6344  1.2222  0.3397
16025TIP3   OH269565   0.529   5.228  13.796 -0.0991  0.1705 -0.3511
16025TIP3    H169566   0.459   5.287  13.824  1.1570  1.0394  1.1003
16025TIP3    H269567   0.524   5.155  13.857  1.2769  1.0440  0.8860
16026TIP3   OH269568   5.609   2.807  17.099  0.2877  0.2284  0.2074
16026TIP3    H169569   5.550   2.821  17.025  0.0062  0.2968  0.4429
16026TIP3    H269570   5.558   2.755  17.161  0.1101  1.1536  0.8626
16027TIP3   OH269571   6.283   3.646   2.901 -0.5311  0.2865 -0.2675
16027TIP3    H169572   6.197   3.609   2.922 -1.2982  2.3629  0.5374
16027TIP3    H269573   6.337   3.624   2.977 -0.4567 -0.6506 -0.5800
16028TIP3   OH269574   1.608   5.587   3.222  0.2813 -0.3740  0.3508
16028TIP3    H169575   1.674   5.656   3.211  0.3002 -0.4893 -0.2558
16028TIP3    H269576   1.524   5.634   3.218  0.3203 -0.1894  1.3839
16029TIP3   OH269577   1.653   5.444  15.603  0.4545 -0.1301  1.0695
16029TIP3    H169578   1.662   5.468  15.695 -2.8822 -0.1858  1.5493
16029TIP3    H269579   1.587   5.505  15.569  0.1241 -1.4051 -0.7101
16030TIP3   OH269580   2.842   1.238   4.377 -0.9742 -0.0557  0.4923
16030TIP3    H169581   2.926   1.250   4.420 -0.5482 -0.2879 -0.2652
16030TIP3    H269582   2.824   1.322   4.336 -1.7895  0.4422  1.8045
16031TIP3   OH269583   2.849   5.151   0.332  0.0901  0.2586 -0.0508
16031TIP3    H169584   2.896   5.080   0.288  1.6781  1.0658  0.2584
16031TIP3    H269585   2.841   5.220   0.266 -1.6240 -0.2424 -0.4121
16032TIP3   OH269586   5.770   5.303  15.596 -0.2048  0.0437  0.1095
16032TIP3    H169587   5.691   5.338  15.555  0.6283  2.1786  0.1986
16032TIP3    H269588   5.819   5.264  15.523 -0.3644  0.6461 -0.3292
16033TIP3   OH269589   6.054   6.311   6.113 -0.3866 -0.3959 -0.6010
16033TIP3    H169590   5.979   6.338   6.166 -2.2337 -1.8658 -2.2901
16033TIP3    H269591   6.059   6.216   6.125 -0.4726 -0.6785 -2.5170
16034TIP3   OH269592   4.419   5.837  11.452  0.5576 -0.6378 -0.2311
16034TIP3    H169593   4.501   5.801  11.486  0.7347 -1.7461 -1.7238
16034TIP3    H269594   4.445   5.902  11.388  0.2721 -0.5275 -0.2373
16035TIP3   OH269595   0.711   0.867   6.077  0.0396 -0.6071 -0.3116
16035TIP3    H169596   0.797   0.875   6.035  0.4807  0.2971  0.7075
16035TIP3    H269597   0.660   0.940   6.042  0.3850  0.1059  0.6237
16036TIP3   OH269598   2.494   0.495   1.170  0.0848 -0.5439 -0.5607
16036TIP3    H169599   2.403   0.467   1.179 -0.4757  0.5758 -2.2723
16036TIP3    H269600   2.520   0.465   1.083  0.4719  1.4008 -1.1654
16037TIP3   OH269601   4.458   0.412  14.310  0.6791  0.0599  0.9938
16037TIP3    H169602   4.534   0.356  14.320  0.1986 -1.1044 -1.2508
16037TIP3    H269603   4.480   0.470  14.238 -0.5065 -0.2639  0.3392
16038TIP3   OH269604   5.088   5.159   1.306  0.1403  0.1673 -0.3695
16038TIP3    H169605   5.137   5.105   1.244  0.8902  1.6856 -1.1684
16038TIP3    H269606   5.100   5.116   1.390  3.0944  0.5634 -0.4838
16039TIP3   OH269607   3.862   4.929  14.362 -0.4709 -0.4841 -0.3705
16039TIP3    H169608   3.780   4.930  14.312 -1.0137  0.2545  0.5019
16039TIP3    H269609   3.901   5.015  14.345 -0.4887 -0.3615  0.1996
16040TIP3   OH269610   2.903   5.580   2.956 -0.5270 -0.6594  0.1686
16040TIP3    H169611   2.928   5.527   3.031  1.6246 -0.2557 -0.2029
16040TIP3    H269612   2.975   5.642   2.945 -0.7800 -0.6850 -2.1855
16041TIP3   OH269613   5.811   2.305  14.691 -0.3552 -0.2493  0.0421
16041TIP3    H169614   5.760   2.242  14.641 -1.7805  1.1287 -0.3413
16041TIP3    H269615   5.798   2.280  14.782  0.0893 -1.2044 -0.1457
16042TIP3   OH269616   4.916   4.361   6.287 -0.2027  0.2500 -0.5635
16042TIP3    H169617   4.905   4.423   6.216  0.8438 -0.5397 -1.4454
16042TIP3    H269618   4.859   4.287   6.264 -0.1031  0.1242 -0.4152
16043TIP3   OH269619   3.676   4.335  11.850 -0.1753  0.5562  0.1968
16043TIP3    H169620   3.732   4.288  11.912  1.4079  1.8382 -0.1750
16043TIP3    H269621   3.736   4.361  11.780 -1.4514  1.1844 -0.6909
16044TIP3   OH269622   6.266   6.191  12.485  0.2337 -0.3828 -0.5476
16044TIP3    H169623   6.322   6.164  12.413  0.3731  0.7882 -0.8975
16044TIP3    H269624   6.178   6.172  12.456  0.2716  0.3467 -1.1484
16045TIP3   OH269625   2.540   4.601   3.188  0.0011  0.0904 -0.0352
16045TIP3    H169626   2.535   4.525   3.246 -1.1057 -0.6184 -1.0138
16045TIP3    H269627   2.573   4.566   3.106 -0.2502  0.7162 -0.4127
16046TIP3   OH269628   0.754   3.742  11.394  0.4557 -0.4538  0.2382
16046TIP3    H169629   0.674   3.794  11.386 -0.4714 -1.9402 -0.6779
16046TIP3    H269630   0.824   3.804  11.375 -0.3333  1.1950  2.2979
16047TIP3   OH269631   3.762   4.424  14.954  0.4770  0.4959 -0.4092
16047TIP3    H169632   3.815   4.380  15.021 -1.3016  0.2517  0.9251
16047TIP3    H269633   3.765   4.517  14.977 -1.0744  0.3016  0.8243
16048TIP3   OH269634   6.455   1.876  11.708  1.2350  0.1295 -0.8888
16048TIP3    H169635   6.460   1.809  11.777 -4.5661 -0.5169 -0.5684
16048TIP3    H269636   6.433   1.827  11.629  1.9885  1.3147 -1.8615
16049TIP3   OH269637   2.656   5.363  13.430  0.2319 -0.0964 -0.3084
16049TIP3    H169638   2.629   5.290  13.486  0.2582 -0.9713 -1.3940
16049TIP3    H269639   2.583   5.424  13.433  0.2588 -0.0945  0.7161
16050TIP3   OH269640   3.490   2.026   2.948 -0.5675 -0.5092  0.5190
16050TIP3    H169641   3.533   2.111   2.935 -1.7213  0.1426  0.8006
16050TIP3    H269642   3.549   1.963   2.907  1.2779  0.1644  1.9462
16051TIP3   OH269643   4.995   2.033  16.339  0.6664  0.4884 -0.5345
16051TIP3    H169644   4.990   2.048  16.245 -0.1660  1.3976 -0.3626
16051TIP3    H269645   5.028   2.116  16.374 -0.7346  0.7986  0.1270
16052TIP3   OH269646   6.647   4.644   5.165  0.0832  0.3246 -0.1379
16052TIP3    H169647   6.591   4.645   5.087 -1.1292  1.5334  0.6901
16052TIP3    H269648   6.623   4.562   5.210  0.2420 -0.0085 -0.6505
16053TIP3   OH269649   5.947   5.387  10.547  0.1692  0.7319 -0.2873
16053TIP3    H169650   5.966   5.337  10.627 -2.5518  1.1272  0.7247
16053TIP3    H269651   6.026   5.439  10.532  1.0113  0.1705  1.7914
16054TIP3   OH269652   4.541   2.134   5.291 -0.0573 -0.4601  0.4482
16054TIP3    H169653   4.615   2.076   5.270 -0.2504 -1.0472  1.3132
16054TIP3    H269654   4.517   2.110   5.380  1.7327  2.9871  2.0436
16055TIP3   OH269655   5.659   0.423  16.239  0.2036 -0.3407 -0.0250
16055TIP3    H169656   5.605   0.344  16.248 -1.2709  0.6559  0.2702
16055TIP3    H269657   5.597   0.495  16.250  1.4306  0.8697 -0.8331
16056TIP3   OH269658   3.648   1.293   4.868  0.1332  0.2645  0.5900
16056TIP3    H169659   3.563   1.315   4.832  0.0954 -1.4458 -0.4754
16056TIP3    H269660   3.681   1.376   4.904 -1.6855  1.0855  0.4834
16057TIP3   OH269661   2.817   1.929   5.326 -0.3357 -0.5906 -0.5992
16057TIP3    H169662   2.766   1.848   5.327  0.1167 -0.9401 -2.2183
16057TIP3    H269663   2.901   1.904   5.289  0.9351  0.0514  1.6725
16058TIP3   OH269664   6.645   2.556  16.161  0.2306  0.2838  0.0491
16058TIP3    H169665   6.608   2.632  16.117  0.7058 -0.5128 -1.8219
16058TIP3    H269666   6.704   2.592  16.227 -0.3169  1.5335 -0.1282
16059TIP3   OH269667   3.027   4.359  11.923 -0.7513  0.1015  0.4606
16059TIP3    H169668   3.021   4.449  11.892  0.6993 -0.2502 -0.9592
16059TIP3    H269669   3.114   4.353  11.963  0.0955 -1.2196 -1.4580
16060TIP3   OH269670   5.084   3.462   3.467 -0.4659 -0.0517  0.0036
16060TIP3    H169671   5.085   3.431   3.558  1.8974  0.4930  0.2193
16060TIP3    H269672   5.135   3.397   3.419 -1.6635 -0.3141 -0.9564
16061TIP3   OH269673   4.533   6.216  11.580 -0.0843 -0.2642  0.0104
16061TIP3    H169674   4.539   6.311  11.593 -1.1068 -0.0954 -0.6668
16061TIP3    H269675   4.556   6.178  11.665 -0.3215  0.6044  0.4657
16062TIP3   OH269676   3.914   2.493   2.396  0.1313  0.3042  0.2084
16062TIP3    H169677   4.000   2.527   2.421  0.2828  0.4834 -0.5326
16062TIP3    H269678   3.894   2.427   2.462  0.5357  0.7381  0.7717
16063TIP3   OH269679   3.155   4.184  12.736  0.5299  0.2433 -0.0424
16063TIP3    H169680   3.065   4.214  12.735  0.4466  0.0804 -2.1799
16063TIP3    H269681   3.192   4.220  12.817 -1.3988  0.3674  0.8327
16064TIP3   OH269682   1.616   5.806  17.050 -0.2906  0.0287 -0.0308
16064TIP3    H169683   1.629   5.790  16.957 -0.2706  0.7871 -0.1625
16064TIP3    H269684   1.704   5.810  17.086 -0.2925 -0.0410 -0.0178
16065TIP3   OH269685   3.437   0.125   1.464  0.2368 -0.2633  0.1957
16065TIP3    H169686   3.453   0.075   1.384  0.0786 -0.1833  0.1138
16065TIP3    H269687   3.370   0.074   1.510 -0.0834 -0.0157  0.0094
16066TIP3   OH269688   4.592   1.332   5.853  0.6164 -0.2152  0.2592
16066TIP3    H169689   4.668   1.382   5.824 -0.3387  0.3794 -1.3259
16066TIP3    H269690   4.544   1.312   5.773 -0.7661 -0.8136  1.1942
16067TIP3   OH269691   4.726   6.793   0.019 -0.2088 -0.8600  0.2181
16067TIP3    H169692   4.791   6.726  -0.003  0.0626 -0.7246  0.5967
16067TIP3    H269693   4.664   6.791  -0.053  0.0081 -1.2576  0.0395
16068TIP3   OH269694   3.925   3.650   1.126  0.3853 -0.3974  0.1836
16068TIP3    H169695   3.947   3.728   1.075 -1.9507  0.4741  0.3742
16068TIP3    H269696   3.833   3.633   1.105  0.5470 -2.4745  0.9781
16069TIP3   OH269697   3.494   4.993   3.613  0.1921  0.3218 -0.1874
16069TIP3    H169698   3.448   5.016   3.694 -2.2381 -1.0415 -1.0587
16069TIP3    H269699   3.527   4.905   3.627 -0.9290 -0.2437 -0.8678
16070TIP3   OH269700   3.293   5.073   1.111  0.0120 -0.0558 -0.7748
16070TIP3    H169701   3.351   5.000   1.088 -0.6272 -0.1579 -2.1222
16070TIP3    H269702   3.270   5.114   1.028 -0.2148  1.2651 -0.0981
16071TIP3   OH269703   6.042   5.606   1.887 -0.1567 -0.0755  0.1370
16071TIP3    H169704   5.984   5.606   1.964 -0.6748  1.9850 -0.1949
16071TIP3    H269705   5.986   5.578   1.815 -0.4267  0.6596  0.0485
16072TIP3   OH269706   3.134   6.603   6.011  0.6220  0.4202  0.1614
16072TIP3    H169707   3.100   6.631   5.926 -2.6059 -1.1192  0.7858
16072TIP3    H269708   3.112   6.674   6.071  0.6779  0.4618  0.1325
16073TIP3   OH269709   1.229   3.509   2.508  0.1076 -0.0057 -0.2918
16073TIP3    H169710   1.275   3.426   2.503  0.4614  0.2519 -1.8913
16073TIP3    H269711   1.140   3.486   2.531  0.9788 -0.5070  3.0771
16074TIP3   OH269712   4.940   3.552  13.038  0.0195  0.4700  0.0389
16074TIP3    H169713   4.909   3.511  12.958  1.7674  2.6238 -1.8770
16074TIP3    H269714   4.995   3.485  13.079 -0.2505 -0.4076 -0.9848
16075TIP3   OH269715   2.814   5.519  15.192 -0.3184  0.2506 -0.3126
16075TIP3    H169716   2.896   5.567  15.186 -0.1943  0.0051 -0.5924
16075TIP3    H269717   2.840   5.427  15.198 -0.5213  0.2554  1.0339
16076TIP3   OH269718   5.039   3.500  15.197 -0.1910 -0.3267  0.1748
16076TIP3    H169719   4.970   3.433  15.196  1.7608 -2.4568 -1.3304
16076TIP3    H269720   5.113   3.457  15.241  0.6103  1.4834  0.6800
16077TIP3   OH269721   0.321   3.288   2.800  0.0659  0.0455 -0.2458
16077TIP3    H169722   0.291   3.230   2.729 -1.6683  1.2111 -0.5337
16077TIP3    H269723   0.391   3.339   2.760  1.5925 -1.7325 -0.0066
16078TIP3   OH269724   0.825   5.446   4.005 -0.3414  0.1550  0.3433
16078TIP3    H169725   0.738   5.420   3.973 -0.2196 -1.0540  0.9586
16078TIP3    H269726   0.872   5.473   3.926 -0.6618 -1.0021 -0.2549
16079TIP3   OH269727   0.377   2.897  11.921 -0.4187  0.1163 -0.5320
16079TIP3    H169728   0.337   2.817  11.887 -0.7851 -0.5498  1.3161
16079TIP3    H269729   0.310   2.964  11.909 -0.2495  0.0941 -1.7517
16080TIP3   OH269730   5.963   6.348  12.458  0.1071  0.2045 -0.7807
16080TIP3    H169731   5.964   6.379  12.549 -1.1710  0.7402 -0.9255
16080TIP3    H269732   6.043   6.385  12.420  0.9452 -0.4720  0.2465
16081TIP3   OH269733   6.550   5.915  15.553 -0.3442 -0.4487 -0.2006
16081TIP3    H169734   6.500   5.845  15.511 -0.5920 -0.8607  0.7526
16081TIP3    H269735   6.609   5.870  15.613 -1.6105  0.1720  1.6261
16082TIP3   OH269736   4.658   5.652  15.093  0.2904 -0.5849 -0.5653
16082TIP3    H169737   4.714   5.674  15.168  0.6349 -2.2172 -0.3115
16082TIP3    H269738   4.608   5.576  15.122 -0.5511 -0.4221 -1.5382
16083TIP3   OH269739   6.675   2.038  12.479 -0.0320 -0.4947 -0.2733
16083TIP3    H169740   6.625   2.070  12.404  2.0029  0.7714 -1.1801
16083TIP3    H269741   6.609   2.006  12.540 -1.9466  1.3185 -1.2759
16084TIP3   OH269742   1.510   6.039   1.841 -0.2169 -0.1330  0.0189
16084TIP3    H169743   1.525   6.085   1.759 -1.2090 -1.4749 -0.9708
16084TIP3    H269744   1.443   6.091   1.886 -1.0540 -0.3717 -0.9082
16085TIP3   OH269745   4.220   4.306   1.944  0.4458 -0.0878  0.1951
16085TIP3    H169746   4.275   4.375   1.981  0.4105  1.1964 -1.9642
16085TIP3    H269747   4.130   4.333   1.967  0.5397 -1.0019  1.8023
16086TIP3   OH269748   4.627   0.252  14.048 -0.2271  0.2086 -0.6526
16086TIP3    H169749   4.539   0.284  14.031 -1.7492 -3.3486 -0.3622
16086TIP3    H269750   4.653   0.207  13.968  1.6891  1.6940 -0.9659
16087TIP3   OH269751   3.265   0.384   1.853  0.0392 -0.2726 -0.0725
16087TIP3    H169752   3.263   0.459   1.911  1.2907 -0.9514  0.8853
16087TIP3    H269753   3.207   0.408   1.781 -0.0552  1.3466  0.5112
16088TIP3   OH269754   0.953   2.215  15.602  0.0579 -0.0520 -0.0214
16088TIP3    H169755   1.045   2.206  15.623  0.2594  0.9153 -0.4302
16088TIP3    H269756   0.950   2.283  15.534 -0.8849 -0.5686 -0.5221
16089TIP3   OH269757   1.195   0.406  14.457  0.4974  0.7091 -0.0914
16089TIP3    H169758   1.132   0.476  14.478 -0.7698  0.5109 -2.7395
16089TIP3    H269759   1.263   0.415  14.523 -0.9437  2.7283  1.2767
16090TIP3   OH269760   3.912   3.689  11.985 -0.0694 -1.0637  0.2312
16090TIP3    H169761   3.856   3.622  12.024 -0.5280 -0.8132  0.0089
16090TIP3    H269762   3.853   3.763  11.969  0.3742 -0.7103  0.2150
16091TIP3   OH269763   4.617   4.191   1.919 -0.4531 -0.5716 -0.2564
16091TIP3    H169764   4.692   4.152   1.965 -1.2782 -1.6850  0.1794
16091TIP3    H269765   4.564   4.116   1.892 -1.4922  0.2085 -0.4238
16092TIP3   OH269766   5.284   2.382   5.417 -0.0743  0.3541  0.2597
16092TIP3    H169767   5.372   2.346   5.405 -0.3345 -1.0647  2.1168
16092TIP3    H269768   5.282   2.410   5.508 -2.6346 -3.1981  1.5231
16093TIP3   OH269769   1.211   3.517   5.018 -0.4397 -0.5562  0.0841
16093TIP3    H169770   1.226   3.600   5.064 -0.1837 -1.3051  1.4013
16093TIP3    H269771   1.133   3.534   4.964 -1.6039 -0.0140  1.8377
16094TIP3   OH269772   3.800   2.656  15.298 -0.6241  0.0092 -0.5680
16094TIP3    H169773   3.805   2.648  15.393  0.1387 -1.2000 -0.6918
16094TIP3    H269774   3.853   2.584  15.265  0.3190  1.2725 -1.9148
16095TIP3   OH269775   2.640   5.820  12.874  0.1591 -0.6814 -0.0813
16095TIP3    H169776   2.601   5.736  12.849  0.8637 -0.6480 -1.3406
16095TIP3    H269777   2.720   5.826  12.823 -0.7327  1.5218 -1.3329
16096TIP3   OH269778   5.690   5.636   5.681 -0.0409  0.4787  0.2362
16096TIP3    H169779   5.681   5.678   5.596 -0.8221  0.5098  0.3288
16096TIP3    H269780   5.669   5.704   5.744 -1.6167 -0.0855  0.3790
16097TIP3   OH269781   4.317   1.913  16.826 -0.2004  0.0922 -0.2658
16097TIP3    H169782   4.257   1.930  16.899  0.1727  0.3826 -0.0210
16097TIP3    H269783   4.295   1.981  16.762 -0.6129 -0.2396 -0.4789
16098TIP3   OH269784   0.698   4.561   4.875 -0.2326  0.0121 -0.0393
16098TIP3    H169785   0.655   4.501   4.935  1.0768 -0.9331  0.0169
16098TIP3    H269786   0.746   4.503   4.815  1.2468  0.9965  0.1507
16099TIP3   OH269787   2.445   6.199  12.727 -0.7168  0.2042  0.0006
16099TIP3    H169788   2.387   6.124  12.736  0.5527 -1.0996 -2.0009
16099TIP3    H269789   2.531   6.166  12.751 -0.0157  0.7982 -1.5905
16100TIP3   OH269790   4.121   3.444  11.147 -0.1799  0.0652  0.0050
16100TIP3    H169791   4.173   3.448  11.067  1.2627  1.4122  0.9222
16100TIP3    H269792   4.186   3.435  11.217 -1.3922 -1.0690  1.0395
16101TIP3   OH269793   0.222   2.599   3.295  0.1398 -0.2172  0.0074
16101TIP3    H169794   0.219   2.609   3.200 -0.0125 -0.1178  0.0231
16101TIP3    H269795   0.205   2.687   3.329  0.7114 -0.1422  0.1213
16102TIP3   OH269796   5.281   1.900   2.610  0.0082  0.3404 -0.6104
16102TIP3    H169797   5.375   1.906   2.624 -0.1247  1.2094  0.0575
16102TIP3    H269798   5.243   1.959   2.676 -1.0055 -0.0873 -0.7838
16103TIP3   OH269799   4.642   2.668  15.694 -0.1932 -0.0210  0.3953
16103TIP3    H169800   4.626   2.726  15.619 -0.7532 -0.3462  0.2564
16103TIP3    H269801   4.620   2.580  15.662  3.4688 -0.8393 -0.3528
16104TIP3   OH269802   1.106   6.066  16.429  0.5033 -0.2748  0.4746
16104TIP3    H169803   1.081   6.003  16.362  1.4272 -1.8724  1.5773
16104TIP3    H269804   1.139   6.013  16.501 -0.0890  1.4158  2.0611
16105TIP3   OH269805   2.961   2.391  15.064 -0.2408 -0.1585  0.0907
16105TIP3    H169806   2.969   2.474  15.110  2.9230 -0.6137  0.5907
16105TIP3    H269807   2.879   2.398  15.015 -0.0279  3.2873  0.0138
16106TIP3   OH269808   3.413   4.234   0.176  0.6446 -0.0155 -1.1268
16106TIP3    H169809   3.445   4.194   0.095 -0.7676  0.8515 -2.1461
16106TIP3    H269810   3.377   4.160   0.226  4.4016 -1.1415  0.2966
16107TIP3   OH269811   0.203   0.334  17.108 -0.1418 -0.2263  0.0667
16107TIP3    H169812   0.186   0.375  17.023 -0.5135 -0.0561  0.2177
16107TIP3    H269813   0.182   0.242  17.095  1.4214 -0.5158 -0.4800
16108TIP3   OH269814   5.231   2.258  11.354  0.4652  0.0690 -0.6196
16108TIP3    H169815   5.264   2.316  11.286  0.6809  0.3183 -0.3078
16108TIP3    H269816   5.288   2.181  11.349  1.0103  0.4330 -0.1843
16109TIP3   OH269817   1.705   3.351  17.006  0.1380  0.0175 -0.1692
16109TIP3    H169818   1.669   3.433  17.039  1.8979  1.4696 -1.6460
16109TIP3    H269819   1.646   3.325  16.936 -1.5863 -1.1773  1.5964
16110TIP3   OH269820   1.225   2.089   2.642 -0.0998  0.3303 -0.1913
16110TIP3    H169821   1.199   2.177   2.669  2.9066  1.4148 -0.3835
16110TIP3    H269822   1.239   2.096   2.547  0.5778 -0.2227 -0.1407
16111TIP3   OH269823   6.345   1.072   1.319  0.3540  0.1884 -0.6768
16111TIP3    H169824   6.276   1.107   1.262  1.1909  1.0508 -1.1924
16111TIP3    H269825   6.421   1.063   1.262  0.2284 -2.4973 -0.5727
16112TIP3   OH269826   5.556   1.386  14.348 -0.2771 -0.2366 -0.2229
16112TIP3    H169827   5.578   1.374  14.441 -0.9987  0.9978  0.1281
16112TIP3    H269828   5.474   1.435  14.349  0.5551  1.2400 -1.5132
16113TIP3   OH269829   4.240   5.553  15.443 -0.5707 -0.2982  0.3049
16113TIP3    H169830   4.172   5.615  15.419 -1.0359 -1.3093 -1.0695
16113TIP3    H269831   4.267   5.581  15.531 -1.8686  0.8601  0.3710
16114TIP3   OH269832   2.328   2.438   2.108 -0.0214 -0.0277  0.5183
16114TIP3    H169833   2.259   2.504   2.098 -0.4860 -0.6419 -0.4891
16114TIP3    H269834   2.303   2.368   2.048  0.9815 -0.6893  0.8501
16115TIP3   OH269835   5.249   6.350  12.371 -0.1094 -0.7800  0.2761
16115TIP3    H169836   5.242   6.282  12.304 -1.9545  1.0391 -1.5282
16115TIP3    H269837   5.318   6.408  12.339 -2.1009  1.0075 -1.0781
16116TIP3   OH269838   1.092   5.898   0.596 -0.2627  0.2875 -0.4039
16116TIP3    H169839   1.014   5.949   0.573  0.4779  1.9789  0.6440
16116TIP3    H269840   1.153   5.913   0.523  0.5553  2.3237  0.5997
16117TIP3   OH269841   6.310   4.525   3.229  0.1656  0.1473  0.0075
16117TIP3    H169842   6.286   4.606   3.184  0.4928  0.4414  0.3607
16117TIP3    H269843   6.375   4.484   3.172  0.3855  0.3914  0.0818
16118TIP3   OH269844   4.207   1.325  11.043 -0.0210 -0.4042 -0.1366
16118TIP3    H169845   4.204   1.420  11.033 -0.9668 -0.5709 -1.7112
16118TIP3    H269846   4.296   1.307  11.074  0.7063  0.8642 -1.3647
16119TIP3   OH269847   3.915   3.336   3.083  0.6601 -0.4092 -0.3034
16119TIP3    H169848   4.003   3.299   3.088  1.3347  0.8101 -2.0937
16119TIP3    H269849   3.865   3.273   3.032  1.1416 -0.0265 -1.2644
16120TIP3   OH269850   1.325   4.998   1.412  0.2048  0.5031  0.2773
16120TIP3    H169851   1.284   5.057   1.476  2.0944 -0.0151  2.0850
16120TIP3    H269852   1.404   5.044   1.385 -0.4413  0.5955 -1.5561
16121TIP3   OH269853   3.039   2.362   1.015  0.0036  0.0210 -0.1566
16121TIP3    H169854   3.128   2.364   1.050 -0.4344  0.4064  0.9732
16121TIP3    H269855   2.983   2.356   1.092 -0.8918 -2.4135 -0.9038
16122TIP3   OH269856   6.084   6.709  14.991  0.0065  0.5496  0.2263
16122TIP3    H169857   6.177   6.721  14.973  0.0714  2.4850  1.4908
16122TIP3    H269858   6.039   6.739  14.912  0.4362  1.5763  0.3580
16123TIP3   OH269859   6.790   1.372  16.105  0.0463  0.2479 -0.2855
16123TIP3    H169860   6.747   1.455  16.083 -0.7420 -0.1979 -0.4736
16123TIP3    H269861   6.869   1.398  16.153  0.6454  1.1594 -1.6922
16124TIP3   OH269862   5.255   4.531   5.839  0.4697 -0.0389 -0.1480
16124TIP3    H169863   5.323   4.592   5.865  0.2129  1.5861 -2.9005
16124TIP3    H269864   5.191   4.585   5.792 -1.0735 -2.0179 -0.4594
16125TIP3   OH269865   2.321   5.208   6.363  0.2504 -0.1733 -0.3351
16125TIP3    H169866   2.285   5.290   6.397 -0.7731 -0.1275 -1.4551
16125TIP3    H269867   2.411   5.229   6.338  0.5340  0.1644  0.9017
16126TIP3   OH269868   3.322   6.532  16.554  0.0633  0.5475 -0.1714
16126TIP3    H169869   3.249   6.476  16.527 -0.2441  1.3314 -1.0458
16126TIP3    H269870   3.400   6.485  16.526 -0.0556 -0.5369  1.2207
16127TIP3   OH269871   0.510   4.805  13.029 -0.0824  0.1201 -0.3219
16127TIP3    H169872   0.483   4.713  13.025  0.4394 -0.1242  1.3598
16127TIP3    H269873   0.427   4.854  13.024 -0.4215 -0.4588 -0.5040
16128TIP3   OH269874   0.135   5.163  12.842 -0.5230  0.0835  0.4669
16128TIP3    H169875   0.066   5.101  12.818 -2.5146  2.3694 -0.1954
16128TIP3    H269876   0.184   5.177  12.761 -0.7251  0.1300  0.3521
16129TIP3   OH269877   1.717   4.117   5.202  0.0520  0.3237 -0.0334
16129TIP3    H169878   1.770   4.058   5.150 -1.0059  1.5166 -2.6644
16129TIP3    H269879   1.746   4.205   5.176  1.1363  1.0642  3.2509
16130TIP3   OH269880   3.662   1.937   2.321 -0.1085  0.1222  0.3485
16130TIP3    H169881   3.581   1.892   2.298 -0.9335  1.5645  0.3225
16130TIP3    H269882   3.658   2.019   2.273  1.5854  0.0506  0.0169
16131TIP3   OH269883   2.216   6.117   2.749  0.6315 -0.0153 -0.1712
16131TIP3    H169884   2.195   6.041   2.803  2.2000  0.9606  1.9907
16131TIP3    H269885   2.139   6.129   2.693 -0.6415 -1.7661  1.0804
16132TIP3   OH269886   3.566   3.404  11.073 -0.2644 -0.6499 -0.2731
16132TIP3    H169887   3.593   3.492  11.044  2.0736 -1.1026  0.2715
16132TIP3    H269888   3.566   3.352  10.993  2.3407 -0.9997 -0.1553
16133TIP3   OH269889   2.640   0.840  14.879 -0.1487 -0.1771  0.4514
16133TIP3    H169890   2.687   0.777  14.934  1.2115  2.4691  2.5783
16133TIP3    H269891   2.557   0.854  14.925 -0.1720  0.0635  0.3314
16134TIP3   OH269892   2.660   3.628  14.754  0.2075  0.0702 -0.1827
16134TIP3    H169893   2.700   3.564  14.695 -0.8864 -1.3461  0.5394
16134TIP3    H269894   2.732   3.661  14.807  0.7233 -1.0402 -0.1605
16135TIP3   OH269895   0.198   1.213   5.377  0.3618  0.0076  0.0793
16135TIP3    H169896   0.246   1.275   5.433 -0.7761  0.7471  0.2683
16135TIP3    H269897   0.260   1.142   5.361  1.3554  0.7114  0.7023
16136TIP3   OH269898   0.751   3.682  13.243 -0.1425  0.2484  0.0586
16136TIP3    H169899   0.746   3.599  13.291  1.3650 -0.6457 -1.2009
16136TIP3    H269900   0.670   3.687  13.194  0.4084 -1.3362 -1.0859
16137TIP3   OH269901   5.469   0.008   5.426  0.2426  0.1302 -0.3537
16137TIP3    H169902   5.432   0.095   5.410  3.3240  1.6966  0.2941
16137TIP3    H269903   5.455  -0.039   5.344 -0.6003  1.5729 -1.0866
16138TIP3   OH269904   6.116   2.480  11.870 -0.1554 -0.5028 -0.7333
16138TIP3    H169905   6.169   2.539  11.923 -0.7197 -0.4142 -0.2516
16138TIP3    H269906   6.030   2.522  11.865  0.5528  0.8686 -4.0240
16139TIP3   OH269907   5.502   1.132  13.370 -0.1930 -0.1014 -0.4127
16139TIP3    H169908   5.438   1.062  13.378 -0.9121  0.5272 -0.5511
16139TIP3    H269909   5.457   1.210  13.402 -0.1243  0.7086 -2.1591
16140TIP3   OH269910   6.513   0.540   3.948 -0.1423  0.3749  0.0033
16140TIP3    H169911   6.526   0.595   3.871 -1.1970  2.3057  1.1192
16140TIP3    H269912   6.432   0.492   3.930  0.0632  0.1769 -0.4154
16141TIP3   OH269913   5.136   4.894  17.045 -0.3051  0.2638  0.2044
16141TIP3    H169914   5.075   4.842  17.097 -0.3600 -0.5425 -0.6535
16141TIP3    H269915   5.218   4.891  17.094 -0.5200  0.0252  0.5531
16142TIP3   OH269916   5.694   3.194   1.267  0.4753 -0.2697  0.0044
16142TIP3    H169917   5.744   3.192   1.185  0.4271  0.5936 -0.0486
16142TIP3    H269918   5.751   3.240   1.328  0.3623 -0.6079  0.3671
16143TIP3   OH269919   1.198   4.429   1.091  0.0477  0.2426  0.0551
16143TIP3    H169920   1.182   4.394   1.179 -0.8195 -0.3711 -0.3315
16143TIP3    H269921   1.117   4.473   1.068  0.8410  1.8378  0.1992
16144TIP3   OH269922   4.748   1.813  13.380  0.5240  0.0441  0.0257
16144TIP3    H169923   4.792   1.801  13.296 -0.5503 -0.6807 -0.4513
16144TIP3    H269924   4.784   1.744  13.436  1.9635  1.1284  0.4927
16145TIP3   OH269925   5.234   4.540   5.126 -0.3621 -0.2604 -0.2202
16145TIP3    H169926   5.245   4.464   5.070  0.7212 -0.5762  0.3767
16145TIP3    H269927   5.315   4.590   5.113  0.0057 -0.4514  1.1919
16146TIP3   OH269928   5.650   0.509  11.846  0.3783  0.4015 -0.0588
16146TIP3    H169929   5.702   0.434  11.878 -0.6092 -1.2968 -2.2249
16146TIP3    H269930   5.582   0.520  11.912  0.4842 -0.6930  0.2647
16147TIP3   OH269931   0.435   6.455   0.829  0.0454  0.1759  0.5978
16147TIP3    H169932   0.472   6.490   0.910  0.2152 -1.1474  1.1214
16147TIP3    H269933   0.499   6.476   0.761  0.5516  0.1022  1.0511
16148TIP3   OH269934   5.858   0.022   2.174  0.0861  0.2788 -0.3099
16148TIP3    H169935   5.848  -0.011   2.085  0.3353 -0.7623  0.0352
16148TIP3    H269936   5.791  -0.024   2.224 -0.9530  1.8519 -0.1934
16149TIP3   OH269937   2.396   4.714  15.646  0.0389 -0.4408 -0.2980
16149TIP3    H169938   2.432   4.658  15.576  1.3404  0.6724 -0.5712
16149TIP3    H269939   2.311   4.676  15.665 -1.7410  0.8281 -4.5104
16150TIP3   OH269940   0.713   2.197  10.612  0.2534  0.3312 -0.2624
16150TIP3    H169941   0.726   2.113  10.655  0.3399  0.2634 -0.4217
16150TIP3    H269942   0.627   2.190  10.571 -2.0250  1.9821  3.6601
16151TIP3   OH269943   6.067   6.602   0.569  0.6151 -0.2827 -0.1624
16151TIP3    H169944   6.106   6.527   0.613 -3.2032 -2.6985 -0.4540
16151TIP3    H269945   6.119   6.613   0.489  0.9885 -3.0032 -0.3743
16152TIP3   OH269946   6.044   5.785  16.617 -0.2582  0.2604  0.0291
16152TIP3    H169947   6.077   5.733  16.543 -2.0412 -1.3651  0.3102
16152TIP3    H269948   5.981   5.845  16.578 -2.3032 -1.5827  0.2961
16153TIP3   OH269949   4.901   4.372   1.413 -0.2394 -0.3912  0.5114
16153TIP3    H169950   4.986   4.333   1.431 -0.0630 -0.0854  0.3520
16153TIP3    H269951   4.920   4.448   1.358 -0.6870 -0.7574 -0.1627
16154TIP3   OH269952   0.917   4.576  11.234  0.3581 -0.1478 -0.1531
16154TIP3    H169953   0.942   4.663  11.203  2.9898 -1.2799 -1.4970
16154TIP3    H269954   0.866   4.539  11.162  2.1362 -0.9058 -1.0737
16155TIP3   OH269955   5.730   1.019   1.482  0.6965  0.1908 -0.1031
16155TIP3    H169956   5.685   1.065   1.553 -0.1064 -1.7494  0.7297
16155TIP3    H269957   5.786   0.955   1.527  0.9455 -0.3833 -1.1981
16156TIP3   OH269958   5.542   4.749  10.462 -0.1888 -0.3027  0.0082
16156TIP3    H169959   5.635   4.728  10.470 -0.0739 -0.8147 -2.0693
16156TIP3    H269960   5.497   4.666  10.477 -0.3873  0.1020  1.7907
16157TIP3   OH269961   1.528   5.726   6.359 -0.1198  0.1017  0.3872
16157TIP3    H169962   1.516   5.668   6.434 -1.3248  1.5498  1.3536
16157TIP3    H269963   1.441   5.761   6.341  0.5742  1.6273 -0.1604
16158TIP3   OH269964   0.722   3.265   0.072 -0.8008  0.4485 -0.2582
16158TIP3    H169965   0.657   3.257   0.142 -1.1688 -0.1207 -0.6585
16158TIP3    H269966   0.725   3.178   0.032 -0.0464  0.5636 -0.4759
16159TIP3   OH269967   2.765   4.049   1.635 -0.4604  0.3845 -0.1045
16159TIP3    H169968   2.692   4.014   1.584 -0.4503  0.5965 -0.2670
16159TIP3    H269969   2.770   4.141   1.608  0.8289  0.0167 -1.2048
16160TIP3   OH269970   3.544   3.648   4.619  0.4933  0.6855 -0.1449
16160TIP3    H169971   3.553   3.552   4.620 -1.4176  0.4729  0.7294
16160TIP3    H269972   3.452   3.663   4.637  0.4233  2.6867 -1.8489
16161TIP3   OH269973   1.519   0.836   6.304  0.5899 -0.1628 -0.1455
16161TIP3    H169974   1.518   0.926   6.337  0.8738 -0.7401  1.5056
16161TIP3    H269975   1.608   0.823   6.274  1.9764 -1.2706  3.8265
16162TIP3   OH269976   6.802   5.377   0.433 -0.6101 -0.0422 -0.4005
16162TIP3    H169977   6.776   5.326   0.356 -0.8974  0.8628 -0.9105
16162TIP3    H269978   6.828   5.462   0.398 -1.2699  0.5701  0.5461
16163TIP3   OH269979   4.706   3.560  17.287 -0.1206  0.2940 -0.7610
16163TIP3    H169980   4.725   3.641  17.334 -0.0880 -0.5963  0.8168
16163TIP3    H269981   4.616   3.539  17.310 -0.0720 -0.2164 -1.0248
16164TIP3   OH269982   4.956   6.814  12.767 -0.4434 -0.1425 -0.5854
16164TIP3    H169983   4.958   6.720  12.751 -1.0062 -0.1309 -0.7364
16164TIP3    H269984   5.036   6.832  12.816 -1.8635 -1.2286  2.3673
16165TIP3   OH269985   6.566   3.946   3.017 -0.1511  0.1403 -0.7175
16165TIP3    H169986   6.538   3.980   2.932  0.1411  0.5894 -0.6401
16165TIP3    H269987   6.608   4.020   3.060  1.7082 -0.6535 -1.0774
16166TIP3   OH269988   4.671   5.831  13.782  1.2792  0.2882 -0.1509
16166TIP3    H169989   4.716   5.828  13.698 -0.8250  0.4072 -1.3548
16166TIP3    H269990   4.657   5.924  13.799  2.4402  0.3131  0.7885
16167TIP3   OH269991   0.764   0.968  12.026  0.2371  0.7110  0.4372
16167TIP3    H169992   0.753   0.932  11.938  2.0756  0.4686  0.2700
16167TIP3    H269993   0.746   1.062  12.016 -0.9967  0.4629  0.1311
16168TIP3   OH269994   1.454   3.920  15.252 -0.0957  0.3967 -0.0914
16168TIP3    H169995   1.514   3.926  15.326  0.0547 -1.1998 -0.0398
16168TIP3    H269996   1.442   3.826  15.238 -1.6156  0.6709 -0.9010
16169TIP3   OH269997   0.192   6.590   5.685  0.1205 -0.3133  0.9277
16169TIP3    H169998   0.205   6.501   5.651  0.1731 -0.3717  1.0968
16169TIP3    H269999   0.133   6.631   5.623  0.5499 -0.2794  0.5354
16170TIP3   OH270000   1.346   6.519  12.275  0.2841  0.0267 -0.0854
16170TIP3    H170001   1.366   6.495  12.366 -0.8397  1.0262  0.4509
16170TIP3    H270002   1.256   6.491  12.262 -1.0350  3.5177  0.4965
16171TIP3   OH270003   1.916   6.547  13.298 -0.8017 -0.0600 -0.1425
16171TIP3    H170004   1.898   6.628  13.345 -0.4143  0.9007 -1.5698
16171TIP3    H270005   1.840   6.535  13.240 -0.9156 -0.8031  0.1402
16172TIP3   OH270006   5.304   2.229   0.105  0.6951  0.0983 -0.0401
16172TIP3    H170007   5.224   2.198   0.062 -2.2921  2.2060  3.4256
16172TIP3    H270008   5.367   2.158   0.092 -1.8071 -1.9239 -2.5718
16173TIP3   OH270009   3.913   6.526   5.301 -0.0626  0.5066 -0.2368
16173TIP3    H170010   3.924   6.605   5.353  1.1950  0.5744 -0.5839
16173TIP3    H270011   3.876   6.462   5.362  2.0212  0.3682  0.9881
16174TIP3   OH270012   4.388   3.292   3.258 -0.0434 -0.0021 -0.0798
16174TIP3    H170013   4.477   3.271   3.229  0.5516  2.2210 -0.0679
16174TIP3    H270014   4.348   3.336   3.183 -1.3293 -1.3644 -0.2372
16175TIP3   OH270015   6.234   5.560   1.573  0.5797 -0.4328  0.0815
16175TIP3    H170016   6.264   5.588   1.660  0.3081  1.0966 -0.2958
16175TIP3    H270017   6.223   5.642   1.524 -1.4658 -1.1180 -0.6936
16176TIP3   OH270018   3.490   5.501   1.135  0.2277  0.4126 -0.5443
16176TIP3    H170019   3.445   5.529   1.214 -1.4618  0.8005 -1.5951
16176TIP3    H270020   3.583   5.516   1.153 -0.1658  0.9620  1.1532
16177TIP3   OH270021   6.353   2.539   5.051 -0.1852 -0.0291  0.3382
16177TIP3    H170022   6.362   2.449   5.083 -1.5124 -0.2715  0.0958
16177TIP3    H270023   6.388   2.537   4.962  1.4791  0.1381  0.9597
16178TIP3   OH270024   3.059   2.915  17.231 -0.2541 -0.0147 -0.0157
16178TIP3    H170025   3.087   2.977  17.299 -0.2204 -0.9516  0.8483
16178TIP3    H270026   3.130   2.852  17.225 -0.6927 -0.5030 -0.2106
16179TIP3   OH270027   3.856   2.664  16.463  0.2039  0.8193 -0.1221
16179TIP3    H170028   3.933   2.651  16.407 -0.1549  2.2704 -1.0117
16179TIP3    H270029   3.868   2.751  16.500 -0.8602  0.9392 -0.0372
16180TIP3   OH270030   5.921   1.747  11.456  0.1349  0.2998 -0.1177
16180TIP3    H170031   5.946   1.697  11.533 -0.8954  0.1686  0.1426
16180TIP3    H270032   5.841   1.793  11.482 -2.2309 -2.3367 -2.0678
16181TIP3   OH270033   4.891   2.009   5.817  0.3801 -0.3386 -0.5964
16181TIP3    H170034   4.844   1.963   5.887  0.2750  2.2315  1.1706
16181TIP3    H270035   4.972   2.040   5.858  2.0526 -1.7150 -2.6395
16182TIP3   OH270036   3.427   6.738   0.593 -0.6885 -0.3863  0.0539
16182TIP3    H170037   3.342   6.735   0.637 -0.3097  1.3575  1.0021
16182TIP3    H270038   3.471   6.657   0.620 -2.3737 -1.8074 -1.2516
16183TIP3   OH270039   4.312   3.252   1.669  0.1716 -0.0828 -0.2938
16183TIP3    H170040   4.379   3.307   1.709  0.3888 -1.3593  1.1881
16183TIP3    H270041   4.360   3.196   1.609 -0.0027  1.0399 -1.5270
16184TIP3   OH270042   5.243   1.826   1.111 -0.8963 -0.5424 -0.4581
16184TIP3    H170043   5.313   1.765   1.087 -1.3160 -2.3449  2.4847
16184TIP3    H270044   5.163   1.785   1.079 -0.9330  0.0724 -1.2083
16185TIP3   OH270045   4.014   0.678  17.207  0.4417 -0.0956  0.0536
16185TIP3    H170046   4.039   0.751  17.151 -0.5892 -1.2756 -2.0886
16185TIP3    H270047   3.966   0.619  17.149 -0.2085 -1.6919  2.0866
16186TIP3   OH270048   3.881   1.298   1.131 -0.7192  0.1666 -0.1177
16186TIP3    H170049   3.846   1.276   1.044 -0.4672 -1.8284  0.2284
16186TIP3    H270050   3.955   1.356   1.114 -0.0684 -0.9764 -1.3275
16187TIP3   OH270051   5.183   4.070   5.090  0.5141  0.0240 -0.0235
16187TIP3    H170052   5.135   4.007   5.036 -1.1179  0.2675  1.0593
16187TIP3    H270053   5.121   4.094   5.159  1.5346  1.8837  0.3054
16188TIP3   OH270054   5.898   5.054  12.649 -0.1968 -0.1206  0.5606
16188TIP3    H170055   5.861   5.138  12.674 -1.4829 -0.3402 -0.4849
16188TIP3    H270056   5.824   4.993  12.654  0.4859 -0.9837  0.3281
16189TIP3   OH270057   3.106   5.749  12.554 -0.1976  0.3679 -0.0900
16189TIP3    H170058   3.095   5.736  12.460 -1.3445 -0.0265  0.0857
16189TIP3    H270059   3.046   5.686  12.594 -0.0991  0.8848  0.8980
16190TIP3   OH270060   6.522   4.276  11.089  0.6407  0.1446 -0.1468
16190TIP3    H170061   6.501   4.355  11.138 -2.0504 -0.7521  0.2938
16190TIP3    H270062   6.441   4.254  11.043  0.8009 -3.1132  0.8935
16191TIP3   OH270063   0.210   3.289  13.394  0.5807  0.5333  0.0084
16191TIP3    H170064   0.303   3.307  13.383  0.4449  0.1064 -2.7890
16191TIP3    H270065   0.166   3.364  13.355 -0.1845 -0.0143 -0.2262
16192TIP3   OH270066   1.413   0.038   1.003  0.6219 -0.1150 -0.1490
16192TIP3    H170067   1.507   0.041   0.985  0.3337 -0.2206 -1.8463
16192TIP3    H270068   1.382   0.127   0.984  0.3643 -0.0980  0.3398
16193TIP3   OH270069   2.886   4.238  16.633  0.1913  0.1183 -0.5507
16193TIP3    H170070   2.875   4.317  16.582  2.5690 -0.7482 -2.6099
16193TIP3    H270071   2.800   4.196  16.632 -1.6070  3.2741  1.9680
16194TIP3   OH270072   5.424   1.841   5.201  0.4644  0.0786  0.2769
16194TIP3    H170073   5.399   1.917   5.253 -3.2087 -1.1162  0.5997
16194TIP3    H270074   5.503   1.808   5.242 -0.6267  0.9020  3.2993
16195TIP3   OH270075   1.179   4.560   2.224 -0.5004 -0.1980 -0.4739
16195TIP3    H170076   1.260   4.592   2.184  0.1187 -1.2672 -0.0991
16195TIP3    H270077   1.207   4.500   2.293 -1.5494  1.3005  1.3710
16196TIP3   OH270078   0.326   1.543   5.917 -0.2572  0.2295 -0.2317
16196TIP3    H170079   0.335   1.637   5.929 -1.7745  0.3387  0.2311
16196TIP3    H270080   0.272   1.514   5.990  0.4102 -1.0584 -0.2103
16197TIP3   OH270081   6.283   3.861  14.248  0.2537 -0.0023 -0.0057
16197TIP3    H170082   6.272   3.840  14.155 -0.0985  1.9561 -0.4437
16197TIP3    H270083   6.353   3.925  14.250  0.4646 -0.2532  1.1341
16198TIP3   OH270084   1.981   0.641  12.959  0.3022  0.3933 -0.1869
16198TIP3    H170085   2.055   0.610  12.907 -1.0183  1.1672 -2.6829
16198TIP3    H270086   2.015   0.720  13.003  1.2930  0.0321 -0.2730
16199TIP3   OH270087   5.048   5.029  12.342  0.0044 -0.3866  0.8957
16199TIP3    H170088   4.976   5.092  12.335 -0.0862 -0.5234  0.5525
16199TIP3    H270089   5.109   5.054  12.272  0.2751 -0.2896  1.1645
16200TIP3   OH270090   0.688   6.236  15.088  0.3642  0.1599 -0.3186
16200TIP3    H170091   0.643   6.171  15.034  2.5424 -0.4696 -1.4676
16200TIP3    H270092   0.760   6.268  15.033  1.9494  0.3843  1.7657
16201TIP3   OH270093   5.191   2.704  11.183  0.2546 -0.5050  0.1984
16201TIP3    H170094   5.242   2.623  11.171 -0.8073 -1.1256 -0.2318
16201TIP3    H270095   5.242   2.755  11.246  0.5294 -1.8833  1.1392
16202TIP3   OH270096   1.325   2.847   1.261  0.5528  0.3512 -0.1486
16202TIP3    H170097   1.395   2.837   1.326 -0.3384 -0.2038  0.7467
16202TIP3    H270098   1.246   2.821   1.307 -0.0541 -0.3926 -1.5708
16203TIP3   OH270099   4.409   3.950   2.483  0.0448  0.4266  0.3835
16203TIP3    H170100   4.485   3.960   2.539 -0.3102 -0.5503  1.0749
16203TIP3    H270101   4.445   3.932   2.396  0.6023  0.3017  0.6361
16204TIP3   OH270102   5.337   6.799  12.479  0.0492 -0.1204 -0.2191
16204TIP3    H170103   5.424   6.762  12.464  0.1247  0.7565 -2.2409
16204TIP3    H270104   5.353   6.885  12.517  0.1760  0.5946 -1.7982
16205TIP3   OH270105   1.694   5.234   5.087  0.3597 -0.5346 -0.1614
16205TIP3    H170106   1.759   5.253   5.154 -1.0022 -0.7415  1.2922
16205TIP3    H270107   1.721   5.150   5.050  0.2019 -1.3373  1.4176
16206TIP3   OH270108   3.605   2.747   5.699 -0.0452 -0.3769  0.2139
16206TIP3    H170109   3.566   2.660   5.694 -2.5614  0.7036 -0.6976
16206TIP3    H270110   3.616   2.764   5.792 -2.8269 -0.3671  0.6130
16207TIP3   OH270111   0.086   2.872   6.010 -0.3245  0.1121 -0.2019
16207TIP3    H170112   0.017   2.838   5.952 -1.5500 -0.3765  1.4441
16207TIP3    H270113   0.088   2.810   6.083  1.1134  0.7354  0.3122
16208TIP3   OH270114   2.566   0.340  13.062  0.0544 -0.4370 -0.9082
16208TIP3    H170115   2.616   0.322  13.141 -1.4537 -0.1933  0.1644
16208TIP3    H270116   2.498   0.402  13.091 -0.9699 -0.9022 -2.2164
16209TIP3   OH270117   3.749   4.689  16.529 -0.0223  0.3034 -0.4812
16209TIP3    H170118   3.696   4.723  16.601 -0.7271 -0.2165 -0.7371
16209TIP3    H270119   3.778   4.767  16.481 -0.3307  0.6086 -0.1766
16210TIP3   OH270120   2.722   1.329   0.456 -0.1261  0.4914  0.1164
16210TIP3    H170121   2.655   1.313   0.523  0.2461 -1.9478 -0.0192
16210TIP3    H270122   2.775   1.250   0.455  2.0361  1.8633 -0.6734
16211TIP3   OH270123   1.897   0.861   5.375 -0.0097  0.0266  0.3650
16211TIP3    H170124   1.936   0.881   5.290  0.6215  0.7007  0.8039
16211TIP3    H270125   1.833   0.792   5.356  2.0340 -1.8558 -0.2610
16212TIP3   OH270126   0.908   5.097   3.534 -0.1702  0.2351 -0.4427
16212TIP3    H170127   0.830   5.088   3.479 -0.0700  0.4266 -0.6138
16212TIP3    H270128   0.944   5.183   3.512 -1.2565  1.2158  1.3651
16213TIP3   OH270129   5.946   0.528  14.689 -0.3102 -0.2189  0.1308
16213TIP3    H170130   5.946   0.449  14.635 -0.9979 -0.8072  0.9680
16213TIP3    H270131   6.018   0.581  14.654 -1.1952 -0.2410 -1.8512
16214TIP3   OH270132   0.056   5.957   5.884 -0.1556 -0.7319  0.1155
16214TIP3    H170133   0.121   5.914   5.828 -1.1870 -1.6950 -0.3684
16214TIP3    H270134   0.063   5.913   5.968  0.6478 -0.0038  0.4499
16215TIP3   OH270135   3.816   5.312  14.417  0.4199  0.3007  0.0390
16215TIP3    H170136   3.871   5.287  14.491  2.3326  0.9674 -1.0663
16215TIP3    H270137   3.799   5.231  14.370  1.1127  0.1780 -0.0086
16216TIP3   OH270138   5.355   5.706  12.530 -0.4740 -0.4151  0.3890
16216TIP3    H170139   5.421   5.749  12.585  0.2746 -0.7563 -0.2302
16216TIP3    H270140   5.345   5.619  12.569  0.2343 -0.7431 -0.1455
16217TIP3   OH270141   5.608   2.168  15.460  0.2600 -0.4556  0.0444
16217TIP3    H170142   5.551   2.154  15.384  2.1953 -1.4089 -1.3185
16217TIP3    H270143   5.600   2.262  15.478 -2.4910 -0.7043  0.6145
16218TIP3   OH270144   2.819   6.157   0.105  0.1786 -0.1405 -0.2258
16218TIP3    H170145   2.762   6.128   0.176  2.9512 -2.1628  1.3812
16218TIP3    H270146   2.891   6.201   0.148  0.0886  2.1045 -2.1604
16219TIP3   OH270147   5.540   1.685  14.963  0.0648 -0.3155 -0.3724
16219TIP3    H170148   5.505   1.748  15.026  0.3636 -0.4845 -0.0326
16219TIP3    H270149   5.595   1.627  15.016  1.3024  0.2821 -0.9860
16220TIP3   OH270150   2.332   2.709   2.550  0.1592  0.4954  0.0019
16220TIP3    H170151   2.404   2.715   2.488 -0.2289  0.0923 -0.4893
16220TIP3    H270152   2.358   2.767   2.622  1.2786 -0.1548  0.1468
16221TIP3   OH270153   1.584   0.698  12.397  0.0517 -1.0310  0.4068
16221TIP3    H170154   1.526   0.631  12.360  0.7544 -2.0405  1.0903
16221TIP3    H270155   1.647   0.716  12.327 -1.2735  0.3743 -0.4963
16222TIP3   OH270156   4.718   6.754   3.578 -0.0084 -0.1477  0.0929
16222TIP3    H170157   4.782   6.684   3.574  0.9455  0.6215  1.1886
16222TIP3    H270158   4.695   6.761   3.671  0.2176  1.2315  0.0705
16223TIP3   OH270159   3.003   0.335   2.115 -0.3357 -0.0109 -0.8142
16223TIP3    H170160   2.952   0.388   2.054  0.6553  0.6005 -1.1528
16223TIP3    H270161   3.020   0.254   2.068  1.3627  0.8832 -1.8591
16224TIP3   OH270162   1.153   5.668   0.726 -0.0349  0.4430  0.1343
16224TIP3    H170163   1.228   5.647   0.670  0.0984  0.6474  0.2325
16224TIP3    H270164   1.132   5.759   0.704 -0.5083  0.2571 -0.1830
16225TIP3   OH270165   0.942   1.769  12.102  0.1546  0.3941 -0.1986
16225TIP3    H170166   0.969   1.738  12.189  0.7700  1.2252 -0.0784
16225TIP3    H270167   1.022   1.804  12.063 -0.8330  3.8760  0.5561
16226TIP3   OH270168   1.559   1.174   0.024  0.1236  0.0747 -0.3512
16226TIP3    H170169   1.545   1.105   0.090  1.0632  0.8637  0.7108
16226TIP3    H270170   1.639   1.147  -0.021  1.4035  1.1850  1.1128
16227TIP3   OH270171   3.752   0.221  11.290  0.0312 -0.9104 -0.7845
16227TIP3    H170172   3.699   0.157  11.339 -0.4823 -0.9366 -1.3638
16227TIP3    H270173   3.747   0.191  11.199 -0.0983 -0.1227 -1.0433
16228TIP3   OH270174   1.986   5.413   5.062  0.3746  0.3071 -0.5657
16228TIP3    H170175   2.067   5.464   5.062  0.4513  0.1870 -0.5467
16228TIP3    H270176   2.016   5.322   5.060  0.2465  0.2486  0.0802
16229TIP3   OH270177   3.679   5.337   4.404  0.1286  0.4859  0.0962
16229TIP3    H170178   3.741   5.354   4.333  1.2366 -0.5997  0.7485
16229TIP3    H270179   3.690   5.410   4.464  0.6165  0.4260  0.0854
16230TIP3   OH270180   6.480   3.639   2.639  0.2182  0.2823 -0.1214
16230TIP3    H170181   6.539   3.712   2.660 -0.4116  0.5848  0.6241
16230TIP3    H270182   6.445   3.661   2.553  1.4581 -0.0787 -0.7413
16231TIP3   OH270183   5.129   0.134   1.123  0.5040 -0.2024  0.3592
16231TIP3    H170184   5.073   0.076   1.070  0.7838 -1.8538  1.7840
16231TIP3    H270185   5.073   0.160   1.196  0.8779  0.0713  0.5486
16232TIP3   OH270186   0.332   6.611   1.355 -0.1527  0.2516  0.1656
16232TIP3    H170187   0.306   6.674   1.422 -0.6477  0.6968 -0.4308
16232TIP3    H270188   0.407   6.564   1.393 -1.4001 -0.6121  1.6621
16233TIP3   OH270189   2.667   6.207  13.284  0.3794  0.3623 -0.6870
16233TIP3    H170190   2.711   6.231  13.202 -1.2249  2.3704 -1.0508
16233TIP3    H270191   2.576   6.232  13.270 -0.3220 -0.9740  1.0772
16234TIP3   OH270192   4.607   1.426  15.418  0.6084  0.6443  0.0140
16234TIP3    H170193   4.677   1.433  15.483  0.0633  0.5636  0.6204
16234TIP3    H270194   4.561   1.345  15.440  1.7172 -0.5579 -1.8132
16235TIP3   OH270195   3.080   3.159   1.822 -0.1671  0.0218 -0.0962
16235TIP3    H170196   3.028   3.239   1.822 -1.5511 -0.8490  0.0664
16235TIP3    H270197   3.161   3.183   1.868 -0.0828  1.5981 -1.0157
16236TIP3   OH270198   3.856   1.010  13.622  0.6472  0.2991 -0.1584
16236TIP3    H170199   3.944   1.027  13.654  0.2510  2.9472 -0.1809
16236TIP3    H270200   3.865   1.006  13.527  0.8085  0.1392 -0.1355
16237TIP3   OH270201   3.199   6.209  11.074 -0.3215 -0.6643  0.5810
16237TIP3    H170202   3.122   6.152  11.074 -0.6782 -0.1956  1.1847
16237TIP3    H270203   3.218   6.224  10.982 -0.8593 -0.9140  0.4276
16238TIP3   OH270204   1.661   1.263   5.485 -0.1153  0.1975 -0.0837
16238TIP3    H170205   1.726   1.268   5.555 -0.1236  0.0715 -0.0659
16238TIP3    H270206   1.681   1.336   5.427 -1.3671  1.5910  1.1325
16239TIP3   OH270207   3.446   1.969  16.749 -0.1290 -0.0173  0.2930
16239TIP3    H170208   3.389   2.011  16.684 -0.9287 -1.5174 -0.0159
16239TIP3    H270209   3.515   1.928  16.697  1.4832  2.0153  0.6778
16240TIP3   OH270210   5.094   1.573   2.261  0.4071  0.1032  0.2820
16240TIP3    H170211   5.024   1.584   2.326  0.5477 -0.2018  0.4859
16240TIP3    H270212   5.156   1.643   2.281 -0.5587  1.3540 -0.8544
16241TIP3   OH270213   3.847   2.545   5.020  0.1195 -0.2234 -0.2598
16241TIP3    H170214   3.942   2.545   5.006  0.0404  0.4333 -0.9091
16241TIP3    H270215   3.830   2.467   5.072  1.1896  0.3843  1.0797
16242TIP3   OH270216   3.066   6.729  16.280  0.0477 -0.1596 -0.3846
16242TIP3    H170217   3.043   6.736  16.187  2.6824  1.3440 -1.0288
16242TIP3    H270218   3.107   6.644  16.288  0.3317 -0.0640 -0.7548
16243TIP3   OH270219   0.615   0.497  13.288  0.5907 -0.0600 -0.2615
16243TIP3    H170220   0.614   0.576  13.234  2.0712 -0.6027 -1.1742
16243TIP3    H270221   0.632   0.426  13.226  0.1734 -0.9949  0.6520
16244TIP3   OH270222   0.579   3.787   2.172 -0.2249 -0.2996 -0.4986
16244TIP3    H170223   0.487   3.775   2.198 -0.1039 -1.6379 -0.6156
16244TIP3    H270224   0.590   3.882   2.165 -1.5209 -0.1105 -0.2058
16245TIP3   OH270225   2.671   5.380   3.596  0.0133 -0.1175 -0.3670
16245TIP3    H170226   2.603   5.329   3.638  0.3805 -0.0813  0.2734
16245TIP3    H270227   2.677   5.460   3.648  1.2668 -0.5716  0.2129
16246TIP3   OH270228   2.170   2.238   0.920  0.7774  0.5829  0.6821
16246TIP3    H170229   2.138   2.260   1.008 -0.3337  1.6874  0.0291
16246TIP3    H270230   2.144   2.313   0.866  1.7344  0.0628 -0.5288
16247TIP3   OH270231   3.002   4.470   5.725  0.3463 -0.1722  0.4529
16247TIP3    H170232   3.033   4.381   5.712  0.3841 -0.2683  1.1812
16247TIP3    H270233   2.990   4.505   5.636  2.0408 -0.3014  0.1496
16248TIP3   OH270234   6.192   5.269   2.417  0.3616  0.2808  0.2230
16248TIP3    H170235   6.257   5.227   2.475 -0.2929  2.4351  2.7084
16248TIP3    H270236   6.242   5.332   2.366  0.7469 -0.7397 -0.7040
16249TIP3   OH270237   2.581   4.324   1.467  0.0434  0.1617  0.3098
16249TIP3    H170238   2.660   4.304   1.518  0.0317 -2.2241 -0.4952
16249TIP3    H270239   2.509   4.307   1.527  0.0958  0.1374  0.3662
16250TIP3   OH270240   5.739   6.151   2.752 -0.2123  0.3407 -0.5085
16250TIP3    H170241   5.829   6.144   2.721  0.0128  0.3036  0.1416
16250TIP3    H270242   5.730   6.242   2.779  0.3380 -0.1653  1.5215
16251TIP3   OH270243   6.231   4.497   2.713 -0.4960  0.7961  0.0730
16251TIP3    H170244   6.137   4.482   2.705 -0.2635 -0.7189 -0.0890
16251TIP3    H270245   6.262   4.495   2.622 -0.4004  2.1515  0.0515
16252TIP3   OH270246   3.220   1.320   2.229  0.8963  0.1667  0.4186
16252TIP3    H170247   3.228   1.319   2.324 -0.6243  0.0514  0.5780
16252TIP3    H270248   3.128   1.296   2.212  0.9263  0.9250 -1.0386
16253TIP3   OH270249   2.644   3.059  13.279  0.5905 -0.1323 -0.4815
16253TIP3    H170250   2.579   3.011  13.330  0.6627 -1.7847 -1.8613
16253TIP3    H270251   2.658   3.141  13.328 -1.6278 -0.2595  0.4535
16254TIP3   OH270252   4.099   4.205  12.528 -0.8629 -0.2493  0.2848
16254TIP3    H170253   4.066   4.293  12.543  0.2344  0.0683  0.8727
16254TIP3    H270254   4.054   4.176  12.448 -5.6337 -1.3448  2.9350
16255TIP3   OH270255   2.381   3.482  11.316  0.4948 -0.2815  0.1774
16255TIP3    H170256   2.422   3.428  11.383 -1.1527  0.3905  1.7992
16255TIP3    H270257   2.431   3.564  11.317 -0.0390  0.0407  1.2010
16256TIP3   OH270258   3.941   6.807   1.405 -0.0028 -0.1724 -0.5201
16256TIP3    H170259   4.022   6.768   1.371 -0.8439 -1.6784 -0.8635
16256TIP3    H270260   3.875   6.789   1.338 -0.3924  2.1076 -0.8083
16257TIP3   OH270261   5.502   6.035   3.540  0.2731 -1.6100 -0.1667
16257TIP3    H170262   5.431   6.097   3.525  0.9758 -0.8222 -0.3195
16257TIP3    H270263   5.486   5.964   3.479  0.2245 -0.9057 -0.9884
16258TIP3   OH270264   0.821   0.555   5.846  0.0590 -0.3966  0.0104
16258TIP3    H170265   0.773   0.560   5.764 -1.9454  0.0882  1.1335
16258TIP3    H270266   0.814   0.463   5.873  0.2316 -0.4363 -0.0767
16259TIP3   OH270267   5.477   6.076  12.459 -0.2201 -0.0486 -0.4033
16259TIP3    H170268   5.409   6.058  12.525  0.6408  0.1835  0.5728
16259TIP3    H270269   5.519   5.991  12.444 -1.0207 -0.2924 -1.3717
16260TIP3   OH270270   3.369   5.157   0.051 -0.8638  0.2440 -0.5623
16260TIP3    H170271   3.461   5.140   0.031 -0.5571  1.8858 -0.7522
16260TIP3    H270272   3.369   5.184   0.142 -1.4391 -1.4798 -0.0146
16261TIP3   OH270273   1.072   5.699   4.208 -0.0960 -0.2321  0.0211
16261TIP3    H170274   1.079   5.604   4.207  1.4153 -0.1366 -0.1789
16261TIP3    H270275   1.096   5.726   4.119 -2.7126  0.2475 -0.6385
16262TIP3   OH270276   0.361   1.248   4.638 -0.1826 -0.3673  0.2873
16262TIP3    H170277   0.452   1.249   4.666 -0.6988  0.3229  2.0840
16262TIP3    H270278   0.358   1.181   4.570  1.7403 -0.0899 -0.1354
16263TIP3   OH270279   6.337   2.597  15.570  0.0310 -0.3833 -0.1366
16263TIP3    H170280   6.384   2.681  15.577 -0.2848 -0.3024  1.3851
16263TIP3    H270281   6.403   2.531  15.586 -0.1317 -0.3179  0.8534
16264TIP3   OH270282   2.478   5.243  12.601  0.6290 -0.8134  0.1173
16264TIP3    H170283   2.474   5.159  12.646 -0.5201 -0.7331  0.1984
16264TIP3    H270284   2.406   5.240  12.538 -1.3898  1.2187  2.1285
16265TIP3   OH270285   0.445   2.169   5.203 -0.0357 -0.0403 -0.5699
16265TIP3    H170286   0.368   2.217   5.234 -0.6586 -1.4989  0.2951
16265TIP3    H270287   0.503   2.236   5.168 -0.5211  1.4115  1.2521
16266TIP3   OH270288   6.254   3.053   2.503 -0.1917 -0.4169 -0.1708
16266TIP3    H170289   6.216   3.122   2.449  1.8620 -1.5440 -3.4193
16266TIP3    H270290   6.188   2.983   2.503  0.2598 -0.9577 -2.6588
16267TIP3   OH270291   2.074   6.207  13.371 -0.1394  0.6754  0.2247
16267TIP3    H170292   2.101   6.273  13.307 -1.3728  1.7521  0.7742
16267TIP3    H270293   1.983   6.229  13.391 -0.6378 -1.3254  0.2889
16268TIP3   OH270294   3.410   2.603  16.712 -0.8833 -0.1815 -0.4479
16268TIP3    H170295   3.373   2.676  16.663 -1.1615 -1.1609 -1.7569
16268TIP3    H270296   3.338   2.570  16.765 -0.2416  1.7229  1.7455
16269TIP3   OH270297   4.489   2.196   0.301  0.3985 -0.3745  0.1269
16269TIP3    H170298   4.422   2.170   0.239  1.7886 -0.8801 -1.2115
16269TIP3    H270299   4.542   2.117   0.315  1.1320  0.1845  0.6221
16270TIP3   OH270300   3.025   3.658  13.387 -0.3219 -0.6699  0.1023
16270TIP3    H170301   3.017   3.721  13.315 -0.1380 -0.8941 -0.1181
16270TIP3    H270302   3.003   3.708  13.465 -0.7112 -0.4695 -0.1307
16271TIP3   OH270303   4.739   0.423  16.732 -0.4298 -0.3803 -0.1341
16271TIP3    H170304   4.663   0.478  16.716 -1.4055 -1.6284  0.0393
16271TIP3    H270305   4.724   0.345  16.679 -1.5959 -2.6856  3.2126
16272TIP3   OH270306   4.520   5.260   1.271  0.0171  0.2070 -0.4848
16272TIP3    H170307   4.509   5.177   1.318 -0.8542  0.6855  0.1726
16272TIP3    H270308   4.552   5.234   1.184  0.3220 -0.7725 -0.0905
16273TIP3   OH270309   4.145   2.897  15.387  0.3692  0.5711 -0.5206
16273TIP3    H170310   4.182   2.884  15.475  1.0585 -2.0768 -1.1037
16273TIP3    H270311   4.220   2.917  15.332  0.3329 -0.3031 -0.9124
16274TIP3   OH270312   3.261   2.174  16.060  0.3156 -0.7327 -0.1666
16274TIP3    H170313   3.343   2.126  16.067 -0.0224 -1.2454  0.4492
16274TIP3    H270314   3.269   2.227  15.981  1.9441  0.5557  0.7927
16275TIP3   OH270315   1.510   1.008  16.693  0.3132 -0.1237 -0.4349
16275TIP3    H170316   1.513   1.039  16.602  1.1448  0.4308 -0.2321
16275TIP3    H270317   1.582   0.945  16.699  1.0845  0.7721  0.1469
16276TIP3   OH270318   2.975   1.368  14.204  0.0652  0.4484  0.1004
16276TIP3    H170319   3.023   1.394  14.282  1.0963  0.2264 -0.4366
16276TIP3    H270320   2.929   1.287  14.230  0.9382  0.0024  0.2873
16277TIP3   OH270321   2.311   2.337   1.518  0.1723  0.2363  0.8479
16277TIP3    H170322   2.403   2.364   1.520  0.8356 -1.7982  0.5131
16277TIP3    H270323   2.292   2.325   1.425 -0.6176  1.1262  0.8796
16278TIP3   OH270324   0.388   4.407  13.912 -0.3952 -0.1769  0.1273
16278TIP3    H170325   0.371   4.382  13.821 -1.4845  1.2542 -0.1028
16278TIP3    H270326   0.474   4.449  13.910 -0.0663 -0.8595 -0.0926
16279TIP3   OH270327   2.941   3.251   6.603 -0.2693 -0.2862  0.0606
16279TIP3    H170328   2.976   3.260   6.514  0.4156 -2.2370  0.0803
16279TIP3    H270329   2.854   3.213   6.591 -0.8624  0.9781  0.1853
16280TIP3   OH270330   0.742   4.403  16.121 -0.1379  0.1027 -0.0189
16280TIP3    H170331   0.686   4.461  16.172 -1.6103 -0.1130 -1.3066
16280TIP3    H270332   0.757   4.328  16.178 -0.5162  0.5243  0.6515
16281TIP3   OH270333   4.372   6.244  11.131  0.3573 -0.1857  0.2507
16281TIP3    H170334   4.290   6.292  11.118  0.1596 -0.4292  0.5921
16281TIP3    H270335   4.390   6.205  11.045 -0.0298 -0.3619  0.2450
16282TIP3   OH270336   3.567   0.885  11.910  0.1607 -0.4780  0.2250
16282TIP3    H170337   3.487   0.835  11.928 -0.5335 -0.5499 -2.4867
16282TIP3    H270338   3.629   0.820  11.877  0.3495 -0.0215 -0.3463
16283TIP3   OH270339   2.201   6.433  14.819  0.2114 -0.2984 -0.3426
16283TIP3    H170340   2.122   6.474  14.854  1.8524  0.9206  2.2661
16283TIP3    H270341   2.203   6.346  14.859 -1.8387 -2.0721 -3.7091
16284TIP3   OH270342   3.284   2.957   4.217 -0.8982  0.5550  0.2460
16284TIP3    H170343   3.339   2.884   4.189 -1.3696  0.5768 -0.7838
16284TIP3    H270344   3.337   3.035   4.200 -1.4337  0.6131 -1.2861
16285TIP3   OH270345   0.476   1.283  14.517 -0.5216  0.3359 -0.1174
16285TIP3    H170346   0.435   1.307  14.434 -1.0886  0.2458  0.1260
16285TIP3    H270347   0.419   1.321  14.583 -0.2994  0.0570  0.2361
16286TIP3   OH270348   2.683   3.830   1.428 -0.2517 -0.5512 -0.5668
16286TIP3    H170349   2.694   3.775   1.350 -0.2040  1.0351 -1.7258
16286TIP3    H270350   2.772   3.837   1.464 -0.1813 -0.8383 -0.6768
16287TIP3   OH270351   6.047   1.572  11.815 -0.0579  0.1225  0.0321
16287TIP3    H170352   6.051   1.519  11.735  0.9915  0.3908 -0.1041
16287TIP3    H270353   6.117   1.635  11.805  1.7718 -1.4053  2.2846
16288TIP3   OH270354   1.319   6.448  11.294  0.1128  0.1339 -0.1054
16288TIP3    H170355   1.309   6.424  11.201 -0.5552  1.3516 -0.3654
16288TIP3    H270356   1.260   6.389  11.340  1.9173 -1.8820 -0.1839
16289TIP3   OH270357   6.165   1.673  13.502 -0.2484 -0.1378  0.1782
16289TIP3    H170358   6.075   1.664  13.533 -0.1972  0.5214  0.5342
16289TIP3    H270359   6.200   1.584  13.505 -0.8827 -0.3996  0.0425
16290TIP3   OH270360   2.647   0.439  15.554 -0.2737 -0.2640 -0.0765
16290TIP3    H170361   2.631   0.426  15.461 -1.9116  3.4988 -0.5143
16290TIP3    H270362   2.738   0.412  15.567  0.6416  0.8390 -3.2284
16291TIP3   OH270363   0.275   3.501  15.718  0.4182  0.3723 -0.7816
16291TIP3    H170364   0.198   3.554  15.737  0.2459 -0.2419  0.3578
16291TIP3    H270365   0.349   3.557  15.740  0.2632  0.5305 -0.6653
16292TIP3   OH270366   5.708   5.354   3.349 -1.1373 -0.7557  0.6990
16292TIP3    H170367   5.732   5.387   3.262  1.1701 -0.6226  1.3338
16292TIP3    H270368   5.693   5.433   3.401 -0.1455 -0.7650  1.0200
16293TIP3   OH270369   4.731   5.382  15.588 -0.4314 -0.7883  0.2467
16293TIP3    H170370   4.703   5.292  15.609 -0.7852 -0.5546  0.8022
16293TIP3    H270371   4.763   5.376  15.498 -0.3380 -1.5004  0.3156
16294TIP3   OH270372   5.633   3.794  11.957  0.5274 -0.0263  0.2462
16294TIP3    H170373   5.637   3.880  11.999 -2.1496  0.3383 -0.0953
16294TIP3    H270374   5.568   3.803  11.888 -1.9856 -2.9798  1.9774
16295TIP3   OH270375   3.211   0.074   4.432  0.4104 -0.0153 -0.5859
16295TIP3    H170376   3.195   0.056   4.525 -0.8461 -2.2431 -1.1532
16295TIP3    H270377   3.297   0.115   4.430  2.0421 -2.9529  1.3309
16296TIP3   OH270378   5.832   1.292  17.181 -0.6145 -0.3152  0.3730
16296TIP3    H170379   5.858   1.260  17.095 -0.7378 -0.4324  0.3782
16296TIP3    H270380   5.760   1.352  17.164 -0.4127 -0.0731  0.3689
16297TIP3   OH270381   2.519   2.773   1.814  0.0355 -0.1930  0.1597
16297TIP3    H170382   2.581   2.726   1.869  1.0603  1.3340  0.3665
16297TIP3    H270383   2.519   2.725   1.731  2.3567  0.3774 -0.2331
16298TIP3   OH270384   6.319   3.095   3.495 -0.3995  0.1960  0.0473
16298TIP3    H170385   6.329   3.000   3.486  0.6776  0.1840  1.1615
16298TIP3    H270386   6.283   3.123   3.411 -1.4849 -1.2964 -0.0229
16299TIP3   OH270387   5.663   0.980  17.190 -0.5345  0.1114  0.2961
16299TIP3    H170388   5.751   0.940  17.191  0.0218  1.1384 -1.7341
16299TIP3    H270389   5.605   0.910  17.219  0.6531 -1.5579 -1.0835
16300TIP3   OH270390   2.262   6.176   4.612 -0.5150 -0.4782  0.0545
16300TIP3    H170391   2.248   6.207   4.523 -0.4803 -0.3994  0.0762
16300TIP3    H270392   2.201   6.103   4.622 -0.2178 -0.7635 -0.1780
16301TIP3   OH270393   5.894   0.326   4.899 -0.0910  0.1409 -0.2799
16301TIP3    H170394   5.865   0.243   4.860 -0.1165 -0.8472  1.7354
16301TIP3    H270395   5.849   0.393   4.847 -0.1533 -1.0874 -1.8920
16302TIP3   OH270396   4.345   1.279  11.885 -0.5612  0.0097 -0.2752
16302TIP3    H170397   4.360   1.374  11.884  2.3943 -0.3334  0.2212
16302TIP3    H270398   4.264   1.267  11.934 -0.5260  2.2263  0.4224
16303TIP3   OH270399   4.498   5.300   4.077  0.0542 -0.0419  0.1522
16303TIP3    H170400   4.432   5.233   4.093  1.8068 -2.1253 -0.8355
16303TIP3    H270401   4.509   5.301   3.982  2.4753 -0.8959  0.3437
16304TIP3   OH270402   1.791   1.515   2.758 -0.3447 -0.2707 -0.6011
16304TIP3    H170403   1.827   1.572   2.691  0.7434 -0.4463 -0.1836
16304TIP3    H270404   1.697   1.532   2.756 -0.4209 -0.6929 -2.5529
16305TIP3   OH270405   4.904   5.427   0.542  0.2808  0.0647  0.1564
16305TIP3    H170406   4.844   5.353   0.536 -0.2638  0.4101  1.0960
16305TIP3    H270407   4.986   5.390   0.574  1.1325 -0.6786 -2.6232
16306TIP3   OH270408   6.040   2.546  15.904  0.1657  0.6762 -0.0364
16306TIP3    H170409   6.022   2.635  15.873 -0.5725  1.0149  1.3040
16306TIP3    H270410   6.069   2.499  15.825 -1.8847  1.4167 -1.3090
16307TIP3   OH270411   6.099   1.400   3.641  0.4208  0.4387  0.2675
16307TIP3    H170412   6.030   1.374   3.579 -0.3839 -0.5597  1.5237
16307TIP3    H270413   6.113   1.322   3.694  3.2471  0.2856 -0.5501
16308TIP3   OH270414   5.717   6.534   1.583 -0.1595 -0.4109  0.0144
16308TIP3    H170415   5.705   6.626   1.608  0.3843 -0.1812 -0.5458
16308TIP3    H270416   5.644   6.516   1.523  0.9166  0.3141 -1.5948
16309TIP3   OH270417   4.652   5.510  12.546  0.0277 -0.0437 -0.2955
16309TIP3    H170418   4.684   5.423  12.571  4.0308  0.8982 -1.4063
16309TIP3    H270419   4.630   5.552  12.629  1.0739 -1.0787  0.5530
16310TIP3   OH270420   5.981   5.127  13.712 -0.0890  0.0781 -0.1558
16310TIP3    H170421   5.897   5.084  13.697 -1.3538  2.0385  0.8242
16310TIP3    H270422   5.959   5.205  13.763  2.3959  0.4418  0.4966
16311TIP3   OH270423   2.098   1.279  12.828 -0.3606 -0.2237  0.5830
16311TIP3    H170424   2.172   1.230  12.863  0.4195 -0.2423 -1.0201
16311TIP3    H270425   2.052   1.217  12.772  0.4105  0.6993 -1.1465
16312TIP3   OH270426   6.394   1.306   1.806 -0.5480  0.3139  0.5276
16312TIP3    H170427   6.469   1.365   1.796 -1.4658  1.2669 -1.0346
16312TIP3    H270428   6.336   1.327   1.733 -0.6681 -2.9605 -0.4885
16313TIP3   OH270429   2.484   0.175   4.217  0.5030 -0.6620  0.1287
16313TIP3    H170430   2.468   0.105   4.153  2.0366 -0.9684  0.0349
16313TIP3    H270431   2.579   0.172   4.232  0.4197  0.6012  1.0550
16314TIP3   OH270432   0.257   6.106  13.170  0.2918  0.1258 -0.4580
16314TIP3    H170433   0.308   6.099  13.089  0.8126  0.5367 -0.1754
16314TIP3    H270434   0.312   6.159  13.228 -1.6172  3.0117 -1.0733
16315TIP3   OH270435   5.003   2.894  12.346  0.2471  0.1658 -0.0852
16315TIP3    H170436   5.070   2.954  12.379  0.2805  0.3247 -0.4426
16315TIP3    H270437   4.935   2.951  12.310  0.2151 -0.0083 -0.3046
16316TIP3   OH270438   5.432   6.169  16.692  0.5217  0.1609 -0.2861
16316TIP3    H170439   5.467   6.232  16.755 -1.2069  0.6828  0.1925
16316TIP3    H270440   5.406   6.221  16.617 -1.0606  0.0715  0.1711
16317TIP3   OH270441   3.435   6.247  15.375 -0.0773 -0.1117  0.5795
16317TIP3    H170442   3.412   6.161  15.413 -1.2474  0.2751  0.8119
16317TIP3    H270443   3.384   6.252  15.295 -1.7299  1.2189  1.6378
16318TIP3   OH270444   6.252   4.639  14.168 -0.4592 -0.1945  0.1054
16318TIP3    H170445   6.258   4.728  14.204 -2.3343  0.8073 -1.7953
16318TIP3    H270446   6.265   4.582  14.243  0.0927  1.6958  1.5295
16319TIP3   OH270447   1.136   6.587   4.824 -0.5616  0.3154  0.3683
16319TIP3    H170448   1.185   6.662   4.788 -2.0425  0.1405 -2.2867
16319TIP3    H270449   1.184   6.510   4.792 -0.8571  0.1509  0.3193
16320TIP3   OH270450   2.490   0.211   0.536 -0.5146  0.1618 -0.4383
16320TIP3    H170451   2.406   0.224   0.492 -0.5997  0.9553 -0.0382
16320TIP3    H270452   2.510   0.295   0.577 -0.5979 -0.6540  1.3364
16321TIP3   OH270453   4.661   6.087  13.674 -0.2675  0.5484  0.4423
16321TIP3    H170454   4.756   6.092  13.678 -0.2163  0.4984 -0.4935
16321TIP3    H270455   4.638   6.133  13.593 -1.0111  0.2504  0.4753
16322TIP3   OH270456   6.599   1.467   1.783 -0.7881  0.0514 -0.4322
16322TIP3    H170457   6.659   1.441   1.853 -0.2931 -1.0965 -1.2527
16322TIP3    H270458   6.654   1.515   1.721 -0.5054 -1.6497 -1.5575
16323TIP3   OH270459   3.904   3.455   0.288  0.8502 -0.7748 -0.1270
16323TIP3    H170460   3.838   3.386   0.300  1.0520 -0.9224  0.1532
16323TIP3    H270461   3.988   3.407   0.284  0.8235 -0.7420 -2.0887
16324TIP3   OH270462   5.031   5.281   0.989 -0.2452  0.0275 -0.5556
16324TIP3    H170463   5.112   5.257   1.034  0.0223 -1.6022 -1.8244
16324TIP3    H270464   4.962   5.262   1.052  0.3538  3.2767  1.3015
16325TIP3   OH270465   6.114   3.245   3.235 -0.3783  0.4605  0.0022
16325TIP3    H170466   6.069   3.329   3.239 -1.6821 -0.2126  0.0108
16325TIP3    H270467   6.079   3.203   3.157  1.3429  0.4933 -0.8312
16326TIP3   OH270468   2.776   0.204   0.151 -0.9650 -0.6631 -0.6315
16326TIP3    H170469   2.815   0.222   0.237 -0.6128 -0.7546 -0.7678
16326TIP3    H270470   2.851   0.199   0.092 -1.1923 -0.7882 -0.9119
16327TIP3   OH270471   3.849   1.747   4.527  0.4949 -0.0966  0.1142
16327TIP3    H170472   3.874   1.813   4.592  2.6425 -0.7437  0.0161
16327TIP3    H270473   3.754   1.758   4.517  0.7907  3.1973 -0.1439
16328TIP3   OH270474   5.756   0.976   4.229  0.3306  0.1508 -0.2805
16328TIP3    H170475   5.778   1.018   4.146  1.1979  0.7907  0.2578
16328TIP3    H270476   5.661   0.989   4.237  0.4337  1.2122 -0.5692
16329TIP3   OH270477   1.159   0.584  16.757  0.5880 -1.0598 -0.0943
16329TIP3    H170478   1.207   0.604  16.677 -0.1251 -0.4949 -0.3912
16329TIP3    H270479   1.073   0.556  16.728  0.3129 -0.8311  0.4766
16330TIP3   OH270480   0.465   3.842  16.584  0.2010  0.3110  0.5295
16330TIP3    H170481   0.403   3.900  16.627  0.7665  0.9168  0.5531
16330TIP3    H270482   0.551   3.883  16.600  0.4049  0.8013 -1.5067
16331TIP3   OH270483   4.337   4.322   5.752 -0.1801 -0.4790  0.0313
16331TIP3    H170484   4.354   4.229   5.764 -2.1779 -0.9788 -0.5578
16331TIP3    H270485   4.282   4.327   5.673  0.7780  1.3113 -0.5829
16332TIP3   OH270486   5.699   6.243   4.200  0.2829  0.2692  0.1296
16332TIP3    H170487   5.750   6.166   4.228 -1.3505 -0.6804  0.6665
16332TIP3    H270488   5.668   6.282   4.281 -0.0176  0.7033 -0.1882
16333TIP3   OH270489   4.670   6.630  14.781 -0.3515 -0.2541 -0.3541
16333TIP3    H170490   4.625   6.669  14.856 -1.0203 -2.5124  0.5196
16333TIP3    H270491   4.737   6.574  14.820 -0.5816 -1.3164 -1.4198
16334TIP3   OH270492   5.756   1.281   2.861  0.0159  0.1978 -0.7295
16334TIP3    H170493   5.806   1.332   2.797  0.8744  1.1912  0.6805
16334TIP3    H270494   5.716   1.347   2.918  1.5722 -0.6621  1.4669
16335TIP3   OH270495   1.352   4.660  15.181  0.1492 -0.5856  0.1839
16335TIP3    H170496   1.273   4.606  15.185  0.0846 -0.4215  1.2624
16335TIP3    H270497   1.389   4.655  15.269  0.8141  0.1281 -0.0483
16336TIP3   OH270498   0.576   3.486   0.815  0.3850  0.4919 -1.0665
16336TIP3    H170499   0.555   3.576   0.841 -0.5176  0.4033 -1.4839
16336TIP3    H270500   0.550   3.480   0.723  0.2689 -0.2492 -0.9955
16337TIP3   OH270501   6.673   4.906   4.329  0.3846  0.4271 -0.1040
16337TIP3    H170502   6.683   4.924   4.422  0.9468  0.2940 -0.1356
16337TIP3    H270503   6.578   4.903   4.315  0.2987  0.7563  0.4002
16338TIP3   OH270504   4.378   4.588  15.680 -0.1624  0.0048 -0.0239
16338TIP3    H170505   4.336   4.665  15.717  1.8413  0.7703  0.7322
16338TIP3    H270506   4.375   4.603  15.585 -0.1082  0.8264  0.0980
16339TIP3   OH270507   0.182   2.363  14.527 -0.3906  0.5210 -0.1135
16339TIP3    H170508   0.113   2.412  14.482 -0.7557 -0.6788 -0.9021
16339TIP3    H270509   0.247   2.346  14.459 -0.3680 -0.2567  0.0930
16340TIP3   OH270510   4.265   1.181   3.071  0.5548 -0.0490  0.1775
16340TIP3    H170511   4.358   1.196   3.057  1.0549 -1.3251  1.9028
16340TIP3    H270512   4.236   1.256   3.124  0.7055  0.0876  0.0675
16341TIP3   OH270513   1.693   0.755   0.050  0.2870  0.2107  0.0360
16341TIP3    H170514   1.618   0.698   0.032  0.9893 -0.9640  0.6569
16341TIP3    H270515   1.768   0.704   0.020  0.7843  1.8330 -1.6211
16342TIP3   OH270516   0.719   3.230  15.780  0.1225 -0.3244 -0.2131
16342TIP3    H170517   0.625   3.228  15.799 -0.0349  0.8976 -0.7869
16342TIP3    H270518   0.756   3.284  15.850  0.1978  0.3267 -0.7490
16343TIP3   OH270519   2.040   5.933  16.631 -0.1565  0.5676  0.0189
16343TIP3    H170520   2.005   5.866  16.573 -0.4674  0.3259  0.4883
16343TIP3    H270521   2.002   6.015  16.598 -1.1325  0.3168  0.4918
16344TIP3   OH270522   4.288   1.469   5.050  0.0063 -0.3972 -0.4238
16344TIP3    H170523   4.301   1.543   5.109 -2.5067 -0.0872 -0.1398
16344TIP3    H270524   4.278   1.508   4.963 -1.2288 -0.3879 -0.2876
16345TIP3   OH270525   2.889   5.162   4.845  0.1693 -0.1495 -0.3818
16345TIP3    H170526   2.920   5.234   4.790 -0.3009 -0.6323 -1.2904
16345TIP3    H270527   2.939   5.086   4.816  0.1181 -0.3536  0.0537
16346TIP3   OH270528   1.760   3.783   3.497  0.3714  0.1745  0.2340
16346TIP3    H170529   1.795   3.832   3.423  0.6766  1.2374  1.0474
16346TIP3    H270530   1.837   3.746   3.540  0.1954 -0.4395  0.0316
16347TIP3   OH270531   5.185   5.153  15.222 -0.1677  0.0166 -0.3904
16347TIP3    H170532   5.254   5.185  15.164 -0.5911  0.3504 -0.7167
16347TIP3    H270533   5.219   5.167  15.310  0.5220 -0.5859 -0.5525
16348TIP3   OH270534   6.567   0.791   4.651  0.2603  0.0730 -0.5626
16348TIP3    H170535   6.550   0.768   4.560  0.7725  0.6180 -0.8082
16348TIP3    H270536   6.539   0.882   4.658  1.5295  0.4812 -0.5631
16349TIP3   OH270537   5.424   2.288  16.451 -0.1572  0.1769 -0.1748
16349TIP3    H170538   5.501   2.283  16.395 -0.9177  0.3411 -1.2578
16349TIP3    H270539   5.364   2.221  16.417 -1.3405  1.4464 -0.7056
16350TIP3   OH270540   5.878   5.890   1.749 -0.4590  0.5081 -0.6558
16350TIP3    H170541   5.926   5.960   1.793  1.0079 -0.3420 -0.8754
16350TIP3    H270542   5.840   5.839   1.821 -0.8237  1.0127 -0.4790
16351TIP3   OH270543   3.748   0.366  14.666  0.2319 -0.5427 -0.2778
16351TIP3    H170544   3.796   0.413  14.599  2.0309 -0.4142  1.0293
16351TIP3    H270545   3.660   0.404  14.663  0.6556  0.4136 -1.6237
16352TIP3   OH270546   4.331   1.718   5.168 -0.0422  0.0790  0.5400
16352TIP3    H170547   4.298   1.764   5.245 -0.1023 -1.0442  1.2064
16352TIP3    H270548   4.373   1.786   5.115 -3.0371  1.5585 -0.1778
16353TIP3   OH270549   2.506   0.797   4.996 -0.1601  0.2324  0.0156
16353TIP3    H170550   2.442   0.728   5.016  1.0861 -0.2991  2.6391
16353TIP3    H270551   2.588   0.749   4.984  0.7567  1.1969  2.0236
16354TIP3   OH270552   1.827   0.837   2.339  0.2689  0.2340 -0.3250
16354TIP3    H170553   1.746   0.880   2.310  0.1999  0.6059  0.3983
16354TIP3    H270554   1.864   0.800   2.259 -0.1866  0.7813 -0.8015
16355TIP3   OH270555   6.172   3.569   5.469  0.5415  0.1224 -0.5052
16355TIP3    H170556   6.228   3.595   5.543  0.1813 -0.1909 -0.1223
16355TIP3    H270557   6.131   3.651   5.441 -0.3659  0.0326  0.5137
16356TIP3   OH270558   0.562   3.427   4.121  0.5072  0.2578 -0.2219
16356TIP3    H170559   0.646   3.465   4.092  0.9444  2.2361  3.1186
16356TIP3    H270560   0.544   3.470   4.205 -3.9837  0.0120 -0.8348
16357TIP3   OH270561   5.904   2.775  16.502 -0.2467 -0.6873 -0.3636
16357TIP3    H170562   5.920   2.863  16.536 -0.1976 -0.9955  0.4165
16357TIP3    H270563   5.812   2.757  16.524  0.0867 -1.3076  0.5822
16358TIP3   OH270564   6.778   4.630  17.032 -0.4519 -0.3353 -0.0163
16358TIP3    H170565   6.819   4.694  16.973 -2.0713  0.8784  0.1125
16358TIP3    H270566   6.841   4.621  17.104 -0.7552  2.2661  0.6839
16359TIP3   OH270567   4.364   4.619   0.978 -0.5377  1.0622 -0.0936
16359TIP3    H170568   4.289   4.607   1.037  0.4418  3.6374  1.8413
16359TIP3    H270569   4.396   4.530   0.961 -3.0415  0.0157  0.2690
16360TIP3   OH270570   5.478   0.989  12.115  0.3008  0.1283  0.0279
16360TIP3    H170571   5.501   0.933  12.041  0.0968  2.0825 -1.5799
16360TIP3    H270572   5.511   0.942  12.191  1.1948 -1.6002 -1.3497
16361TIP3   OH270573   5.404   5.037   3.615  0.4358  0.3381  0.8753
16361TIP3    H170574   5.491   5.008   3.642  0.4460  1.1048  1.6778
16361TIP3    H270575   5.353   5.043   3.696 -1.2535 -2.7812  0.2286
16362TIP3   OH270576   5.828   5.408   1.751  0.0127  0.1284  0.7541
16362TIP3    H170577   5.841   5.421   1.845 -0.0134 -0.6474  0.8731
16362TIP3    H270578   5.735   5.391   1.741  0.3571 -2.2976  0.9393
16363TIP3   OH270579   4.341   4.328   1.226  0.4278 -0.5375  0.1896
16363TIP3    H170580   4.409   4.303   1.164 -0.0722 -0.9442 -0.2015
16363TIP3    H270581   4.386   4.332   1.311  0.6400 -2.2380  0.1812
16364TIP3   OH270582   5.515   1.087  14.392  0.5840 -0.3339 -0.2888
16364TIP3    H170583   5.425   1.067  14.367  0.5009  0.4817 -0.6511
16364TIP3    H270584   5.531   1.174  14.358  0.6729  0.6009  1.9376
16365TIP3   OH270585   3.038   5.904  14.936  0.5058  0.3748  0.0967
16365TIP3    H170586   3.005   5.913  15.026  0.5037 -1.1686  0.2800
16365TIP3    H270587   3.074   5.815  14.933  0.7585  0.5099 -1.3582
16366TIP3   OH270588   3.779   0.482  11.328  0.1141  0.6762  0.0994
16366TIP3    H170589   3.846   0.513  11.267 -0.5940  2.5123  0.1898
16366TIP3    H270590   3.773   0.388  11.311  0.8553  0.9154 -1.7306
16367TIP3   OH270591   2.124   6.577   0.792  0.0862  0.0115 -0.1584
16367TIP3    H170592   2.107   6.610   0.703 -0.6078 -1.9152 -0.7841
16367TIP3    H270593   2.156   6.488   0.779 -0.6399 -0.5409  1.5610
16368TIP3   OH270594   5.755   4.163  15.767  0.0398 -0.5004  0.0389
16368TIP3    H170595   5.766   4.112  15.847  0.8100 -0.4808 -0.0471
16368TIP3    H270596   5.839   4.208  15.756  1.0307 -2.6496 -2.2849
16369TIP3   OH270597   5.973   6.403   5.120 -0.2098  0.0146  0.8075
16369TIP3    H170598   5.882   6.374   5.129  0.1403 -1.8082 -0.7326
16369TIP3    H270599   6.024   6.336   5.166  0.3886  0.9228  1.5049
16370TIP3   OH270600   2.427   1.854  12.436 -0.1617 -0.1132  0.7800
16370TIP3    H170601   2.496   1.814  12.383 -0.1193 -1.3955  1.7558
16370TIP3    H270602   2.463   1.856  12.524 -1.2232 -0.4566  1.2356
16371TIP3   OH270603   2.165   0.958   0.372 -0.0724 -0.0095 -0.1319
16371TIP3    H170604   2.235   0.901   0.341 -0.7132 -0.0475 -1.6050
16371TIP3    H270605   2.210   1.037   0.404  0.6284  1.3773 -4.0041
16372TIP3   OH270606   6.325   0.669  16.384 -0.3800 -0.9118 -0.1798
16372TIP3    H170607   6.370   0.724  16.320 -0.9440 -0.2509 -0.0150
16372TIP3    H270608   6.326   0.582  16.345 -1.0882 -0.4362 -1.2970
16373TIP3   OH270609   1.125   1.593   5.820 -0.0881  0.3867 -0.2830
16373TIP3    H170610   1.129   1.660   5.752 -2.6502  1.8156  0.8283
16373TIP3    H270611   1.181   1.626   5.890  2.5071 -1.0600 -1.5418
16374TIP3   OH270612   1.863   1.312   6.255 -0.0005  0.8981 -0.1472
16374TIP3    H170613   1.825   1.395   6.283 -1.8861  0.1126 -0.1803
16374TIP3    H270614   1.837   1.249   6.323  2.9485  0.6029  0.8616
16375TIP3   OH270615   5.366   0.234   1.893 -0.0001  0.0877 -0.0587
16375TIP3    H170616   5.346   0.179   1.817 -1.3692  1.0521 -0.4535
16375TIP3    H270617   5.433   0.295   1.862  2.3996 -2.0101  0.7224
16376TIP3   OH270618   5.129   4.269   5.766 -0.4161 -0.2385 -0.4124
16376TIP3    H170619   5.169   4.356   5.761  1.2451 -0.8254  1.4398
16376TIP3    H270620   5.191   4.212   5.722 -1.1306 -0.6363 -0.9268
16377TIP3   OH270621   0.773   2.153  14.664  0.5849  0.2440  0.1835
16377TIP3    H170622   0.765   2.099  14.743  2.5756 -0.2269  0.1203
16377TIP3    H270623   0.826   2.228  14.693  0.7012  0.4395 -0.5281
16378TIP3   OH270624   0.493   0.611   3.981 -0.5433 -0.1288  0.1336
16378TIP3    H170625   0.573   0.604   4.034 -0.1939  0.4337 -0.3149
16378TIP3    H270626   0.510   0.555   3.905 -0.7687 -0.3822  0.2676
16379TIP3   OH270627   4.387   4.603   4.669 -0.0487 -0.0460  0.4384
16379TIP3    H170628   4.307   4.656   4.669  0.8754  1.4572 -0.7901
16379TIP3    H270629   4.405   4.587   4.576  1.7039  0.6915  0.6084
16380TIP3   OH270630   6.621   3.164  13.810 -0.2479  0.2192 -0.1826
16380TIP3    H170631   6.691   3.224  13.833  1.3919 -1.2452 -1.1225
16380TIP3    H270632   6.558   3.171  13.882  0.3806  2.2246  0.2420
16381TIP3   OH270633   3.205   2.343  10.826  0.1335  0.4241 -0.1656
16381TIP3    H170634   3.259   2.283  10.775 -0.3041 -0.2283  0.1285
16381TIP3    H270635   3.234   2.331  10.916 -0.2049  0.3851 -0.0611
16382TIP3   OH270636   6.566   4.627  16.476 -0.4289  0.2733  0.3986
16382TIP3    H170637   6.528   4.626  16.564  0.5026  1.0777  0.8324
16382TIP3    H270638   6.613   4.544  16.469 -0.0531  0.4395  0.8809
16383TIP3   OH270639   4.212   1.092   4.676  0.3471  0.1445 -0.3737
16383TIP3    H170640   4.273   1.018   4.676 -0.8434 -0.8620 -1.1581
16383TIP3    H270641   4.208   1.120   4.585 -1.8938 -1.1233 -0.7238
16384TIP3   OH270642   4.597   2.402   5.528 -0.2179  0.8008 -0.4056
16384TIP3    H170643   4.516   2.424   5.574 -0.3650  1.4152 -0.9414
16384TIP3    H270644   4.623   2.318   5.565 -1.7620 -0.0142 -1.0566
16385TIP3   OH270645   5.955   3.277  14.431 -0.4164  0.4363  0.4257
16385TIP3    H170646   5.987   3.215  14.366 -0.1692  0.4142  0.5686
16385TIP3    H270647   5.866   3.248  14.451 -0.4944  0.4442  0.0965
16386TIP3   OH270648   5.736   4.026  11.438 -0.1809  0.5799  0.6767
16386TIP3    H170649   5.717   4.087  11.509 -1.7240  0.4967  0.3581
16386TIP3    H270650   5.775   4.080  11.370 -1.7747  1.2988  0.2929
16387TIP3   OH270651   0.285   3.267  11.155 -0.0012  0.0600  0.5215
16387TIP3    H170652   0.362   3.317  11.131  1.3493 -1.7245  0.9531
16387TIP3    H270653   0.314   3.209  11.225 -1.9664 -0.0447  1.3147
16388TIP3   OH270654   4.181   1.970   4.872 -0.7344  0.2487 -0.3971
16388TIP3    H170655   4.223   1.903   4.818 -2.8974 -1.3220 -0.2735
16388TIP3    H270656   4.244   1.988   4.942  1.4304  1.1289 -2.4345
16389TIP3   OH270657   4.155   2.509   6.213  0.1204 -0.3066 -0.2573
16389TIP3    H170658   4.169   2.531   6.305  3.0404 -1.7991 -0.2110
16389TIP3    H270659   4.172   2.590   6.166 -0.1463  0.1655  0.4372
16390TIP3   OH270660   3.548   1.886  13.851  0.1396 -0.3235  0.5702
16390TIP3    H170661   3.529   1.923  13.937  0.0731  0.3925  0.2508
16390TIP3    H270662   3.463   1.880  13.808  0.0154 -1.7133  0.9394
16391TIP3   OH270663   1.783   5.788   5.852  0.3289  0.1744  0.2714
16391TIP3    H170664   1.788   5.722   5.921  0.3766  0.7760  0.8645
16391TIP3    H270665   1.700   5.833   5.869 -0.0800 -0.2329 -0.5984
16392TIP3   OH270666   4.962   6.417  10.535 -0.5431 -0.6116 -0.8410
16392TIP3    H170667   4.970   6.443  10.443  0.0157 -1.1054 -0.9301
16392TIP3    H270668   4.901   6.344  10.534  0.1487 -1.1948 -0.9250
16393TIP3   OH270669   4.919   4.534   2.654 -0.4565  0.3319  0.9908
16393TIP3    H170670   4.830   4.507   2.632 -0.4724  1.3022 -0.2484
16393TIP3    H270671   4.975   4.481   2.597 -0.5087  3.0848 -1.8819
16394TIP3   OH270672   0.014   0.734   4.326 -0.2110  0.4642  0.0276
16394TIP3    H170673   0.039   0.816   4.368 -1.2286  1.0243 -0.4318
16394TIP3    H270674  -0.008   0.675   4.398  0.3010  0.6689  0.3508
16395TIP3   OH270675   6.606   1.151   0.303  0.9543  0.3513 -0.3559
16395TIP3    H170676   6.514   1.129   0.288  0.7394  0.5496  0.6477
16395TIP3    H270677   6.605   1.244   0.326  1.1864 -0.1009  1.5903
16396TIP3   OH270678   4.556   5.004  16.715  0.3734  0.2050 -0.5973
16396TIP3    H170679   4.548   4.910  16.698  1.8906 -0.2501  0.9224
16396TIP3    H270680   4.484   5.023  16.775  1.8213 -0.7168  1.5559
16397TIP3   OH270681   3.015   0.541   5.509 -0.6670  0.3745  0.6437
16397TIP3    H170682   3.007   0.582   5.595 -2.0014  0.1605  0.6512
16397TIP3    H270683   2.954   0.467   5.512 -2.9720  1.9923 -1.3948
16398TIP3   OH270684   1.136   6.101  15.620  0.2793  0.4108 -0.2535
16398TIP3    H170685   1.123   6.058  15.535 -1.4810  1.1804 -0.4094
16398TIP3    H270686   1.228   6.130  15.618  0.6889 -0.8397 -1.2716
16399TIP3   OH270687   4.480   0.678   1.429 -0.6846 -0.3715  0.4301
16399TIP3    H170688   4.411   0.615   1.446 -1.3841 -0.0418 -0.9806
16399TIP3    H270689   4.435   0.753   1.389  0.1957  0.8086  1.5690
16400TIP3   OH270690   5.072   1.279  11.063  0.3507 -0.4535  0.0539
16400TIP3    H170691   5.156   1.243  11.093  0.6158 -1.0561 -1.3507
16400TIP3    H270692   5.086   1.301  10.971 -1.2864 -1.4619 -0.4818
16401TIP3   OH270693   4.590   3.144  16.927  0.1435  0.1285  0.5477
16401TIP3    H170694   4.575   3.210  16.860 -0.3650 -0.0700  0.4618
16401TIP3    H270695   4.624   3.193  17.002  1.5863  0.2366 -0.1408
16402TIP3   OH270696   3.707   0.056  12.245 -0.2810  0.1965 -0.4129
16402TIP3    H170697   3.626   0.011  12.222 -0.6755 -0.3027  1.7973
16402TIP3    H270698   3.687   0.149  12.234 -0.5729  0.0115 -1.5676
16403TIP3   OH270699   5.594   0.606   4.404  0.4173 -0.2574  0.1480
16403TIP3    H170700   5.644   0.688   4.397 -0.1407  0.2093  1.4059
16403TIP3    H270701   5.541   0.604   4.324  1.0581  0.1768 -0.2982
16404TIP3   OH270702   4.149   2.635  11.576 -0.2771 -0.5172 -0.3503
16404TIP3    H170703   4.118   2.717  11.537 -1.4953  0.1188  1.7756
16404TIP3    H270704   4.132   2.569  11.509 -0.6949  0.7415 -1.5328
16405TIP3   OH270705   3.049   3.486   1.276 -0.2251  0.6873 -0.3348
16405TIP3    H170706   3.039   3.392   1.266  0.7483  0.4359  0.8240
16405TIP3    H270707   3.003   3.523   1.201 -3.0245 -0.5856  0.6292
16406TIP3   OH270708   2.998   2.793  12.023 -0.3577  0.1035 -0.7016
16406TIP3    H170709   3.004   2.743  11.941 -1.4481 -1.4528  0.1285
16406TIP3    H270710   2.930   2.858  12.007 -0.4053 -0.0407 -1.0945
16407TIP3   OH270711   1.577   4.715   3.624  0.6586  0.8090  0.6082
16407TIP3    H170712   1.666   4.680   3.633  0.0949 -1.4000 -1.2078
16407TIP3    H270713   1.523   4.655   3.675  0.0649  1.3044  0.5616
16408TIP3   OH270714   0.040   3.195  12.562  0.0998  0.8945  0.2001
16408TIP3    H170715   0.035   3.246  12.642 -0.3558 -0.8844  1.3557
16408TIP3    H270716   0.130   3.208  12.531  0.5860  0.8412  1.5270
16409TIP3   OH270717   1.277   5.998   3.048  0.3670 -0.3542 -0.4624
16409TIP3    H170718   1.205   5.973   3.107  0.3721 -0.2870 -0.4281
16409TIP3    H270719   1.259   6.089   3.026  0.5560 -0.2748 -0.2893
16410TIP3   OH270720   3.460   2.367   6.071 -0.1554  0.1504 -0.1342
16410TIP3    H170721   3.417   2.362   5.985 -0.1541  1.5583 -0.2469
16410TIP3    H270722   3.459   2.460   6.092  1.8871  0.1205  0.3375
16411TIP3   OH270723   1.724   2.280   3.980 -0.0786 -0.1369  0.1806
16411TIP3    H170724   1.684   2.193   3.975 -2.5853  0.9925 -2.4706
16411TIP3    H270725   1.770   2.290   3.896 -1.7383  1.8365 -0.5831
16412TIP3   OH270726   4.754   3.958   1.178  0.1456 -0.0942 -0.1133
16412TIP3    H170727   4.839   3.938   1.217  1.3283  0.9678 -1.9988
16412TIP3    H270728   4.739   4.050   1.199 -0.7973 -0.4184  0.6545
16413TIP3   OH270729   0.427   5.770  14.952 -0.2773  0.2622 -0.0725
16413TIP3    H170730   0.467   5.751  15.037 -0.1959  0.6919 -0.0109
16413TIP3    H270731   0.501   5.789  14.895 -0.3921  1.0921  0.0489
16414TIP3   OH270732   2.416   3.261   0.486  0.4242 -0.1624  0.0549
16414TIP3    H170733   2.440   3.175   0.453  2.2743  0.4122 -0.2457
16414TIP3    H270734   2.323   3.270   0.466  0.0963 -2.2045  0.4283
16415TIP3   OH270735   4.790   3.169   3.385  0.6737  0.0947  0.2645
16415TIP3    H170736   4.815   3.086   3.345 -0.7691 -0.6810  0.9041
16415TIP3    H270737   4.873   3.208   3.412  1.6588  0.3385 -2.7736
16416TIP3   OH270738   4.273   3.880  13.528 -0.1090 -0.3290 -0.7009
16416TIP3    H170739   4.281   3.785  13.534  0.4241 -0.2073  1.0645
16416TIP3    H270740   4.209   3.903  13.595  0.1685  0.6123 -0.7425
16417TIP3   OH270741   5.334   1.956   6.073 -0.4791  0.3678 -0.3306
16417TIP3    H170742   5.305   2.046   6.077  0.1998  0.5539  1.0792
16417TIP3    H270743   5.350   1.931   6.164  0.2337 -0.8712 -0.7595
16418TIP3   OH270744   3.318   4.997   2.667 -0.5283 -0.1843  0.5410
16418TIP3    H170745   3.379   4.986   2.595 -0.8241 -3.3023  0.6095
16418TIP3    H270746   3.372   4.986   2.746 -0.9692 -2.1492  0.6154
16419TIP3   OH270747   2.286   4.188  10.146 -0.2131  0.0089  0.2192
16419TIP3    H170748   2.371   4.219  10.177  0.3200 -1.2654  0.0752
16419TIP3    H270749   2.224   4.220  10.212  0.5892 -0.4830  1.2457
16420TIP3   OH270750   2.661   4.825   1.274  0.1249 -0.3459 -0.3169
16420TIP3    H170751   2.725   4.811   1.344 -0.5192  0.3057  0.4077
16420TIP3    H270752   2.684   4.910   1.237 -0.7023  0.1985  0.3777
16421TIP3   OH270753   3.023   5.967   5.012 -0.1869 -0.2148 -0.0750
16421TIP3    H170754   3.070   5.985   4.931 -0.5061 -0.3347 -0.2859
16421TIP3    H270755   2.954   5.906   4.988 -1.6740  1.4145 -0.1640
16422TIP3   OH270756   4.797   1.294  14.691 -0.3946 -0.0357  0.6350
16422TIP3    H170757   4.847   1.212  14.700 -0.4936 -0.0926  0.6660
16422TIP3    H270758   4.711   1.266  14.661 -0.4812  0.0448  0.8083
16423TIP3   OH270759   6.503   5.394  11.372  0.0062 -0.2222  0.1687
16423TIP3    H170760   6.483   5.483  11.343 -0.7902 -0.7390 -0.9298
16423TIP3    H270761   6.458   5.337  11.310 -0.5165 -1.4067  1.5601
16424TIP3   OH270762   6.077   3.616  15.908 -0.1129 -0.1277  0.1141
16424TIP3    H170763   6.122   3.677  15.967  0.6743  1.6956 -2.2085
16424TIP3    H270764   5.987   3.614  15.941  0.3236  0.7195  1.4575
16425TIP3   OH270765   1.276   6.034   1.169  0.0810 -0.3866 -0.6373
16425TIP3    H170766   1.316   6.039   1.256  0.5776  1.6230 -0.9292
16425TIP3    H270767   1.344   5.997   1.113  0.6718  0.6647 -0.6366
16426TIP3   OH270768   0.311   5.058   0.289 -0.1701 -0.4612 -0.3881
16426TIP3    H170769   0.231   5.006   0.290  0.0457 -0.7963  1.0607
16426TIP3    H270770   0.307   5.110   0.369  0.2197  0.8393 -1.1834
16427TIP3   OH270771   0.081   6.795  10.885 -0.0216 -0.2815  0.0195
16427TIP3    H170772  -0.006   6.794  10.923 -0.5073  0.0813 -1.0434
16427TIP3    H270773   0.115   6.883  10.905  0.7260 -0.9291  1.7517
16428TIP3   OH270774   5.790   4.854  11.400  0.3007  0.0384  0.1103
16428TIP3    H170775   5.796   4.769  11.443  1.2249 -1.3348 -2.5552
16428TIP3    H270776   5.697   4.865  11.381  0.0846 -0.0076  1.0783
16429TIP3   OH270777   1.276   3.041   3.359 -0.2020  0.1349  0.4330
16429TIP3    H170778   1.368   3.033   3.334 -0.4281 -0.6996 -0.1763
16429TIP3    H270779   1.270   2.996   3.443  0.2310  1.5134  1.2364
16430TIP3   OH270780   2.321   5.230   2.239 -0.6647  0.2125  0.3889
16430TIP3    H170781   2.266   5.263   2.310  0.3453 -0.1914  1.3880
16430TIP3    H270782   2.291   5.278   2.162 -1.1797  1.3303  1.2535
16431TIP3   OH270783   1.695   3.249   1.039  0.5581  0.1972  0.5256
16431TIP3    H170784   1.762   3.315   1.021 -1.5316  2.9620  1.9566
16431TIP3    H270785   1.730   3.198   1.112  0.4356  2.9724  2.6961
16432TIP3   OH270786   1.987   5.896   6.676  0.0504 -0.1852  0.0213
16432TIP3    H170787   1.893   5.908   6.690  0.2793  1.1664  0.6191
16432TIP3    H270788   2.028   5.945   6.747  1.2098 -0.1952 -0.6087
16433TIP3   OH270789   2.660   4.777  13.781  0.1496  0.5042  0.6818
16433TIP3    H170790   2.745   4.763  13.822  0.2342  0.1548  0.3988
16433TIP3    H270791   2.604   4.708  13.817  0.3253 -0.0399 -0.0571
16434TIP3   OH270792   4.644   1.058  11.557  0.0084  0.1558  0.6344
16434TIP3    H170793   4.569   1.091  11.606 -0.2296  0.3421  0.1539
16434TIP3    H270794   4.715   1.118  11.578 -0.4759  1.1279 -0.4019
16435TIP3   OH270795   2.250   1.010  12.377  0.0745 -0.4944 -0.1258
16435TIP3    H170796   2.251   1.104  12.395 -0.2280 -0.1440 -1.7290
16435TIP3    H270797   2.236   1.005  12.282 -1.5993 -2.1720  0.1497
16436TIP3   OH270798   2.921   2.597  13.009  0.6322 -0.7173  0.0997
16436TIP3    H170799   2.981   2.578  13.081  0.6387 -2.0857 -0.2328
16436TIP3    H270800   2.874   2.515  12.995 -0.9848  0.1861  0.0272
16437TIP3   OH270801   0.449   4.281  14.620 -0.2067 -0.4257 -0.4733
16437TIP3    H170802   0.367   4.302  14.575 -0.3670  1.1318  0.4858
16437TIP3    H270803   0.466   4.356  14.676  1.9269 -0.6899 -0.6834
16438TIP3   OH270804   6.151   1.040  17.162 -0.0069 -0.1323  0.3399
16438TIP3    H170805   6.236   1.042  17.206 -0.3483 -0.0229  1.0092
16438TIP3    H270806   6.163   1.092  17.083  0.6159 -0.3273  0.3056
16439TIP3   OH270807   6.449   2.796  11.809  0.0436 -0.1165 -0.2771
16439TIP3    H170808   6.501   2.849  11.868  0.6868  0.2115 -1.1184
16439TIP3    H270809   6.371   2.849  11.790 -0.3628 -0.3918  0.5699
16440TIP3   OH270810   4.497   5.712  14.650 -0.7138  0.0639 -0.0699
16440TIP3    H170811   4.582   5.687  14.614 -0.0907  0.8230  0.8248
16440TIP3    H270812   4.500   5.808  14.655 -1.2194  0.0488  0.9046
16441TIP3   OH270813   6.186   2.309   5.732  0.3640 -0.5540  0.2814
16441TIP3    H170814   6.263   2.253   5.732  1.1128  0.4407  0.8714
16441TIP3    H270815   6.213   2.389   5.778 -0.6307  0.3531 -0.6154
16442TIP3   OH270816   1.368   1.592  15.397  0.4296 -0.0733  0.3470
16442TIP3    H170817   1.450   1.561  15.358 -1.1228 -2.0805 -1.6056
16442TIP3    H270818   1.340   1.663  15.340  0.1214 -0.3379  0.1670
16443TIP3   OH270819   4.203   6.193   4.173 -0.4288  0.6857  0.3460
16443TIP3    H170820   4.283   6.241   4.194 -0.0036 -0.2756  0.9833
16443TIP3    H270821   4.207   6.181   4.078  1.7982 -2.0625  0.6785
16444TIP3   OH270822   1.478   3.023   6.254  0.2017  0.6022  0.2646
16444TIP3    H170823   1.415   2.952   6.249 -0.1204  0.8752  0.4294
16444TIP3    H270824   1.430   3.095   6.294  0.7516  0.6586  0.8338
16445TIP3   OH270825   4.623   1.672  13.785 -0.2290 -0.9597  0.3280
16445TIP3    H170826   4.627   1.762  13.753 -1.9352 -0.5779  1.0625
16445TIP3    H270827   4.604   1.681  13.878  0.8193 -2.0834  0.6730
16446TIP3   OH270828   3.370   3.209  12.843 -0.6099 -0.2200  0.3061
16446TIP3    H170829   3.330   3.234  12.927 -0.2321 -2.5806  1.2711
16446TIP3    H270830   3.308   3.147  12.805 -0.0748 -0.2848 -0.4774
16447TIP3   OH270831   1.846   6.039   5.196 -0.2283 -0.1925 -0.5819
16447TIP3    H170832   1.854   5.955   5.152  1.0268 -0.7526  0.6369
16447TIP3    H270833   1.908   6.096   5.150  0.4763 -0.5434 -0.0786
16448TIP3   OH270834   3.613   1.805  11.272 -0.4832 -0.3820 -0.0513
16448TIP3    H170835   3.693   1.851  11.297  0.9698 -1.5819 -2.2332
16448TIP3    H270836   3.562   1.871  11.224 -0.6114  0.2376  0.9042
16449TIP3   OH270837   0.230   6.717   0.895 -0.4964 -0.2786  0.5261
16449TIP3    H170838   0.281   6.755   0.966  1.3145 -1.5133 -0.0396
16449TIP3    H270839   0.295   6.673   0.840 -2.2893 -3.0048  0.4180
16450TIP3   OH270840   3.165   4.986   4.199  0.1158 -0.5693  0.0989
16450TIP3    H170841   3.202   5.068   4.232  0.6758 -0.9342  0.3863
16450TIP3    H270842   3.185   4.987   4.105 -0.9437  0.1806 -0.1440
16451TIP3   OH270843   0.479   3.027   2.833  0.1557 -0.1245  0.1898
16451TIP3    H170844   0.515   3.035   2.745  0.7521 -0.2685  0.4195
16451TIP3    H270845   0.495   3.113   2.873  1.4232 -0.5927  0.7283
16452TIP3   OH270846   1.977   6.254  16.858 -0.1040  0.7131  0.3541
16452TIP3    H170847   1.941   6.201  16.929 -0.0701  1.9827  1.3527
16452TIP3    H270848   1.908   6.256  16.792 -0.2403 -0.2624  0.4525
16453TIP3   OH270849   3.406   1.435   2.623  0.4885 -0.7360 -0.4348
16453TIP3    H170850   3.409   1.480   2.539 -1.0255 -1.9035 -1.1559
16453TIP3    H270851   3.398   1.506   2.687 -0.8789  0.1130 -1.4721
16454TIP3   OH270852   3.093   3.534  13.624 -0.4441 -0.0342 -0.3936
16454TIP3    H170853   3.170   3.480  13.607  0.3861  0.8694  0.3828
16454TIP3    H270854   3.072   3.574  13.539  1.0665  1.1278 -0.2595
16455TIP3   OH270855   1.455   2.200  12.492  0.3701  0.6956  0.1079
16455TIP3    H170856   1.536   2.164  12.530 -0.4007 -1.2461  0.0174
16455TIP3    H270857   1.471   2.199  12.398  0.2734  0.3620  0.0928
16456TIP3   OH270858   3.638   1.892   6.367 -0.1768  0.4591 -0.3591
16456TIP3    H170859   3.675   1.809   6.337 -0.1476 -0.4063  1.9119
16456TIP3    H270860   3.712   1.943   6.399 -0.4015  0.6658 -0.1565
16457TIP3   OH270861   4.645   2.879  12.308  0.1332  0.0190 -0.4853
16457TIP3    H170862   4.702   2.815  12.351  0.6986 -0.0432 -1.3035
16457TIP3    H270863   4.692   2.962  12.316 -1.1638  0.6122  1.6603
16458TIP3   OH270864   2.103   3.181  13.628 -0.0124  0.1246 -0.0472
16458TIP3    H170865   2.101   3.265  13.673 -1.9935  0.8055 -1.2629
16458TIP3    H270866   2.054   3.122  13.685  0.1146  0.1775  0.1180
16459TIP3   OH270867   5.886   0.305   5.589  0.1176  0.0974  0.4172
16459TIP3    H170868   5.893   0.388   5.637  1.2121 -0.4283  1.2217
16459TIP3    H270869   5.913   0.239   5.653 -3.4025 -1.2354  0.7308
16460TIP3   OH270870   2.299   1.055   6.428 -0.0329  0.1923  0.3391
16460TIP3    H170871   2.204   1.047   6.419 -0.0399  1.2927 -0.8054
16460TIP3    H270872   2.311   1.118   6.498 -0.1283 -0.3754  0.8751
16461TIP3   OH270873   5.177   2.889  11.882 -0.1004 -0.0435  0.3284
16461TIP3    H170874   5.184   2.883  11.977  1.4429 -1.1143  0.1770
16461TIP3    H270875   5.089   2.856  11.862 -1.5130  2.6489  1.5168
16462TIP3   OH270876   1.862   0.476  16.686 -0.1096  0.0580 -0.7503
16462TIP3    H170877   1.776   0.443  16.710 -0.0433  0.4555  0.0579
16462TIP3    H270878   1.863   0.567  16.717  1.1458 -0.3975  0.6710
16463TIP3   OH270879   0.240   3.711  16.217  0.1031  0.6009 -0.2158
16463TIP3    H170880   0.291   3.746  16.144  0.3707 -1.6193 -1.1713
16463TIP3    H270881   0.176   3.652  16.176  0.9519 -1.5593  1.3425
16464TIP3   OH270882   0.526   2.280  11.957  0.4747  0.3412  0.0643
16464TIP3    H170883   0.477   2.353  11.996 -1.0249 -0.4117 -0.3400
16464TIP3    H270884   0.610   2.281  12.002 -0.4505  0.7531  1.8627
16465TIP3   OH270885   0.436   2.555  14.671 -0.0162  0.0453 -0.0776
16465TIP3    H170886   0.392   2.481  14.630  2.9842 -1.2795 -1.1320
16465TIP3    H270887   0.460   2.523  14.758 -0.5621  0.5669  0.2762
16466TIP3   OH270888   4.926   5.480   4.863 -0.1198  0.2969 -0.3127
16466TIP3    H170889   4.987   5.495   4.792  0.7762 -1.5655  0.0060
16466TIP3    H270890   4.856   5.545   4.849  0.2797  0.3144 -2.5614
16467TIP3   OH270891   4.649   6.294   0.095 -0.5306  1.0452  0.1465
16467TIP3    H170892   4.679   6.273   0.184 -0.6479  1.1347  0.2076
16467TIP3    H270893   4.615   6.383   0.102  0.1825  1.3506 -0.1624
16468TIP3   OH270894   4.937   4.435  14.428  0.4357 -0.7586 -0.0249
16468TIP3    H170895   4.987   4.407  14.352  1.3005 -0.4058  0.4027
16468TIP3    H270896   4.979   4.517  14.456 -0.4357 -0.4014  0.2917
16469TIP3   OH270897   1.329   1.067  12.691  0.0107 -0.1228  0.1489
16469TIP3    H170898   1.393   1.030  12.631 -2.2809 -1.7138 -1.4823
16469TIP3    H270899   1.312   0.998  12.755 -1.7420 -0.6811 -0.8494
16470TIP3   OH270900   0.918   1.443  15.643 -0.4068  0.0421  0.3775
16470TIP3    H170901   0.930   1.348  15.652 -1.6276 -0.1876 -0.2683
16470TIP3    H270902   0.981   1.468  15.574  1.3044  0.0584  1.8707
16471TIP3   OH270903   6.137   6.821   3.911 -0.1363 -0.6300  0.3199
16471TIP3    H170904   6.135   6.877   3.989 -1.8124 -0.4038  0.1598
16471TIP3    H270905   6.214   6.851   3.862  1.0385 -0.8821  1.9360
16472TIP3   OH270906   3.914   3.206  12.219 -0.1714  0.2100  0.2481
16472TIP3    H170907   3.917   3.299  12.200 -0.6488  0.2816  0.5044
16472TIP3    H270908   3.900   3.201  12.314 -0.1420 -0.1242  0.2389
16473TIP3   OH270909   3.267   3.905   1.240  0.2719  0.0056  0.0533
16473TIP3    H170910   3.306   3.993   1.242 -0.6240  0.5080 -1.8450
16473TIP3    H270911   3.175   3.920   1.219 -0.2353 -1.3307  1.2080
16474TIP3   OH270912   2.208   5.682  15.807 -0.0564 -0.5078 -0.3386
16474TIP3    H170913   2.121   5.675  15.766  0.1317 -0.2949 -0.7812
16474TIP3    H270914   2.211   5.609  15.869 -0.0984 -1.2591 -1.1910
16475TIP3   OH270915   6.015   2.426   0.967  0.2286  0.2714  0.0489
16475TIP3    H170916   5.985   2.345   1.007  0.4417  0.2280  0.1249
16475TIP3    H270917   6.044   2.480   1.040  0.4906  0.2459 -0.0355
16476TIP3   OH270918   1.012   3.211  17.176  0.3092  0.0178  0.1229
16476TIP3    H170919   1.045   3.283  17.230 -0.2714 -0.4138  1.0904
16476TIP3    H270920   1.090   3.161  17.153  0.7385  0.9956 -0.6642
16477TIP3   OH270921   2.160   4.585   4.015 -0.3563  0.2094 -0.5702
16477TIP3    H170922   2.210   4.534   3.952  0.3634 -0.5364  0.5595
16477TIP3    H270923   2.192   4.675   4.004 -0.0405  0.0388 -1.0642
16478TIP3   OH270924   0.485   5.547  13.825 -0.4937 -0.4055  0.4407
16478TIP3    H170925   0.511   5.576  13.738 -1.3231 -1.7580 -0.2944
16478TIP3    H270926   0.428   5.617  13.858 -1.4877 -0.6090 -0.7832
16479TIP3   OH270927   6.072   4.497  15.243  0.2845 -0.6285 -0.5758
16479TIP3    H170928   6.017   4.544  15.306  0.1964 -0.9348 -0.4220
16479TIP3    H270929   6.017   4.424  15.212  0.9338 -1.5310  0.3266
16480TIP3   OH270930   1.508   3.712   1.085 -0.2582  0.4834  0.3182
16480TIP3    H170931   1.595   3.689   1.055 -0.4439 -0.3083  0.3483
16480TIP3    H270932   1.449   3.669   1.023 -0.7438  4.6594 -2.5340
16481TIP3   OH270933   3.945   5.231  14.669 -0.2620 -0.0497 -0.1758
16481TIP3    H170934   3.976   5.263  14.754 -1.4289  0.4245  0.0864
16481TIP3    H270935   3.963   5.137  14.670  1.9327  0.2991 -0.3955
16482TIP3   OH270936   2.882   3.010   0.399  0.3254 -0.1532 -0.0765
16482TIP3    H170937   2.890   3.050   0.313  0.6430  0.6096  0.3027
16482TIP3    H270938   2.794   2.971   0.399  1.2281 -2.3890 -1.6523
16483TIP3   OH270939   1.947   5.326   6.339 -0.3383 -0.1679  0.0642
16483TIP3    H170940   1.929   5.333   6.432 -0.7400 -0.1834 -0.0104
16483TIP3    H270941   1.997   5.245   6.330  1.0938  0.6402  0.4622
16484TIP3   OH270942   2.063   0.648   5.439  0.3912  0.3979 -0.1232
16484TIP3    H170943   2.006   0.723   5.424 -0.0772  0.0150 -0.2795
16484TIP3    H270944   2.020   0.599   5.509 -0.1583 -0.5781 -1.1195
16485TIP3   OH270945   5.050   5.710  16.361  0.3399 -0.5734  0.0753
16485TIP3    H170946   5.059   5.649  16.433  0.0019  2.0337  2.5069
16485TIP3    H270947   5.138   5.720  16.325  0.7111 -1.1070  0.8339
16486TIP3   OH270948   0.231   1.213   5.084 -0.0321  0.0502 -0.0643
16486TIP3    H170949   0.326   1.212   5.073  0.0378  2.7917 -0.2857
16486TIP3    H270950   0.215   1.281   5.150 -1.8613 -0.0753 -0.3222
16487TIP3   OH270951   3.491   5.635   2.936  0.3909 -0.7206 -0.2647
16487TIP3    H170952   3.474   5.728   2.945 -1.5881 -1.2035  1.9467
16487TIP3    H270953   3.557   5.616   3.004 -0.3024 -1.1528  0.3036
16488TIP3   OH270954   3.412   1.555  16.844  0.3252 -0.0447  0.3951
16488TIP3    H170955   3.353   1.532  16.772  0.4687  0.0926  0.2308
16488TIP3    H270956   3.358   1.549  16.922 -1.2495  4.5273 -0.0763
16489TIP3   OH270957   6.802   3.697   5.135  0.0365 -0.1289  0.0119
16489TIP3    H170958   6.856   3.720   5.060  0.2280 -1.2394 -0.1980
16489TIP3    H270959   6.759   3.779   5.159 -1.2187 -0.0521 -2.2395
16490TIP3   OH270960   6.393   6.735   2.344  0.1635  0.1723 -0.4148
16490TIP3    H170961   6.430   6.673   2.282  1.2736 -1.5605  1.8406
16490TIP3    H270962   6.305   6.754   2.310  0.5329 -1.0984 -2.1889
16491TIP3   OH270963   5.041   5.130  15.463 -0.3964 -0.8118  0.1341
16491TIP3    H170964   4.959   5.082  15.454  0.2450 -1.8048 -0.6168
16491TIP3    H270965   5.108   5.069  15.432  0.7460 -0.3890  1.6191
16492TIP3   OH270966   1.538   1.628   2.741  0.2825  0.1909  0.7857
16492TIP3    H170967   1.514   1.704   2.794 -3.3847  0.6481 -1.2188
16492TIP3    H270968   1.528   1.658   2.651 -2.2662 -2.8076 -0.0908
16493TIP3   OH270969   5.829   4.933   2.720  0.3317 -0.4043  0.3979
16493TIP3    H170970   5.863   4.968   2.803  2.2411  2.5239 -1.4074
16493TIP3    H270971   5.896   4.872   2.691  0.5819 -0.0469  0.2052
16494TIP3   OH270972   1.938   4.260  10.739 -0.2775  0.0691  0.1901
16494TIP3    H170973   1.982   4.196  10.795 -0.5034  0.9364  1.3965
16494TIP3    H270974   1.848   4.228  10.732 -0.2458 -0.0449  0.3009
16495TIP3   OH270975   4.034   4.374   4.191  0.2489  0.9348  0.0832
16495TIP3    H170976   3.969   4.394   4.259  2.5495 -0.1453  2.7897
16495TIP3    H270977   4.071   4.459   4.168 -0.9011  1.3719 -0.2208
16496TIP3   OH270978   4.982   2.564  15.459 -0.2931  0.0170  0.0748
16496TIP3    H170979   4.961   2.544  15.549 -0.0648  1.1815  0.4096
16496TIP3    H270980   5.025   2.650  15.463  0.8679 -0.4731 -0.9912
16497TIP3   OH270981   6.652   4.173   2.779  0.2717  0.0139  0.4167
16497TIP3    H170982   6.722   4.120   2.818  0.6569  1.6550  2.1088
16497TIP3    H270983   6.691   4.260   2.769 -0.4634  0.1518 -1.9387
16498TIP3   OH270984   1.847   0.150   2.153  0.4280 -0.3434  0.1718
16498TIP3    H170985   1.784   0.102   2.207  0.3980  0.0279  0.4707
16498TIP3    H270986   1.932   0.110   2.175  0.5120  0.2728  1.0402
16499TIP3   OH270987   5.681   6.745   0.928  0.3411  0.1677 -0.1942
16499TIP3    H170988   5.772   6.775   0.924  0.6533  0.2009  3.4181
16499TIP3    H270989   5.629   6.826   0.927  0.6837  0.4595  1.5818
16500TIP3   OH270990   0.703   6.229   2.614 -0.4810  0.0990 -0.6156
16500TIP3    H170991   0.625   6.211   2.563 -1.1692  0.3041  0.3265
16500TIP3    H270992   0.738   6.143   2.637 -1.1989 -0.0213  0.0789
16501TIP3   OH270993   5.322   6.317  13.978 -0.1104 -0.4150 -0.1914
16501TIP3    H170994   5.376   6.351  14.049 -0.5666  0.1993 -0.1324
16501TIP3    H270995   5.303   6.394  13.924  0.9381 -1.0009 -1.4570
16502TIP3   OH270996   1.910   6.274  15.315  0.0616  0.0958 -0.6457
16502TIP3    H170997   1.936   6.185  15.291  1.4886  0.4287 -0.4036
16502TIP3    H270998   1.936   6.283  15.407  0.7386  1.0448 -0.9173
16503TIP3   OH270999   3.543   5.230  15.193 -0.1237  0.0141 -0.0152
16503TIP3    H171000   3.464   5.240  15.245  1.2436  1.2537  2.0070
16503TIP3    H271001   3.518   5.173  15.121 -2.6729 -0.1017  0.8614
16504TIP3   OH271002   3.189   5.668  14.938 -0.9027 -0.1104 -0.1290
16504TIP3    H171003   3.136   5.607  14.886  0.8351 -2.1411  0.3204
16504TIP3    H271004   3.271   5.677  14.889 -0.1684 -0.1434  1.0418
16505TIP3   OH271005   1.958   6.354   2.346  0.5739  0.4481  0.4193
16505TIP3    H171006   2.003   6.381   2.266  0.9947 -0.2671  0.3984
16505TIP3    H271007   2.020   6.295   2.389  0.2373  0.6061  1.1340
16506TIP3   OH271008   2.048   2.219  14.002  0.9047  0.2163 -0.3672
16506TIP3    H171009   2.059   2.313  14.009  3.4670 -0.1243  1.4928
16506TIP3    H271010   2.039   2.188  14.092  0.2153 -1.3527 -0.9290
16507TIP3   OH271011   3.629   5.538  15.746  0.5630  0.3029 -0.0169
16507TIP3    H171012   3.613   5.630  15.768 -1.3367  0.1476 -0.5450
16507TIP3    H271013   3.596   5.489  15.821 -0.1152  0.0224 -0.4788
16508TIP3   OH271014   4.207   4.719  12.624  0.1393 -0.0459  0.1052
16508TIP3    H171015   4.245   4.687  12.542  0.4526 -0.8461  0.5531
16508TIP3    H271016   4.124   4.760  12.598  0.9399  1.0760 -0.7921
16509TIP3   OH271017   5.316   2.879   3.984 -0.0218 -0.4362  0.3472
16509TIP3    H171018   5.401   2.921   3.968 -1.0081  1.0795 -1.3387
16509TIP3    H271019   5.309   2.811   3.917 -0.8850  0.7030 -0.7635
16510TIP3   OH271020   1.354   0.094   1.722  0.3102  0.2860  0.0942
16510TIP3    H171021   1.301   0.016   1.739  0.1737 -0.5895 -3.5835
16510TIP3    H271022   1.319   0.131   1.641  2.7908  1.9603 -0.3420
16511TIP3   OH271023   1.889   1.271  14.288  1.0276  0.4967 -0.2272
16511TIP3    H171024   1.882   1.304  14.198 -0.2099 -1.8743 -1.0837
16511TIP3    H271025   1.949   1.197  14.281  0.6514  0.0770  0.8461
16512TIP3   OH271026   6.097   0.780  12.926  0.7680 -0.5013  0.3283
16512TIP3    H171027   6.175   0.764  12.978 -0.0038 -1.4272  1.2553
16512TIP3    H271028   6.122   0.755  12.837  1.5831 -0.5779  0.5740
16513TIP3   OH271029   5.591   3.219  15.799  0.0289  0.4053  0.0707
16513TIP3    H171030   5.679   3.247  15.825 -0.0736  1.3997 -0.5967
16513TIP3    H271031   5.551   3.188  15.881  1.0205 -0.1432  0.3659
16514TIP3   OH271032   0.796   6.526  14.547  0.0734 -0.4779 -0.2083
16514TIP3    H171033   0.761   6.517  14.635  0.0662 -1.1286 -0.2758
16514TIP3    H271034   0.884   6.561  14.559 -0.5751  1.2041 -0.0356
16515TIP3   OH271035   0.643   4.943   4.901  0.0362 -0.4150 -0.6817
16515TIP3    H171036   0.580   4.941   4.828  1.4599 -0.2011 -1.9753
16515TIP3    H271037   0.618   4.869   4.956 -3.5131  1.6392  0.8430
16516TIP3   OH271038   1.921   5.670  16.486 -0.3134  0.5641  0.1081
16516TIP3    H171039   1.921   5.584  16.529  0.9152  0.3361 -0.2998
16516TIP3    H271040   1.955   5.653  16.398 -0.3440  1.4196 -0.0815
16517TIP3   OH271041   2.324   2.954  16.039 -0.0371 -0.0606 -0.0363
16517TIP3    H171042   2.272   2.938  16.117 -0.6690  0.1893 -0.3973
16517TIP3    H271043   2.267   3.005  15.982  0.7299  0.5339 -0.2985
16518TIP3   OH271044   2.211   4.459  12.444 -0.2403 -0.1736  0.2729
16518TIP3    H171045   2.155   4.393  12.484 -0.4130  0.1400  0.5566
16518TIP3    H271046   2.284   4.410  12.408 -1.7456 -0.8541 -2.0578
16519TIP3   OH271047   5.962   1.421  12.306 -0.3559 -0.7307 -0.2444
16519TIP3    H171048   6.052   1.389  12.304 -0.2780 -1.1183  3.0897
16519TIP3    H271049   5.943   1.447  12.216  2.9522 -0.9523 -1.1300
16520TIP3   OH271050   0.790   5.928  17.079  0.0497  0.5553 -0.6365
16520TIP3    H171051   0.802   5.874  17.157  0.0445 -1.0818 -1.7120
16520TIP3    H271052   0.792   5.866  17.006 -0.9473  1.9020 -1.8836
16521TIP3   OH271053   5.430   0.016  14.247  0.1841  0.1666  0.0508
16521TIP3    H171054   5.457  -0.028  14.167 -2.4639 -0.2359 -0.7318
16521TIP3    H271055   5.438  -0.051  14.315 -0.7122 -0.5642 -0.5351
16522TIP3   OH271056   0.452   2.524   2.467 -0.4995 -0.3053  0.0673
16522TIP3    H171057   0.363   2.514   2.501 -0.4518 -1.1651 -0.0299
16522TIP3    H271058   0.491   2.592   2.521 -0.4648 -1.5540  1.6977
16523TIP3   OH271059   2.619   3.272  12.870  0.3713  0.1507  0.5062
16523TIP3    H171060   2.587   3.183  12.860 -1.6307  0.7699  0.9203
16523TIP3    H271061   2.655   3.275  12.959  0.0431 -0.1245  0.6473
16524TIP3   OH271062   4.637   2.813   2.641 -0.1827 -0.2726  0.5252
16524TIP3    H171063   4.725   2.829   2.677  1.2830 -1.7973 -2.1011
16524TIP3    H271064   4.604   2.740   2.693  0.9446 -0.9561  0.3226
16525TIP3   OH271065   6.185   4.239   2.414  0.1496  1.2597  0.1461
16525TIP3    H171066   6.257   4.233   2.477  1.0479  0.6356 -0.8843
16525TIP3    H271067   6.186   4.331   2.386 -0.5942  1.6703  1.3812
16526TIP3   OH271068   1.143   3.762   0.097  0.6418 -0.0240  0.0285
16526TIP3    H171069   1.132   3.839   0.152 -2.5989  0.2997 -0.8900
16526TIP3    H271070   1.118   3.688   0.153  2.6799 -0.3886  0.5631
16527TIP3   OH271071   1.965   0.075   0.825  0.3983  0.1411  0.2766
16527TIP3    H171072   1.963   0.013   0.897  1.5785  0.7879  0.9049
16527TIP3    H271073   2.032   0.139   0.850 -0.5311  1.4857 -0.4920
16528TIP3   OH271074   4.153   2.544  16.533 -0.2356 -0.2210  0.5065
16528TIP3    H171075   4.209   2.622  16.532  0.1435 -0.4903  0.3714
16528TIP3    H271076   4.195   2.485  16.471 -1.0793 -0.1528 -0.1352
16529TIP3   OH271077   4.565   3.834   1.731 -0.7778  0.1293  0.2076
16529TIP3    H171078   4.536   3.813   1.819 -0.3092  1.7863  0.7969
16529TIP3    H271079   4.503   3.900   1.700  0.3574  1.2393  0.1976
16530TIP3   OH271080   2.161   2.014   4.967  0.0256 -0.3884 -0.2187
16530TIP3    H171081   2.256   2.003   4.965  0.3055  1.4282  0.9427
16530TIP3    H271082   2.129   1.939   5.016  0.9188 -0.6744 -0.0580
16531TIP3   OH271083   2.431   5.344  16.376  0.1872  0.0039 -0.0252
16531TIP3    H171084   2.480   5.281  16.323 -0.1847  0.3860 -0.8557
16531TIP3    H271085   2.469   5.338  16.463  0.0944 -1.4417 -0.0623
16532TIP3   OH271086   6.527   0.767   4.109 -0.1420  0.0006  0.3586
16532TIP3    H171087   6.610   0.783   4.064 -0.5591  1.0230 -0.0676
16532TIP3    H271088   6.500   0.681   4.076  0.5255 -0.1407  0.1559
16533TIP3   OH271089   6.435   3.826   1.109 -0.3298  0.4962 -0.0567
16533TIP3    H171090   6.411   3.801   1.019  1.3872 -1.2563 -0.0964
16533TIP3    H271091   6.531   3.831   1.107 -0.3223  1.3444  1.4670
16534TIP3   OH271092   4.547   3.654   4.118  0.0638 -0.0817  0.0390
16534TIP3    H171093   4.602   3.643   4.196 -1.1024  2.6516  1.4152
16534TIP3    H271094   4.596   3.717   4.064 -1.4470  2.2386  1.1959
16535TIP3   OH271095   5.588   0.711   0.309  0.0683  0.0716  0.8011
16535TIP3    H171096   5.642   0.763   0.250 -2.3356  1.0371 -0.6841
16535TIP3    H271097   5.588   0.623   0.270  0.3288  0.1421  0.6414
16536TIP3   OH271098   0.556   4.627  12.722 -0.6988  0.1834 -0.1628
16536TIP3    H171099   0.604   4.551  12.757 -0.9719  0.6940  1.3795
16536TIP3    H271100   0.490   4.647  12.788 -0.1017  2.2863 -0.1310
16537TIP3   OH271101   6.128   4.967   0.685  0.4828  0.2628  0.3432
16537TIP3    H171102   6.094   4.962   0.596 -0.6426 -1.1249  0.8110
16537TIP3    H271103   6.221   4.990   0.674  0.7570 -1.3414 -1.2865
16538TIP3   OH271104   2.303   2.013  16.552 -0.0815 -0.1435  0.2373
16538TIP3    H171105   2.262   2.050  16.474  1.1567  1.3452  0.2583
16538TIP3    H271106   2.286   1.919  16.545 -2.7261  0.2851 -0.1624
16539TIP3   OH271107   4.709   1.989   4.510 -0.2315  0.2246 -0.0901
16539TIP3    H171108   4.746   2.006   4.423  0.5708  0.2892  0.2517
16539TIP3    H271109   4.743   2.060   4.564  1.3819 -1.1799  0.8504
16540TIP3   OH271110   4.185   4.014   1.267  0.1636 -0.4201 -0.0240
16540TIP3    H171111   4.273   4.007   1.230  1.0161 -1.5499  2.0784
16540TIP3    H271112   4.192   3.974   1.353 -2.3879 -0.3711  0.2705
16541TIP3   OH271113   0.144   3.033  11.969 -0.1042 -0.0853  0.1019
16541TIP3    H171114   0.172   3.111  11.920 -2.2531  0.3463 -0.5612
16541TIP3    H271115   0.077   3.065  12.028  0.9842 -0.9928  1.9218
16542TIP3   OH271116   1.856   3.516   6.512 -0.0850  0.2149  0.0859
16542TIP3    H171117   1.910   3.550   6.583  0.2465  1.7049 -0.8364
16542TIP3    H271118   1.858   3.421   6.524  1.3377  0.3328  1.0829
16543TIP3   OH271119   2.885   4.548   2.468  0.1311 -0.1526 -0.2342
16543TIP3    H171120   2.894   4.632   2.512  0.3483  0.3944 -1.2743
16543TIP3    H271121   2.832   4.567   2.390 -1.1282 -1.2786  0.2954
16544TIP3   OH271122   0.373   3.720   4.236  0.2298  0.0645 -0.2434
16544TIP3    H171123   0.462   3.720   4.201  0.5351 -0.1005  0.5147
16544TIP3    H271124   0.334   3.801   4.204  0.2152 -0.4700 -1.6509
16545TIP3   OH271125   4.214   6.478  11.781 -0.4221 -0.0304  0.6192
16545TIP3    H171126   4.169   6.523  11.710  1.1133  0.7328  0.0698
16545TIP3    H271127   4.164   6.500  11.859 -1.6797 -0.2279 -0.0995
16546TIP3   OH271128   5.012   3.927   1.935  0.3554 -0.0015  0.2534
16546TIP3    H171129   4.994   3.953   1.845 -0.9429  2.7212  1.1527
16546TIP3    H271130   5.101   3.957   1.951  0.2913  0.2865  0.0894
16547TIP3   OH271131   5.206   4.007  14.845 -0.0889  0.0766  0.1678
16547TIP3    H171132   5.193   3.915  14.825  0.5489 -0.1792  0.8801
16547TIP3    H271133   5.135   4.030  14.905 -0.6041  0.2157 -0.4890
16548TIP3   OH271134   3.215   6.596   0.971  0.3496 -0.2112 -0.1726
16548TIP3    H171135   3.146   6.592   1.037  1.9221 -1.5876  1.4966
16548TIP3    H271136   3.289   6.638   1.016  1.3630 -0.9198 -1.1269
16549TIP3   OH271137   3.643   4.800  12.558 -0.6904 -0.5754  0.2535
16549TIP3    H171138   3.641   4.735  12.488  0.4850  0.9411 -1.2709
16549TIP3    H271139   3.593   4.874  12.523 -0.2856  0.1304  1.1277
16550TIP3   OH271140   0.789   6.027  14.700  0.1657 -0.2459 -0.2925
16550TIP3    H171141   0.709   6.055  14.745  1.1969  0.2048  1.3747
16550TIP3    H271142   0.822   6.106  14.658  0.1924 -0.2373 -0.2548
16551TIP3   OH271143   3.263   6.802  12.812  0.1379 -0.1511  0.3859
16551TIP3    H171144   3.230   6.889  12.788 -0.0979 -0.0138  1.1751
16551TIP3    H271145   3.204   6.741  12.766  0.1789  0.1032 -0.0081
16552TIP3   OH271146   5.356   1.201   5.209  0.0649 -0.1610 -0.7834
16552TIP3    H171147   5.314   1.282   5.181 -0.0684  0.0877  0.1017
16552TIP3    H271148   5.429   1.230   5.263  0.2703 -0.6265 -0.8084
16553TIP3   OH271149   2.405   2.082   3.323  0.4901  0.0752 -0.2378
16553TIP3    H171150   2.477   2.020   3.329 -0.6394 -1.4136 -1.2277
16553TIP3    H271151   2.442   2.159   3.280  1.9908  0.2662  1.2955
16554TIP3   OH271152   4.401   5.849   5.254  0.1365  0.5402 -0.5967
16554TIP3    H171153   4.396   5.815   5.344  0.5375  2.6008  0.2505
16554TIP3    H271154   4.313   5.834   5.219 -0.1023 -0.0741  0.2040
16555TIP3   OH271155   1.224   6.537   3.055  0.0470 -0.5880 -0.1555
16555TIP3    H171156   1.196   6.488   2.978 -3.2806 -1.1080  1.2085
16555TIP3    H271157   1.247   6.469   3.119  0.7704 -0.2105 -0.0073
16556TIP3   OH271158   6.550   6.554   3.159 -0.6505  0.0218 -0.9631
16556TIP3    H171159   6.560   6.561   3.064 -0.2907 -3.0759 -1.2678
16556TIP3    H271160   6.567   6.462   3.178  1.8558  0.9756  2.4501
16557TIP3   OH271161   0.210   4.257  14.459  0.2342 -0.4779  0.2493
16557TIP3    H171162   0.156   4.254  14.538  0.5748  0.3359  0.5235
16557TIP3    H271163   0.170   4.192  14.401  0.1209 -1.2672  1.1720
16558TIP3   OH271164   3.246   6.118  11.840  0.2974 -0.2460  0.4400
16558TIP3    H171165   3.327   6.147  11.882 -0.3491  0.3031  1.3710
16558TIP3    H271166   3.232   6.029  11.872  0.9427 -0.6453 -0.3652
16559TIP3   OH271167   2.961   5.771  11.898  0.4973 -0.0444 -0.5807
16559TIP3    H171168   3.014   5.699  11.863  0.9977  0.1032 -0.1400
16559TIP3    H271169   3.014   5.807  11.970 -1.5317 -1.8815  1.9982
16560TIP3   OH271170   0.851   2.674   2.980  0.4995 -0.2104 -0.0642
16560TIP3    H171171   0.938   2.636   2.984  0.4141 -0.3719  0.2482
16560TIP3    H271172   0.862   2.764   3.008  0.5420 -0.2681  0.1020
16561TIP3   OH271173   5.267   4.057  12.263  0.7482  0.1122 -0.1947
16561TIP3    H171174   5.280   3.971  12.224 -2.0108 -0.2613 -0.5558
16561TIP3    H271175   5.273   4.043  12.357  2.1350 -0.0597 -0.2906
16562TIP3   OH271176   0.207   6.779  12.197 -0.2448  0.1254 -0.1188
16562TIP3    H171177   0.182   6.862  12.156  0.8789  0.9441  0.8238
16562TIP3    H271178   0.195   6.794  12.291  0.0127 -0.7650  0.0635
16563TIP3   OH271179   5.139   0.650  13.395 -0.0056  0.0937 -0.1576
16563TIP3    H171180   5.045   0.663  13.400 -0.1191 -1.0742  1.7510
16563TIP3    H271181   5.176   0.718  13.451  0.1965 -0.2737  0.1558
16564TIP3   OH271182   0.049   2.788   5.333 -0.0788 -0.1457  0.1531
16564TIP3    H171183  -0.027   2.746   5.292 -0.1660 -1.0167  1.1531
16564TIP3    H271184   0.124   2.759   5.280 -0.0050 -2.4581  1.3687
16565TIP3   OH271185   2.135   6.245   1.412 -0.0248 -0.0458 -0.0258
16565TIP3    H171186   2.221   6.224   1.376  0.2164 -0.9907  1.0332
16565TIP3    H271187   2.105   6.163   1.452  1.1838  1.5572  4.8369
16566TIP3   OH271188   6.596   6.814  15.372  0.3691 -0.0521 -0.2222
16566TIP3    H171189   6.568   6.775  15.455  0.3696  0.5380  0.0565
16566TIP3    H271190   6.551   6.762  15.305 -0.7682  0.3782  0.1866
16567TIP3   OH271191   4.000   1.941   3.327  0.0943 -0.2170  0.1342
16567TIP3    H171192   3.913   1.953   3.365 -0.4238  0.2395 -1.1332
16567TIP3    H271193   4.036   1.866   3.374 -0.1245  0.8672  2.1325
16568TIP3   OH271194   3.412   5.036  13.640 -0.0222  0.2163 -0.0576
16568TIP3    H171195   3.484   5.012  13.699  0.0667  0.4641 -0.0633
16568TIP3    H271196   3.400   5.129  13.655 -0.9907 -0.0047  0.6542
16569TIP3   OH271197   6.248   4.659   2.964 -0.0896  0.9583 -0.4488
16569TIP3    H171198   6.273   4.604   2.890  0.4865  1.6723 -0.7969
16569TIP3    H271199   6.159   4.689   2.943  0.4468  1.9880 -1.3730
16570TIP3   OH271200   3.600   2.704  16.521  0.0978  0.3127  0.0425
16570TIP3    H171201   3.692   2.681  16.509 -0.4282 -2.1613  0.1686
16570TIP3    H271202   3.582   2.684  16.613  0.0441  3.4507  0.8333
16571TIP3   OH271203   3.549   5.237   4.999 -0.3416  0.3804 -0.0445
16571TIP3    H171204   3.534   5.159   5.053 -0.6327 -0.5968 -1.4777
16571TIP3    H271205   3.559   5.203   4.910  2.6334  1.7133 -0.3185
16572TIP3   OH271206   5.251   2.684  13.481 -0.3583 -0.0218 -0.5487
16572TIP3    H171207   5.248   2.726  13.395 -0.0527 -3.1693 -2.2256
16572TIP3    H271208   5.241   2.591  13.463 -2.8264 -0.6475  3.0677
16573TIP3   OH271209   2.031   3.553  15.418  0.3558  0.0888  0.2180
16573TIP3    H171210   2.083   3.510  15.350  0.3235 -1.0981  0.9141
16573TIP3    H271211   2.037   3.646  15.397  2.9375  0.0229  0.3821
16574TIP3   OH271212   5.927   2.078  13.306 -0.4884 -0.0603  0.0848
16574TIP3    H171213   6.011   2.076  13.259  0.0282  1.1525  0.9232
16574TIP3    H271214   5.945   2.031  13.388 -0.4501  0.6965  0.5200
16575TIP3   OH271215   3.056   1.247  13.670  0.5321  0.5855 -0.0901
16575TIP3    H171216   3.046   1.308  13.743 -0.0009  1.3693 -0.8117
16575TIP3    H271217   3.076   1.163  13.713 -1.3967  0.6382  1.0688
16576TIP3   OH271218   0.258   2.092  11.905 -0.3828  0.1898 -0.3069
16576TIP3    H171219   0.188   2.133  11.854 -0.1815  1.3065  0.2934
16576TIP3    H271220   0.330   2.154  11.902 -0.0622 -0.1163  0.6162
16577TIP3   OH271221   2.090   4.194  14.243  0.6094 -0.0033  0.2725
16577TIP3    H171222   2.047   4.278  14.259 -0.5171 -0.7397  1.3497
16577TIP3    H271223   2.181   4.216  14.224  0.0140  1.5351 -0.9475
16578TIP3   OH271224   0.052   3.567  16.414  0.5808  0.3783  0.1933
16578TIP3    H171225   0.009   3.612  16.342 -1.0160 -2.6357 -0.9464
16578TIP3    H271226   0.146   3.580  16.399  0.2285  2.5685 -0.4370
16579TIP3   OH271227   1.475   0.280  15.311 -0.3708  0.3910 -0.2171
16579TIP3    H171228   1.527   0.359  15.328 -0.8741  0.3748  1.5976
16579TIP3    H271229   1.384   0.311  15.311 -0.4859  0.0759 -1.2251
16580TIP3   OH271230   1.875   5.821   1.189 -0.1210 -0.2008  0.2593
16580TIP3    H171231   1.948   5.852   1.135  0.1152  1.2765  1.3411
16580TIP3    H271232   1.903   5.734   1.219  1.5209  0.5791  1.1424
16581TIP3   OH271233   4.887   1.611   5.553  0.1165  0.4692 -0.0830
16581TIP3    H171234   4.829   1.664   5.498 -1.8844  0.1582  1.6024
16581TIP3    H271235   4.966   1.664   5.563  0.1866  0.9440 -2.4134
16582TIP3   OH271236   0.718   1.710   0.401  0.3810 -0.1905 -0.6547
16582TIP3    H171237   0.713   1.802   0.375  2.8475  0.1355 -0.2541
16582TIP3    H271238   0.805   1.682   0.371  0.2670 -1.9688  0.5421
16583TIP3   OH271239   3.303   0.899  14.952 -0.3064  0.0215 -0.0506
16583TIP3    H171240   3.252   0.885  14.872 -1.1494 -0.7041  0.5868
16583TIP3    H271241   3.332   0.811  14.977  1.8420  0.4738 -0.7367
16584TIP3   OH271242   3.833   4.964  16.059 -0.0720  0.0741  0.1491
16584TIP3    H171243   3.906   4.999  16.007  0.4870  0.2910  1.0435
16584TIP3    H271244   3.755   4.981  16.007  0.3836  1.0488 -0.2344
16585TIP3   OH271245   0.898   2.755   0.396  0.4034 -0.4238 -0.1891
16585TIP3    H171246   0.861   2.822   0.339 -1.8003 -1.3341  0.0553
16585TIP3    H271247   0.888   2.674   0.347 -0.4718 -1.0595  0.9978
16586TIP3   OH271248   2.888   1.450   5.579  0.2458 -0.1808 -0.1185
16586TIP3    H171249   2.821   1.382   5.589  0.1524 -0.1474 -0.4961
16586TIP3    H271250   2.961   1.420   5.634 -0.0337 -0.2750  0.2018
16587TIP3   OH271251   6.186   2.634  17.108  1.1114 -0.2846  0.0337
16587TIP3    H171252   6.227   2.652  17.023 -1.3334  2.6867 -0.6797
16587TIP3    H271253   6.135   2.554  17.094  2.2081 -0.8733 -0.6969
16588TIP3   OH271254   0.483   5.741  11.920 -0.1481 -0.0335 -0.1110
16588TIP3    H171255   0.555   5.701  11.872  0.5403  1.4969 -0.4012
16588TIP3    H271256   0.470   5.685  11.996  1.3441 -0.3285 -0.0618
16589TIP3   OH271257   3.940   1.770  12.164  0.7003 -0.3045 -0.2987
16589TIP3    H171258   3.947   1.848  12.109  0.2400  0.2813  0.4450
16589TIP3    H271259   4.026   1.762  12.206  0.8939 -0.4680 -0.7228
16590TIP3   OH271260   0.046   3.845  14.655 -0.5772  0.3814  0.3915
16590TIP3    H171261  -0.048   3.830  14.639 -0.4711  1.6966 -1.9442
16590TIP3    H271262   0.081   3.867  14.569  2.2173 -1.5312  0.9106
16591TIP3   OH271263   6.031   1.521  10.883  0.0716 -0.3427  0.5386
16591TIP3    H171264   5.981   1.530  10.965 -1.2902  0.8647 -0.3637
16591TIP3    H271265   5.970   1.550  10.815  1.9072  0.8502 -0.6822
16592TIP3   OH271266   0.242   1.877   6.770 -0.6838 -0.2126 -0.2621
16592TIP3    H171267   0.270   1.856   6.859 -0.4670  1.5911  0.1325
16592TIP3    H271268   0.271   1.968   6.756  0.5136 -0.8716 -2.6739
16593TIP3   OH271269   2.070   2.141  11.764  0.0096  0.0935 -0.0964
16593TIP3    H171270   2.084   2.099  11.849 -1.3502  0.0706  0.1270
16593TIP3    H271271   2.069   2.069  11.701  2.8166  0.2224 -0.4416
16594TIP3   OH271272   2.810   0.724   5.959 -0.0627  0.0273 -0.1098
16594TIP3    H171273   2.840   0.800   6.009  1.1229  0.5520 -1.5419
16594TIP3    H271274   2.866   0.652   5.989 -0.3914 -0.0221  0.3986
16595TIP3   OH271275   6.125   6.244  12.954  0.0435  0.2098  0.5534
16595TIP3    H171276   6.183   6.206  13.021  0.8514  1.5772  0.6693
16595TIP3    H271277   6.184   6.276  12.886 -0.7769 -1.3139 -0.9625
16596TIP3   OH271278   0.968   0.085   4.095 -0.5429  0.1637  0.1824
16596TIP3    H171279   0.955   0.106   4.187 -2.8737  0.0871 -0.0672
16596TIP3    H271280   0.879   0.085   4.057  0.3560  0.5439 -2.1335
16597TIP3   OH271281   2.647   4.432   3.405  0.8992 -0.7361  0.4211
16597TIP3    H171282   2.666   4.402   3.316 -1.7715 -0.2242 -0.4117
16597TIP3    H271283   2.696   4.513   3.415  1.1010 -0.7198 -0.6427
16598TIP3   OH271284   0.279   3.978  11.529  0.4063  0.6480 -0.1842
16598TIP3    H171285   0.251   4.013  11.444 -0.2406  0.2466 -0.1414
16598TIP3    H271286   0.198   3.953  11.573  0.6504  1.7271  0.9470
16599TIP3   OH271287   5.745   1.510  14.200  0.6352 -0.1534 -0.4914
16599TIP3    H171288   5.777   1.552  14.280 -0.3294  2.3144 -1.3026
16599TIP3    H271289   5.665   1.464  14.227  0.3419  0.6267 -0.0063
16600TIP3   OH271290   1.717   2.825   2.142  0.5729  0.2084  0.0640
16600TIP3    H171291   1.622   2.837   2.154  0.0770 -0.7176 -2.2785
16600TIP3    H271292   1.753   2.913   2.148 -0.3269  0.5054  1.6522
16601TIP3   OH271293   4.463   4.435  12.699  0.0083  0.6810  0.1592
16601TIP3    H171294   4.491   4.351  12.737 -1.0451 -0.9878 -2.4988
16601TIP3    H271295   4.398   4.468  12.761  0.6631 -0.2678  1.4214
16602TIP3   OH271296   4.296   4.148   2.658  0.7906  0.0411 -0.2095
16602TIP3    H171297   4.343   4.075   2.616  0.5114 -0.4291  0.2809
16602TIP3    H271298   4.365   4.208   2.685  1.2464 -1.1776  1.5377
16603TIP3   OH271299   6.113   2.871  14.540  0.5438 -0.1924 -0.2167
16603TIP3    H171300   6.125   2.932  14.613 -0.3847 -0.9979  0.6289
16603TIP3    H271301   6.197   2.826  14.534  0.6381 -0.0982  0.3309
16604TIP3   OH271302   3.613   1.818   6.035  0.5108  0.2476 -0.6074
16604TIP3    H171303   3.603   1.723   6.043  0.3205  0.2771 -0.4956
16604TIP3    H271304   3.691   1.838   6.086  0.8227  0.0903 -1.0170
16605TIP3   OH271305   3.452   0.740   1.055  0.1138 -0.3352  0.7283
16605TIP3    H171306   3.435   0.708   0.966 -0.4318  1.7772  0.0173
16605TIP3    H271307   3.531   0.693   1.083  0.8917 -0.2880 -1.2688
16606TIP3   OH271308   1.192   4.767   0.722  0.3713  0.4504 -0.5161
16606TIP3    H171309   1.194   4.672   0.737  2.3209  0.2730 -1.5802
16606TIP3    H271310   1.100   4.791   0.732  0.0079 -1.3278  1.0215
16607TIP3   OH271311   0.044   4.878   4.821 -0.5711 -0.2087 -0.0085
16607TIP3    H171312  -0.042   4.886   4.778 -0.6423  0.0345  0.1778
16607TIP3    H271313   0.101   4.935   4.770 -0.3820 -0.8103 -0.4824
16608TIP3   OH271314   1.167   4.310  16.575 -0.1317  0.3957  0.1272
16608TIP3    H171315   1.188   4.382  16.635 -0.7905 -0.0551  0.9158
16608TIP3    H271316   1.217   4.236  16.609  1.2337  0.6546 -1.1842
16609TIP3   OH271317   1.736   6.504  13.084 -0.1056  0.3717 -0.7433
16609TIP3    H171318   1.684   6.547  13.016  0.5476 -1.9664 -2.8807
16609TIP3    H271319   1.680   6.434  13.117  0.4023  0.0820 -0.4818
16610TIP3   OH271320   4.629   1.056   3.883 -0.5790  0.0960  0.3268
16610TIP3    H171321   4.689   1.086   3.815  0.1243 -0.0951  0.8364
16610TIP3    H271322   4.562   1.006   3.837 -1.6987  2.2567 -0.5300
16611TIP3   OH271323   6.070   0.145   1.967 -0.0471 -0.5516 -0.3207
16611TIP3    H171324   6.157   0.106   1.976  2.1826  3.9971  0.9235
16611TIP3    H271325   6.016   0.101   2.033  2.0179 -1.7284  0.6666
16612TIP3   OH271326   4.127   4.137   2.428 -0.6866  0.3140 -0.3447
16612TIP3    H171327   4.148   4.231   2.426 -0.1656  0.2824  1.5969
16612TIP3    H271328   4.162   4.107   2.511  0.7352 -2.0191 -1.6807
16613TIP3   OH271329   6.373   2.909   1.203  0.3040 -0.4316  0.3174
16613TIP3    H171330   6.440   2.841   1.205  0.9441  0.1894  0.6041
16613TIP3    H271331   6.408   2.975   1.142  0.1488  0.0838  0.7767
16614TIP3   OH271332   2.598   2.306   4.845 -0.2993  0.4556 -0.3019
16614TIP3    H171333   2.658   2.377   4.872  0.4990  0.0528 -0.9629
16614TIP3    H271334   2.645   2.226   4.869 -0.8060  0.1388 -0.3762
16615TIP3   OH271335   2.373   2.053   6.715  0.0053 -0.1590 -0.1935
16615TIP3    H171336   2.312   2.050   6.642  0.2852  1.2642 -0.5044
16615TIP3    H271337   2.331   2.110   6.780  0.7820  0.4523 -0.2143
16616TIP3   OH271338   1.396   3.671   2.348  0.3659 -0.3904  0.0273
16616TIP3    H171339   1.328   3.704   2.289  0.7071 -1.0167 -0.7309
16616TIP3    H271340   1.348   3.620   2.414 -0.0125  0.2795  0.2805
16617TIP3   OH271341   1.197   5.100  12.430 -0.1390 -0.6409  0.1116
16617TIP3    H171342   1.117   5.112  12.379 -0.0000  0.9716  0.2300
16617TIP3    H271343   1.180   5.023  12.483 -1.4663 -0.5479 -0.1536
16618TIP3   OH271344   3.725   2.180   0.975  0.6886  0.0629 -0.7600
16618TIP3    H171345   3.635   2.178   0.945  0.6168 -0.8681 -0.5007
16618TIP3    H271346   3.776   2.202   0.897  0.2730  0.2379 -0.9833
16619TIP3   OH271347   5.276   6.458  15.528  0.4392 -0.0501 -0.0822
16619TIP3    H171348   5.318   6.414  15.602  0.1583  0.5418  0.4331
16619TIP3    H271349   5.250   6.386  15.470  2.4617 -0.4161 -0.6047
16620TIP3   OH271350   6.612   6.022   3.224 -0.8274  0.6870  0.1317
16620TIP3    H171351   6.534   5.966   3.218 -0.0818 -0.4757  0.8188
16620TIP3    H271352   6.647   6.003   3.311  1.5726 -0.6897 -1.0453
16621TIP3   OH271353   1.526   4.070   1.042  0.0641  0.2596  0.0226
16621TIP3    H171354   1.582   3.992   1.038  1.2884  1.0669  0.6516
16621TIP3    H271355   1.453   4.044   1.097  0.9424 -0.1834  1.0269
16622TIP3   OH271356   3.866   1.391   5.941 -0.1718  0.0701 -0.4524
16622TIP3    H171357   3.920   1.314   5.960 -1.7958 -0.9885  0.0180
16622TIP3    H271358   3.886   1.452   6.012 -0.7072 -0.9224  0.5884
16623TIP3   OH271359   2.526   5.342   0.305  0.6841  0.2351 -0.2786
16623TIP3    H171360   2.614   5.340   0.268  0.7710 -1.3616 -0.0521
16623TIP3    H271361   2.468   5.331   0.230  0.6031  2.0686 -0.5318
16624TIP3   OH271362   5.165   0.018   4.331 -0.1106 -0.1428 -0.1854
16624TIP3    H171363   5.180   0.050   4.420 -0.1503  0.1046 -0.2683
16624TIP3    H271364   5.208   0.083   4.275 -2.2644  1.0982 -0.4869
16625TIP3   OH271365   5.896   2.382  13.095  0.2051  0.2493 -0.2218
16625TIP3    H171366   5.861   2.345  13.177  0.5165 -0.7823 -0.5382
16625TIP3    H271367   5.902   2.476  13.112 -1.5649  0.3101  0.2680
16626TIP3   OH271368   5.556   0.444   0.245 -0.0621 -0.0950 -0.4704
16626TIP3    H171369   5.515   0.362   0.216  0.2508 -0.5115  0.2181
16626TIP3    H271370   5.648   0.420   0.260  0.0265  0.3805 -0.2501
16627TIP3   OH271371   1.080   3.315  16.904 -0.8838  0.2551  0.8790
16627TIP3    H171372   1.110   3.378  16.839  1.7347 -1.0032  0.7260
16627TIP3    H271373   1.101   3.356  16.988  2.4487 -0.9140  0.7856
16628TIP3   OH271374   3.942   6.369   4.975 -0.0021  0.0468 -0.0313
16628TIP3    H171375   4.021   6.384   5.026  0.4234  0.8938 -0.9180
16628TIP3    H271376   3.969   6.308   4.906 -0.7035 -1.5329  1.0325
16629TIP3   OH271377   0.835   3.890  15.594  0.5367 -0.1790 -0.0262
16629TIP3    H171378   0.867   3.908  15.682  0.4626  0.3829 -0.1133
16629TIP3    H271379   0.803   3.799  15.598  1.0076 -0.3295  0.3824
16630TIP3   OH271380   5.506   6.266   3.250 -0.3552 -0.0527 -0.3774
16630TIP3    H171381   5.542   6.332   3.309 -1.6373 -1.2909  1.9659
16630TIP3    H271382   5.411   6.269   3.266 -0.4500 -2.5230 -0.0047
16631TIP3   OH271383   2.147   4.191  17.061 -0.3730  0.1585  0.0301
16631TIP3    H171384   2.117   4.177  17.150 -1.2421 -0.3331 -0.3197
16631TIP3    H271385   2.071   4.168  17.006  0.4643 -0.5642 -0.8663
16632TIP3   OH271386   2.504   1.078   4.140  0.5828 -0.3611  0.0473
16632TIP3    H171387   2.570   1.142   4.113  0.6775 -0.7936 -0.7647
16632TIP3    H271388   2.532   1.051   4.227  1.0597  0.0095  0.0144
16633TIP3   OH271389   5.964   5.184  11.853  0.1747 -0.1029  0.4716
16633TIP3    H171390   6.002   5.098  11.869  1.6435  0.4710  0.2138
16633TIP3    H271391   6.020   5.223  11.787  0.0712  1.4038  1.2388
16634TIP3   OH271392   0.486   6.383  13.083 -0.1548 -0.2267 -0.0446
16634TIP3    H171393   0.569   6.372  13.038 -0.8167 -2.8008 -0.7921
16634TIP3    H271394   0.501   6.349  13.172  0.2251  1.6832  0.6697
16635TIP3   OH271395   0.795   4.795   0.045 -0.4978  0.1835  0.0014
16635TIP3    H171396   0.771   4.764  -0.042 -0.2483  1.7208 -0.6416
16635TIP3    H271397   0.722   4.767   0.101 -0.6808 -0.7807 -0.6889
16636TIP3   OH271398   6.013   6.764   4.944 -0.0715  0.1374  0.5792
16636TIP3    H171399   5.965   6.835   4.986  2.7658  2.0459  0.8685
16636TIP3    H271400   6.035   6.798   4.857 -0.1086 -1.0996  0.0664
16637TIP3   OH271401   6.270   2.026   3.018 -0.7834  0.1389  0.1387
16637TIP3    H171402   6.340   1.968   2.986  0.6031  1.2340  1.0309
16637TIP3    H271403   6.279   2.023   3.113 -1.2797  1.1074  0.2223
16638TIP3   OH271404   3.714   4.937   5.509  0.5422  0.4900  0.3485
16638TIP3    H171405   3.785   4.888   5.552  1.4694  1.9127  0.4974
16638TIP3    H271406   3.645   4.943   5.576 -0.0330 -1.4446 -0.0014
16639TIP3   OH271407   4.733   3.934  15.380 -0.1139  0.6472  1.0404
16639TIP3    H171408   4.663   3.897  15.434  0.4378 -2.3656 -0.1174
16639TIP3    H271409   4.795   3.863  15.368  0.7865  1.7515 -1.8569
16640TIP3   OH271410   3.302   3.036  14.065 -0.2037  0.0626  0.2038
16640TIP3    H171411   3.356   3.099  14.113 -0.3789 -0.4663  1.1160
16640TIP3    H271412   3.213   3.054  14.094 -0.4391  0.4433 -0.7382
16641TIP3   OH271413   3.175   3.501   4.423 -0.1688  0.4926  0.4727
16641TIP3    H171414   3.219   3.581   4.393  0.7035  0.6265  1.9941
16641TIP3    H271415   3.190   3.500   4.517 -0.2228 -1.4486  0.4933
16642TIP3   OH271416   2.589   1.568  11.727 -0.0171  0.0959  0.0565
16642TIP3    H171417   2.554   1.563  11.638  0.1112 -0.0236  0.0115
16642TIP3    H271418   2.517   1.601  11.780 -0.4406 -0.8894  0.1005
16643TIP3   OH271419   0.324   2.970   1.384  0.2210  0.8424  0.0387
16643TIP3    H171420   0.344   3.035   1.316 -2.0848  1.7534  0.1348
16643TIP3    H271421   0.386   2.989   1.454  1.8358  0.6809 -1.2807
16644TIP3   OH271422   4.921   6.562  13.638  0.2635 -0.0394  0.0879
16644TIP3    H171423   4.906   6.552  13.544 -0.2840 -1.5659  0.3000
16644TIP3    H271424   4.849   6.617  13.669  1.1779  1.5759 -0.5676
16645TIP3   OH271425   2.501   0.833  15.605 -0.0880 -0.7607  0.0319
16645TIP3    H171426   2.557   0.758  15.627  3.4009  1.8336  0.7810
16645TIP3    H271427   2.475   0.869  15.689  0.3736  0.3293 -0.2850
16646TIP3   OH271428   2.029   4.343   3.282 -0.0756  0.3411 -0.3894
16646TIP3    H171429   2.028   4.388   3.367  3.6646 -0.3613  0.1900
16646TIP3    H271430   1.949   4.290   3.282 -1.0416  1.6391  1.9249
16647TIP3   OH271431   1.891   2.902   4.780 -0.0037 -0.0034 -0.4288
16647TIP3    H171432   1.897   2.981   4.833  1.2703 -0.4304  0.0948
16647TIP3    H271433   1.838   2.842   4.832 -0.2805  0.2053 -0.4649
16648TIP3   OH271434   5.256   6.384   3.216  0.7510  0.9008  0.1538
16648TIP3    H171435   5.213   6.341   3.142  0.5729 -1.3166  1.4801
16648TIP3    H271436   5.185   6.410   3.274  1.0205 -1.8344  1.8497
16649TIP3   OH271437   5.635   5.656   1.731  0.3492  0.0026  0.3107
16649TIP3    H171438   5.671   5.676   1.818  0.6438 -0.8347  0.3910
16649TIP3    H271439   5.709   5.669   1.671 -0.1487  1.6819  0.0307
16650TIP3   OH271440   5.185   0.124   4.586  0.1853 -0.3163 -0.5146
16650TIP3    H171441   5.256   0.069   4.620 -2.1430 -1.2031  3.6405
16650TIP3    H271442   5.184   0.200   4.645 -2.1217 -0.2649 -0.5587
16651TIP3   OH271443   4.560   0.061   1.446 -0.4673  0.2046 -0.3333
16651TIP3    H171444   4.575  -0.024   1.489  0.7243  0.0971 -0.9333
16651TIP3    H271445   4.609   0.123   1.499 -0.7715  0.4127 -0.2962
16652TIP3   OH271446   0.478   3.057  16.349 -0.0256 -0.0130  0.3109
16652TIP3    H171447   0.399   3.040  16.297 -1.4464 -2.7727  3.0689
16652TIP3    H271448   0.446   3.075  16.437  2.3965 -0.7140  1.4108
16653TIP3   OH271449   2.960   4.685   0.149 -0.0242  0.2264 -0.5489
16653TIP3    H171450   2.942   4.671   0.056  0.4936 -0.5628 -0.5383
16653TIP3    H271451   2.994   4.601   0.180 -0.1552  0.4944  0.3477
16654TIP3   OH271452   5.383   4.325  16.884 -0.4358 -0.1071 -0.8547
16654TIP3    H171453   5.303   4.360  16.844 -1.2200 -1.9769 -1.0090
16654TIP3    H271454   5.378   4.230  16.871  0.8170 -0.4808  0.9116
16655TIP3   OH271455   3.534   0.124  11.937  0.9344 -0.2938 -0.2641
16655TIP3    H171456   3.489   0.074  12.005  1.4175 -0.8132 -0.3138
16655TIP3    H271457   3.552   0.209  11.977  0.4290 -0.2800 -0.0515
16656TIP3   OH271458   1.018   1.266   0.964  0.2505 -0.3066  0.4077
16656TIP3    H171459   1.036   1.292   0.874  0.5384 -1.2790  0.1736
16656TIP3    H271460   0.924   1.247   0.965  0.1655  0.1131  0.4200
16657TIP3   OH271461   1.864   4.496   5.446  0.2755 -0.0340  0.5386
16657TIP3    H171462   1.847   4.403   5.459  0.1252  0.0974  1.3362
16657TIP3    H271463   1.819   4.517   5.364  0.3144 -0.6590  0.3512
16658TIP3   OH271464   4.882   5.947  11.696 -0.1158 -0.3401  0.5197
16658TIP3    H171465   4.954   5.972  11.638 -0.7402  1.2771  0.3767
16658TIP3    H271466   4.889   5.852  11.704  1.2893 -0.3508 -0.4575
16659TIP3   OH271467   6.051   1.023  13.378  0.5256  0.0153 -0.2180
16659TIP3    H171468   6.065   1.117  13.393  1.6594 -0.1628 -0.0149
16659TIP3    H271469   6.134   0.983  13.405 -0.6113 -1.2578  1.6288
16660TIP3   OH271470   3.808   6.105   2.832 -0.2302  0.3040  0.5601
16660TIP3    H171471   3.887   6.052   2.841 -1.4046 -1.7214 -0.3301
16660TIP3    H271472   3.777   6.086   2.743 -1.2496  1.7288  0.5860
16661TIP3   OH271473   5.389   4.929  16.799 -0.3390 -0.4894  0.6694
16661TIP3    H171474   5.480   4.931  16.768  1.0237 -2.6507  3.9225
16661TIP3    H271475   5.346   5.001  16.753  2.4727 -0.5779 -2.4673
16662TIP3   OH271476   4.393   5.425   2.488 -0.1560 -0.8538 -0.5206
16662TIP3    H171477   4.333   5.461   2.553 -0.1925 -1.6629 -0.0960
16662TIP3    H271478   4.477   5.466   2.509 -0.6516  0.7943 -1.5265
16663TIP3   OH271479   4.887   5.461   1.664 -0.6213 -0.2903 -0.5194
16663TIP3    H171480   4.943   5.537   1.645 -0.6446  0.1766  1.1252
16663TIP3    H271481   4.947   5.398   1.705 -0.1064 -2.1097 -3.7316
16664TIP3   OH271482   2.189   3.884  14.790  0.2328  0.2723 -0.4984
16664TIP3    H171483   2.280   3.863  14.767  0.5601  1.1021 -0.0187
16664TIP3    H271484   2.196   3.929  14.874 -0.0372  4.7952 -2.5780
16665TIP3   OH271485   1.391   3.987  16.727 -0.7346  0.3925  0.7237
16665TIP3    H171486   1.391   4.038  16.808  2.3113  0.6456  0.6911
16665TIP3    H271487   1.483   3.962  16.715 -1.5894 -2.3828 -0.9797
16666TIP3   OH271488   1.379   2.144  14.570 -0.1788 -0.0847 -0.5060
16666TIP3    H171489   1.441   2.135  14.642 -1.1966 -2.7056  0.1650
16666TIP3    H271490   1.433   2.135  14.491  0.8030  1.8243 -0.1155
16667TIP3   OH271491   6.261   2.363  13.820  0.5523  0.2745  0.2119
16667TIP3    H171492   6.291   2.397  13.904  0.8014 -0.5263  0.4533
16667TIP3    H271493   6.170   2.394  13.813  0.4997  0.2735  0.8198
16668TIP3   OH271494   2.469   1.256  14.207 -0.0900  0.5513 -0.4629
16668TIP3    H171495   2.390   1.207  14.229  0.9557 -0.6999  0.6443
16668TIP3    H271496   2.436   1.342  14.179 -1.7922  0.3883  0.8583
16669TIP3   OH271497   3.913   4.631  10.434  0.0697  0.0009 -0.3762
16669TIP3    H171498   3.851   4.559  10.424 -0.5629  0.7788 -2.5406
16669TIP3    H271499   3.936   4.629  10.527 -0.8244 -2.2279 -0.1287
16670TIP3   OH271500   2.020   4.137   1.651 -0.1632 -0.0355  0.1883
16670TIP3    H171501   2.070   4.112   1.574 -1.7967  0.6383 -1.1464
16670TIP3    H271502   1.972   4.216   1.625  1.6480  2.1885  2.9144
16671TIP3   OH271503   3.243   0.365   3.089  0.3207 -0.1225 -0.5274
16671TIP3    H171504   3.323   0.360   3.038  0.1484 -1.4905 -0.7146
16671TIP3    H271505   3.181   0.412   3.033  0.9394  0.8013 -0.4412
16672TIP3   OH271506   2.331   4.677  11.567  0.1116 -0.5700  0.2053
16672TIP3    H171507   2.425   4.657  11.563  0.6164  1.2944  1.5881
16672TIP3    H271508   2.304   4.684  11.475  1.1637 -1.7132 -0.2186
16673TIP3   OH271509   4.344   4.391   3.152 -0.1601  0.4023  0.3432
16673TIP3    H171510   4.271   4.379   3.213  1.9896 -0.7841  2.9015
16673TIP3    H271511   4.397   4.460   3.191  0.7090  0.4276 -0.8081
16674TIP3   OH271512   2.564   4.676   6.233  0.7514 -0.1591 -0.0358
16674TIP3    H171513   2.573   4.734   6.308  1.5117 -1.5214  0.9690
16674TIP3    H271514   2.496   4.613   6.259  0.5752 -0.2787 -0.7487
16675TIP3   OH271515   2.181   0.031  11.644  0.4023 -0.0009 -0.6643
16675TIP3    H171516   2.159  -0.043  11.699 -0.9041 -0.2751 -1.5139
16675TIP3    H271517   2.192  -0.006  11.556  0.3095  0.7121 -0.9881
16676TIP3   OH271518   1.515   0.721   2.799  0.3918  0.3892 -0.2559
16676TIP3    H171519   1.562   0.638   2.808  0.7916  0.7313  0.9498
16676TIP3    H271520   1.520   0.741   2.706 -0.2598 -1.2594 -0.6955
16677TIP3   OH271521   1.715   1.510   5.390  0.1471 -0.0282 -0.0896
16677TIP3    H171522   1.715   1.588   5.445  2.6716 -0.5330  0.7406
16677TIP3    H271523   1.674   1.538   5.308  1.7146  2.4453 -0.1274
16678TIP3   OH271524   3.290   5.399   4.104  0.2590 -0.2717 -0.0533
16678TIP3    H171525   3.368   5.369   4.057  0.2367 -1.0363  0.3832
16678TIP3    H271526   3.319   5.412   4.194  0.2434  0.9740 -0.2047
16679TIP3   OH271527   1.364   0.241   4.837 -0.4456  0.5556  0.4816
16679TIP3    H171528   1.276   0.275   4.852 -0.2354  1.1151  0.4576
16679TIP3    H271529   1.351   0.166   4.778 -1.1642 -0.9994  2.4995
16680TIP3   OH271530   6.116   3.513  14.425  0.6313  0.0552  0.2553
16680TIP3    H171531   6.171   3.513  14.503  1.2334  0.4120 -0.1627
16680TIP3    H271532   6.071   3.429  14.427  1.1061 -0.1923  0.6665
16681TIP3   OH271533   0.553   5.594  14.154 -0.3867  0.4786  0.2360
16681TIP3    H171534   0.559   5.526  14.087  0.5375  3.3898 -2.8958
16681TIP3    H271535   0.643   5.606  14.185  0.1225  2.5282 -1.8135
16682TIP3   OH271536   4.430   4.273  15.285 -0.1758 -0.2918  0.0624
16682TIP3    H171537   4.512   4.237  15.250  1.0207  1.6673  0.7076
16682TIP3    H271538   4.401   4.335  15.219 -1.6349 -1.5467 -0.5353
16683TIP3   OH271539   2.389   1.723   1.003  0.6099  0.3522  0.2171
16683TIP3    H171540   2.297   1.702   1.022  0.5145 -0.0692 -0.6729
16683TIP3    H271541   2.392   1.819   1.005  0.2355  0.3588  0.6264
16684TIP3   OH271542   0.938   0.081  16.861 -0.4392 -0.1161  0.0151
16684TIP3    H171543   0.902  -0.003  16.888  3.0154 -0.9417  2.7890
16684TIP3    H271544   1.021   0.088  16.907  1.2899  3.1737 -3.0716
16685TIP3   OH271545   1.083   1.655  12.301 -0.4827  0.0236 -0.2755
16685TIP3    H171546   1.050   1.565  12.303 -0.2130 -0.1983 -2.7765
16685TIP3    H271547   1.176   1.646  12.283 -0.0142  0.7962  1.5638
16686TIP3   OH271548   4.550   0.938   0.204 -0.5917  0.5569  0.2791
16686TIP3    H171549   4.495   0.860   0.213  1.3560 -1.0692 -0.8998
16686TIP3    H271550   4.569   0.965   0.293 -1.0562 -0.5340  0.7203
16687TIP3   OH271551   1.462   1.083  14.954 -0.3037 -0.0046 -0.4416
16687TIP3    H171552   1.406   1.025  14.903 -1.1249  1.3516 -1.1406
16687TIP3    H271553   1.492   1.029  15.028 -2.4773 -0.7894 -0.0562
16688TIP3   OH271554   0.708   0.179   2.015 -0.8439 -0.5629  0.6217
16688TIP3    H171555   0.700   0.147   1.926 -0.5940 -1.4974  0.9268
16688TIP3    H271556   0.785   0.236   2.013  1.8659 -3.9148  1.1209
16689TIP3   OH271557   0.559   0.505   1.321  0.0607  0.0225 -0.4317
16689TIP3    H171558   0.483   0.529   1.374  0.8971  0.3408  0.6554
16689TIP3    H271559   0.537   0.421   1.283  0.0334 -0.9978  1.6907
16690TIP3   OH271560   2.126   3.846  15.368 -0.2042  0.8041  0.1143
16690TIP3    H171561   2.150   3.828  15.278  0.9152  0.9773  0.3655
16690TIP3    H271562   2.208   3.841  15.417 -0.8749  0.1385  1.2207
16691TIP3   OH271563   2.200   1.247  13.985 -0.1501 -0.7121  0.2728
16691TIP3    H171564   2.211   1.314  14.053  1.6962 -0.0009 -0.6593
16691TIP3    H271565   2.141   1.183  14.025 -1.7376  1.2524  1.3425
16692TIP3   OH271566   4.638   1.699   5.088  0.2075  0.0028 -1.0682
16692TIP3    H171567   4.674   1.773   5.136 -0.1420 -0.1427 -0.5752
16692TIP3    H271568   4.547   1.724   5.069 -0.7285 -1.2443  1.2463
16693TIP3   OH271569   1.843   1.748  10.556 -0.0123 -0.4709 -0.8198
16693TIP3    H171570   1.770   1.689  10.539  0.9177 -0.9424 -3.8817
16693TIP3    H271571   1.912   1.690  10.591  1.1552 -1.6161 -4.5004
16694TIP3   OH271572   5.019   0.897   4.858  0.1143 -0.8677 -0.0629
16694TIP3    H171573   5.001   0.809   4.890  0.4118  0.1174  3.0944
16694TIP3    H271574   4.934   0.929   4.829 -0.1111 -1.9112 -0.6349
16695TIP3   OH271575   3.734   3.942  11.179  0.2625  0.1348 -0.0618
16695TIP3    H171576   3.717   3.954  11.273  0.6506  1.1251 -0.1071
16695TIP3    H271577   3.650   3.914  11.143 -0.0551  0.3803  0.4743
16696TIP3   OH271578   5.058   2.000   5.263 -0.1256 -0.4171  0.6264
16696TIP3    H171579   5.055   2.092   5.286  1.0725 -0.0828 -0.4423
16696TIP3    H271580   5.126   1.963   5.321  1.7875  0.1061 -1.1723
16697TIP3   OH271581   0.499   5.207   4.627 -0.0329 -0.2954  0.4152
16697TIP3    H171582   0.496   5.115   4.653  0.9413 -0.0346  1.5477
16697TIP3    H271583   0.573   5.212   4.567 -0.8684 -0.4588 -0.6746
16698TIP3   OH271584   1.947   1.994  14.294 -0.8729  0.4140 -0.6593
16698TIP3    H171585   1.868   2.012  14.345 -0.2565  1.9912 -0.2045
16698TIP3    H271586   1.913   1.966  14.209 -1.9075 -1.2312  0.2303
16699TIP3   OH271587   0.818   0.523  16.739  0.2148 -0.4075  0.6914
16699TIP3    H171588   0.848   0.433  16.751  1.7962  0.0664  0.4487
16699TIP3    H271589   0.752   0.517  16.669  2.6144 -0.9902 -1.6725
16700TIP3   OH271590   5.701   4.093   6.195 -0.2868  0.4125 -0.3422
16700TIP3    H171591   5.656   4.073   6.113 -1.1869  0.2086  0.1846
16700TIP3    H271592   5.737   4.181   6.182  2.0660 -0.7132 -1.9857
16701TIP3   OH271593   0.546   1.924  12.150 -0.7265  0.4898 -0.3931
16701TIP3    H171594   0.476   1.989  12.146 -0.3608  0.9976  0.9814
16701TIP3    H271595   0.532   1.879  12.233  1.4820  1.6584  0.6843
16702TIP3   OH271596   2.186   0.984  11.663 -0.0280 -0.4284  0.5371
16702TIP3    H171597   2.142   0.957  11.582 -1.4445 -1.9259  1.7320
16702TIP3    H271598   2.158   1.075  11.676 -1.0150 -0.6624  0.1146
16703TIP3   OH271599   3.756   3.984   0.177 -0.1316  0.9782 -0.0521
16703TIP3    H171600   3.831   3.978   0.117 -1.8799  2.0951 -2.5210
16703TIP3    H271601   3.786   4.042   0.247  1.3905  1.2043 -0.8496
16704TIP3   OH271602   5.336   1.944  12.909  0.2453  0.3733  0.0433
16704TIP3    H171603   5.296   1.914  12.990 -3.7639  0.4062 -1.6320
16704TIP3    H271604   5.386   2.022  12.934  0.0090 -0.2111  2.5849
16705TIP3   OH271605   4.093   2.940   3.457 -0.2677 -0.1567 -0.4276
16705TIP3    H171606   4.119   2.864   3.509  0.3318  0.3225 -0.0166
16705TIP3    H271607   4.173   2.993   3.449 -1.6462  3.1488  3.8323
16706TIP3   OH271608   5.183   2.717  15.600  0.2958  0.6434  0.0347
16706TIP3    H171609   5.274   2.746  15.609  0.3229  0.2408  1.4130
16706TIP3    H271610   5.159   2.688  15.688 -0.5733 -1.0226 -0.7118
16707TIP3   OH271611   6.507   2.334  17.161  0.3960  0.3418  0.2964
16707TIP3    H171612   6.434   2.354  17.219  1.3663  0.3239  1.5682
16707TIP3    H271613   6.585   2.355  17.212  1.2889  1.7776 -1.5242
16708TIP3   OH271614   5.920   1.721   4.670  0.5231  0.4751  0.2423
16708TIP3    H171615   5.946   1.719   4.762 -1.5118 -0.0587  0.8773
16708TIP3    H271616   5.876   1.637   4.656 -1.9035  1.7428 -0.2917
16709TIP3   OH271617   6.448   5.148   0.408  0.1571  0.2102  0.4760
16709TIP3    H171618   6.486   5.197   0.335 -0.0855 -0.3558 -0.0339
16709TIP3    H271619   6.399   5.077   0.367 -0.6258  0.3422  1.1620
16710TIP3   OH271620   1.068   4.922   4.513 -0.3479  0.2204 -0.0184
16710TIP3    H171621   1.110   4.904   4.597  1.8676 -0.0548 -1.0864
16710TIP3    H271622   1.072   5.017   4.504  3.3573  0.0927 -1.5298
16711TIP3   OH271623   3.948   3.527  15.828 -0.1986 -0.1630 -0.3432
16711TIP3    H171624   3.914   3.480  15.905 -0.6261 -0.9887 -1.0179
16711TIP3    H271625   4.038   3.496  15.819 -0.6465 -1.3305 -1.1138
16712TIP3   OH271626   4.655   6.256  12.019 -0.1435  0.1027  0.3690
16712TIP3    H171627   4.687   6.194  12.084 -2.4858  0.8764  2.3857
16712TIP3    H271628   4.643   6.203  11.940  1.6783 -1.1123  0.8345
16713TIP3   OH271629   0.411   1.209   0.717  0.7453  0.8331  0.1475
16713TIP3    H171630   0.369   1.142   0.770 -0.8340  0.4248 -1.5135
16713TIP3    H271631   0.487   1.166   0.678 -0.9130 -0.5105 -1.8779
16714TIP3   OH271632   3.702   6.027  12.163 -0.1304 -0.1889 -0.1437
16714TIP3    H171633   3.725   5.954  12.104 -3.0582 -1.5407  0.2153
16714TIP3    H271634   3.664   6.093  12.105 -1.4733 -0.8250 -0.0309
16715TIP3   OH271635   5.473   0.285   4.533  0.3183 -0.0738  0.4609
16715TIP3    H171636   5.423   0.366   4.543  2.0437  0.7845  2.8741
16715TIP3    H271637   5.442   0.249   4.450 -1.1445  2.5839 -0.2776
16716TIP3   OH271638   0.940   1.895  14.812 -0.1169 -0.2760 -0.0244
16716TIP3    H171639   0.982   1.898  14.898  1.1279 -1.4347 -0.5501
16716TIP3    H271640   1.008   1.859  14.754 -1.2621 -0.4634 -1.2872
16717TIP3   OH271641   5.379   1.413  17.162  0.0776  0.0314  0.6509
16717TIP3    H171642   5.297   1.419  17.212  0.4875  1.5853  1.2060
16717TIP3    H271643   5.419   1.331  17.190 -0.1697  0.4076  2.1719
16718TIP3   OH271644   1.941   1.060   0.791 -0.3636  0.0383 -0.3017
16718TIP3    H171645   2.005   1.069   0.861 -0.6023  2.9971 -0.3262
16718TIP3    H271646   1.858   1.045   0.836 -0.4170  1.3076  0.0508
16719TIP3   OH271647   0.887   2.409  14.727  0.2407 -0.3781 -0.3372
16719TIP3    H171648   0.972   2.371  14.705  1.1946  0.8784  0.9597
16719TIP3    H271649   0.873   2.478  14.662  0.0386 -0.7863 -0.7371
16720TIP3   OH271650   2.834   3.786   0.926 -0.1087 -0.8822 -0.0994
16720TIP3    H171651   2.796   3.840   0.858 -0.9509 -1.8376 -0.4141
16720TIP3    H271652   2.852   3.847   0.998  0.4933  0.0753 -1.0330
16721TIP3   OH271653   4.893   5.556  11.994  0.1971 -0.1976 -0.3619
16721TIP3    H171654   4.832   5.485  11.975  0.0053  0.2328 -1.3836
16721TIP3    H271655   4.950   5.560  11.918  1.5377 -0.5943  0.5762
16722TIP3   OH271656   1.101   5.094  16.139 -0.6783 -0.1437 -0.2753
16722TIP3    H171657   1.157   5.056  16.070 -0.8359 -0.1753 -0.3863
16722TIP3    H271658   1.151   5.169  16.171 -0.0827 -0.7993  0.3760
16723TIP3   OH271659   1.171   4.678  15.578 -0.1082  0.0949  0.5385
16723TIP3    H171660   1.101   4.716  15.631  0.1444  0.9843  0.2609
16723TIP3    H271661   1.162   4.721  15.492  0.1029 -0.5904  0.1660
16724TIP3   OH271662   6.359   3.110  16.880  0.3403 -0.3492  0.2645
16724TIP3    H171663   6.419   3.155  16.820 -2.1540  2.2851 -0.4868
16724TIP3    H271664   6.415   3.049  16.928  3.4203  1.2295 -1.0018
16725TIP3   OH271665   1.880   4.184  11.459  0.1515  0.0207 -0.1373
16725TIP3    H171666   1.942   4.200  11.530  0.1542 -1.0079  0.1150
16725TIP3    H271667   1.909   4.241  11.388  0.5491  0.5686  0.4560
16726TIP3   OH271668   3.375   3.643  16.284 -0.6570  0.0809 -0.0655
16726TIP3    H171669   3.299   3.638  16.341 -0.1361  1.1557  0.7511
16726TIP3    H271670   3.381   3.556  16.244 -2.7074  0.1791 -0.6835
16727TIP3   OH271671   0.337   4.875  13.467  0.9290  0.5044  0.5452
16727TIP3    H171672   0.267   4.922  13.423  1.5819  0.8664 -0.1103
16727TIP3    H271673   0.294   4.833  13.542 -0.2017 -0.1680 -0.4486
16728TIP3   OH271674   1.500   0.280   5.349  0.3764 -0.2021 -0.2058
16728TIP3    H171675   1.517   0.334   5.272 -0.5198  0.9292  0.3681
16728TIP3    H271676   1.552   0.319   5.419 -0.4915  0.1143  0.2821
16729TIP3   OH271677   4.378   1.451  14.167  0.8181 -0.3409  0.0027
16729TIP3    H171678   4.435   1.492  14.102  2.7793 -0.7240  1.3891
16729TIP3    H271679   4.424   1.371  14.192 -1.2018 -1.5832 -0.0654
16730TIP3   OH271680   4.262   1.098  12.097 -0.9579  0.0284  0.0823
16730TIP3    H171681   4.313   1.071  12.173  0.9953  1.9001 -0.4713
16730TIP3    H271682   4.262   1.194  12.100  0.9459  0.2787 -3.2865
16731TIP3   OH271683   1.355   4.976  15.188 -0.1707 -0.5219 -0.4719
16731TIP3    H171684   1.371   4.942  15.100  1.0121  0.0507 -0.4950
16731TIP3    H271685   1.335   5.069  15.175 -0.5657 -0.5628 -0.1752
16732TIP3   OH271686   4.748   4.125   5.133 -0.0585 -0.1110  0.0836
16732TIP3    H171687   4.750   4.173   5.049 -1.9259 -1.5969 -0.8893
16732TIP3    H271688   4.738   4.033   5.108 -1.1767 -0.5424  1.9299
16733TIP3   OH271689   5.870   3.128   1.066  0.0400  0.6751 -0.4463
16733TIP3    H171690   5.911   3.210   1.038 -1.1764  1.5076  0.0920
16733TIP3    H271691   5.941   3.064   1.064  0.7953  1.4987 -1.8615
16734TIP3   OH271692   4.362   4.275   0.021  0.1278 -0.2464 -0.5098
16734TIP3    H171693   4.407   4.233   0.094  0.5497  1.6198  0.3631
16734TIP3    H271694   4.294   4.329   0.061  0.6932  1.2117 -1.4129
16735TIP3   OH271695   1.895   0.998   3.697 -0.6128  0.0203  0.2144
16735TIP3    H171696   1.814   1.043   3.720  0.8324  1.5981  2.8041
16735TIP3    H271697   1.961   1.068   3.697  1.3216 -1.6671  1.8557
16736TIP3   OH271698   2.824   2.505  15.842 -0.4198 -0.3346  0.7191
16736TIP3    H171699   2.730   2.487  15.840 -0.6272  0.7605 -0.2685
16736TIP3    H271700   2.865   2.422  15.818 -1.1071 -0.8880  1.3970
16737TIP3   OH271701   3.497   5.204  16.094  0.3925  0.2158  0.2013
16737TIP3    H171702   3.573   5.183  16.040  1.0432  0.5128  0.9706
16737TIP3    H271703   3.499   5.140  16.165 -0.7754 -0.5220 -0.4022
16738TIP3   OH271704   1.962   4.470   3.524  0.2148  0.0368 -0.0653
16738TIP3    H171705   1.949   4.379   3.552  0.8037  0.3918  1.4736
16738TIP3    H271706   1.892   4.519   3.567 -0.1977  0.3018 -1.0170
16739TIP3   OH271707   5.015   4.224  14.175 -0.0840  0.1751 -0.3723
16739TIP3    H171708   5.032   4.186  14.089  0.2087  1.2209 -0.7842
16739TIP3    H271709   5.016   4.318  14.161  0.4186  0.3760  0.8580
16740TIP3   OH271710   3.554   0.657  14.858  0.1494  0.3829 -0.3861
16740TIP3    H171711   3.475   0.636  14.907 -0.2518 -1.3794 -1.6882
16740TIP3    H271712   3.622   0.667  14.924 -0.5804 -0.9223  0.6059
16741TIP3   OH271713   2.905   3.181   2.170  0.1611 -0.3152  0.3841
16741TIP3    H171714   2.899   3.132   2.253  0.7369 -1.0000  0.0332
16741TIP3    H271715   2.950   3.262   2.193  1.2981 -0.9792  0.5534
16742TIP3   OH271716   1.845   0.100  14.817  0.1486  0.3122 -0.0200
16742TIP3    H171717   1.928   0.128  14.779 -0.4907  3.0405  0.3820
16742TIP3    H271718   1.848   0.130  14.907 -1.1359  0.1120  0.1173
16743TIP3   OH271719   1.288   2.451   0.259 -0.5054 -0.4375  0.2982
16743TIP3    H171720   1.352   2.517   0.233  1.0728 -2.0800 -0.1755
16743TIP3    H271721   1.210   2.471   0.206 -0.3714  1.4776  0.7533
16744TIP3   OH271722   4.401   2.863   0.958  0.1077 -0.0254  0.0341
16744TIP3    H171723   4.384   2.830   0.870  1.1404  0.4472 -0.3630
16744TIP3    H271724   4.322   2.841   1.008 -1.1543  1.0790 -1.3867
16745TIP3   OH271725   5.729   6.502  14.389 -0.2737  0.3114  0.4331
16745TIP3    H171726   5.741   6.584  14.436  0.1335  0.3555  0.2565
16745TIP3    H271727   5.668   6.452  14.443  0.9501 -0.0440  1.5323
16746TIP3   OH271728   2.174   0.772  14.832  0.3104 -0.5628 -0.0245
16746TIP3    H171729   2.104   0.803  14.774  0.4631 -0.7984 -0.3357
16746TIP3    H271730   2.207   0.693  14.789 -0.6726 -1.6915  1.1961
16747TIP3   OH271731   4.102   1.908  12.674  0.3730  0.6367 -0.0934
16747TIP3    H171732   4.048   1.952  12.609 -1.3072  0.8839  1.3927
16747TIP3    H271733   4.095   1.815  12.653  2.8562  0.8599 -2.4352
16748TIP3   OH271734   5.758   0.363   0.378 -0.1075  0.5725  0.4344
16748TIP3    H171735   5.755   0.375   0.473 -2.8337  3.0510  0.1558
16748TIP3    H271736   5.840   0.405   0.352 -0.1894  1.4705  1.5287
16749TIP3   OH271737   3.462   6.814  14.539 -0.9972 -0.3014 -0.0984
16749TIP3    H171738   3.471   6.723  14.567 -1.6438 -0.3517 -0.0494
16749TIP3    H271739   3.513   6.819  14.458 -0.4425 -0.5475  0.2329
16750TIP3   OH271740   1.673   1.621   1.425  0.3101  0.4249 -0.0835
16750TIP3    H171741   1.643   1.704   1.463  0.2037  1.1045 -1.6117
16750TIP3    H271742   1.750   1.644   1.374  1.2910 -0.7174  0.8232
16751TIP3   OH271743   6.176   3.994  14.901 -0.0952  0.4281 -0.3615
16751TIP3    H171744   6.195   4.087  14.884 -1.0336  0.7957  0.5229
16751TIP3    H271745   6.161   3.989  14.995 -3.2567  0.0015 -0.7915
16752TIP3   OH271746   1.384   6.452  16.381 -0.5984 -0.4021  0.0473
16752TIP3    H171747   1.300   6.481  16.416  1.1718  2.0319  2.8136
16752TIP3    H271748   1.424   6.532  16.347  0.7397 -1.4496 -0.9231
16753TIP3   OH271749   2.660   3.284  15.336 -0.4572 -0.5665 -0.2448
16753TIP3    H171750   2.730   3.242  15.288  1.4938  1.7609  0.3741
16753TIP3    H271751   2.691   3.287  15.427 -0.3815  2.2442 -0.2876
16754TIP3   OH271752   4.467   5.793  15.449 -0.6279  0.5784 -0.2060
16754TIP3    H171753   4.550   5.764  15.487  0.3305  2.3539 -0.8322
16754TIP3    H271754   4.402   5.776  15.517  0.5835  1.0203  1.0905
16755TIP3   OH271755   4.878   2.911   0.520  0.6738  0.4422  0.6367
16755TIP3    H171756   4.804   2.851   0.514 -0.1835  1.2965  2.2056
16755TIP3    H271757   4.872   2.964   0.440 -0.9687  1.1059  1.1649
16756TIP3   OH271758   2.656   2.259   5.547  0.0770  0.0090 -0.1706
16756TIP3    H171759   2.577   2.308   5.527  0.2002  0.7698  1.1021
16756TIP3    H271760   2.702   2.252   5.463 -0.9788  0.1921 -0.7758
16757TIP3   OH271761   4.657   1.128   4.330 -0.0832 -0.5289  0.0379
16757TIP3    H171762   4.739   1.173   4.312 -1.0886  0.6522 -1.9405
16757TIP3    H271763   4.618   1.177   4.403 -0.0050  0.2370 -0.4298
16758TIP3   OH271764   6.614   0.151  12.438  0.2354 -0.3211  0.0335
16758TIP3    H171765   6.601   0.156  12.533 -0.3577  0.4535 -0.0806
16758TIP3    H271766   6.661   0.069  12.424  1.9110  0.3865  1.1769
16759TIP3   OH271767   1.762   2.951  13.628 -0.1867 -0.3896  0.0220
16759TIP3    H171768   1.847   2.969  13.668 -0.2873 -0.4288  0.2559
16759TIP3    H271769   1.719   2.891  13.689 -1.0056  0.8463  0.7107
16760TIP3   OH271770   2.124   1.697  13.091  0.0138 -0.0344  0.3588
16760TIP3    H171771   2.137   1.762  13.021 -0.6181  0.0124  0.2802
16760TIP3    H271772   2.063   1.739  13.152 -0.4406 -0.5713  0.2806
16761TIP3   OH271773   6.555   4.186   1.573  0.6260  0.2085  0.4369
16761TIP3    H171774   6.563   4.141   1.489 -3.4003 -0.1229  0.0102
16761TIP3    H271775   6.541   4.115   1.637 -1.7625  0.5639  0.4001
16762TIP3   OH271776   5.578   4.583  14.699 -0.3384 -0.4452  0.2075
16762TIP3    H171777   5.576   4.508  14.639 -0.3690  0.4525 -0.9600
16762TIP3    H271778   5.564   4.545  14.786  2.5020 -2.1553  0.0471
16763TIP3   OH271779   4.400   6.323   3.110  0.6479 -0.3437  0.5224
16763TIP3    H171780   4.433   6.379   3.180  0.6771  0.1389  0.1224
16763TIP3    H271781   4.378   6.383   3.039 -1.3738 -0.5969  0.8717
16764TIP3   OH271782   5.309   5.692   1.259  0.0109 -0.2437 -0.5930
16764TIP3    H171783   5.261   5.611   1.240 -1.0692 -0.0053  0.9487
16764TIP3    H271784   5.356   5.712   1.177  0.6326 -2.6268 -0.8980
16765TIP3   OH271785   4.214   6.278   5.542 -0.0354 -0.2581  0.1610
16765TIP3    H171786   4.241   6.344   5.478  1.5995  0.2173  1.2941
16765TIP3    H271787   4.294   6.230   5.562 -0.7189 -1.0204  1.1492
16766TIP3   OH271788   0.671   1.981   0.278  0.1433 -0.0788  0.1976
16766TIP3    H171789   0.590   1.999   0.230  0.5467 -0.4165 -0.6323
16766TIP3    H271790   0.705   2.068   0.301 -0.2067  0.0763  0.1301
16767TIP3   OH271791   5.705   4.625  13.605 -1.2714 -0.1980 -0.3523
16767TIP3    H171792   5.641   4.554  13.600 -2.4403  0.8324 -0.4841
16767TIP3    H271793   5.653   4.703  13.626  0.1270  0.4235  0.9434
16768TIP3   OH271794   4.059   3.824   2.006 -0.1255 -0.2757 -0.0616
16768TIP3    H171795   4.007   3.901   2.029 -0.2921 -0.1111 -0.9647
16768TIP3    H271796   4.150   3.854   2.012 -0.1117 -0.5271  1.3855
16769TIP3   OH271797   0.435   4.348  13.639 -0.1156 -0.3218  0.2713
16769TIP3    H171798   0.413   4.433  13.599 -0.9872 -0.0649  1.2431
16769TIP3    H271799   0.519   4.324  13.601 -0.0485  0.7933 -0.3187
16770TIP3   OH271800   4.819   0.785  17.084 -0.0660  0.6038 -0.2589
16770TIP3    H171801   4.775   0.857  17.128 -0.6476  0.7269 -1.0193
16770TIP3    H271802   4.748   0.734  17.045  0.1482 -1.5750  1.9606
16771TIP3   OH271803   0.880   4.387   5.039 -0.2586 -0.3678  0.2081
16771TIP3    H171804   0.904   4.479   5.053 -4.2262  1.0297 -0.7976
16771TIP3    H271805   0.906   4.370   4.948  0.2353 -0.1641  0.3068
16772TIP3   OH271806   5.100   0.058  15.744  0.1776 -0.0310 -0.5006
16772TIP3    H171807   5.019   0.095  15.710 -1.7413 -1.2949  2.2587
16772TIP3    H271808   5.112  -0.023  15.694 -1.0135 -0.4689 -0.1215
16773TIP3   OH271809   4.249   6.328   4.581  0.2625 -0.1822 -0.0855
16773TIP3    H171810   4.232   6.408   4.632  0.8014  0.6456 -1.1783
16773TIP3    H271811   4.164   6.303   4.546  0.4847  1.4496 -1.9209
16774TIP3   OH271812   2.294   5.115  16.115  0.0780 -0.3169 -0.0672
16774TIP3    H171813   2.317   5.027  16.143 -0.1560  0.0829  1.5111
16774TIP3    H271814   2.378   5.161  16.109  0.1248 -0.3597  0.2222
16775TIP3   OH271815   2.575   0.433   4.150 -0.6921 -0.1747 -0.2171
16775TIP3    H171816   2.502   0.390   4.195 -0.1389 -1.7009 -0.7406
16775TIP3    H271817   2.543   0.449   4.061 -1.6314  2.4596  0.4880
16776TIP3   OH271818   2.802   0.615  13.453  0.0876  0.1694 -0.6012
16776TIP3    H171819   2.718   0.629  13.410 -0.3418 -1.6381 -0.4316
16776TIP3    H271820   2.779   0.593  13.544  0.6939 -0.7919 -0.6651
16777TIP3   OH271821   6.350   5.505   2.412  0.6393  0.1696 -0.4503
16777TIP3    H171822   6.431   5.464   2.381  0.1715 -0.0320 -1.4446
16777TIP3    H271823   6.345   5.587   2.363  0.1360  0.0721 -0.5680
16778TIP3   OH271824   1.331   3.690  17.219  0.2768  0.4753  0.1694
16778TIP3    H171825   1.254   3.706  17.273  0.5503  1.2568  0.3423
16778TIP3    H271826   1.355   3.776  17.185  2.2074  0.6080  1.6751
16779TIP3   OH271827   0.442   6.247   0.011 -0.2883  0.1025 -0.0866
16779TIP3    H171828   0.360   6.296   0.008 -0.3098  0.0524 -0.3729
16779TIP3    H271829   0.445   6.200  -0.072  0.6886  1.1954 -0.6951
16780TIP3   OH271830   6.558   5.527   4.916  0.2185 -0.3291  0.2532
16780TIP3    H171831   6.577   5.494   5.004  0.4425  0.4143  0.4919
16780TIP3    H271832   6.644   5.534   4.875  0.1818  0.0097  0.2300
16781TIP3   OH271833   5.898   3.281   2.023  0.2027  0.0858 -0.4610
16781TIP3    H171834   5.920   3.359   2.074 -1.5800  1.1295 -1.1758
16781TIP3    H271835   5.804   3.290   2.005  0.3944 -1.1285 -2.4070
16782TIP3   OH271836   4.308   5.746  13.974  0.1179  0.3778 -0.3439
16782TIP3    H171837   4.219   5.746  13.938  0.5803  0.0659 -1.5437
16782TIP3    H271838   4.348   5.825  13.937 -0.1373  1.4349  1.5127
16783TIP3   OH271839   1.367   2.430   4.589  0.0039  0.3628  0.2559
16783TIP3    H171840   1.330   2.506   4.545  1.7507  1.1599  0.0683
16783TIP3    H271841   1.302   2.361   4.576 -0.7255  1.2786 -1.2940
16784TIP3   OH271842   4.399   0.219  16.333  0.1594 -0.8733  0.0208
16784TIP3    H171843   4.331   0.247  16.271 -0.1772 -0.0530  0.7461
16784TIP3    H271844   4.360   0.231  16.419  0.7978 -1.5586  0.4168
16785TIP3   OH271845   5.713   6.805   1.636 -0.8714  0.5570 -0.4307
16785TIP3    H171846   5.623   6.836   1.639 -0.6466  1.1854 -0.0059
16785TIP3    H271847   5.738   6.810   1.544 -0.5911  2.3789 -0.2799
16786TIP3   OH271848   4.773   5.946   5.827 -0.3160  0.0398  0.6260
16786TIP3    H171849   4.829   5.868   5.822  1.8430  1.4762  0.8864
16786TIP3    H271850   4.686   5.916   5.800  0.6254 -2.2553 -0.0589
16787TIP3   OH271851   6.021   2.003   4.112 -0.0898  0.1777  0.1156
16787TIP3    H171852   6.073   1.930   4.146 -0.2474 -0.1194 -0.2732
16787TIP3    H271853   6.086   2.070   4.090  0.3573 -0.9418 -2.2639
16788TIP3   OH271854   6.024   6.799  12.115 -0.2363  0.2843  0.0216
16788TIP3    H171855   6.005   6.707  12.131 -3.4486  0.9861  1.0496
16788TIP3    H271856   5.947   6.831  12.067  0.0568  2.7386  1.0375
16789TIP3   OH271857   2.031   3.185  13.238  0.2891 -0.1223  0.0853
16789TIP3    H171858   1.976   3.251  13.280 -0.0191 -0.2769 -0.0725
16789TIP3    H271859   2.096   3.235  13.189  1.1663  0.0705  1.4005
16790TIP3   OH271860   4.363   3.011  16.191 -0.3408  0.5107 -0.1396
16790TIP3    H171861   4.437   2.952  16.176 -1.0379 -1.0363  1.8620
16790TIP3    H271862   4.295   2.979  16.132 -0.6909 -0.7253  0.8864
16791TIP3   OH271863   0.031   0.697   2.129  1.1983  0.3033  0.2173
16791TIP3    H171864   0.082   0.710   2.049  1.3528 -0.0487  0.2581
16791TIP3    H271865  -0.059   0.686   2.098  1.4311 -1.1894 -0.0319
16792TIP3   OH271866   5.044   1.572  11.161 -0.2430  0.4192  1.0880
16792TIP3    H171867   5.003   1.621  11.089  1.5542  1.9363  1.0210
16792TIP3    H271868   5.057   1.484  11.126 -2.4027  0.1778  0.7580
16793TIP3   OH271869   0.082   0.534  12.272 -0.1697 -0.2025  0.2214
16793TIP3    H171870   0.174   0.529  12.299 -0.5070 -0.3184  1.4294
16793TIP3    H271871   0.057   0.444  12.256  0.3884 -0.0303 -1.8477
16794TIP3   OH271872   3.319   2.237   3.878  0.1615 -0.0348  0.2085
16794TIP3    H171873   3.403   2.280   3.864  0.5630 -1.2918 -1.6479
16794TIP3    H271874   3.296   2.257   3.969  1.9711  1.1555  0.4464
16795TIP3   OH271875   2.238   3.466  11.882 -0.0222  0.7136 -0.3513
16795TIP3    H171876   2.146   3.441  11.890  0.3511 -0.9157 -0.8653
16795TIP3    H271877   2.286   3.395  11.924  1.0086  1.7572  0.3145
16796TIP3   OH271878   2.281   2.623   1.876  0.3335 -0.6208  0.4107
16796TIP3    H171879   2.205   2.671   1.843  1.4998  1.2878  0.3175
16796TIP3    H271880   2.351   2.688   1.876  1.7728 -2.1120  1.2494
16797TIP3   OH271881   6.224   2.041  16.333 -0.0425  0.4494 -0.1404
16797TIP3    H171882   6.310   2.068  16.300 -0.9378  1.2935 -1.9717
16797TIP3    H271883   6.168   2.043  16.256 -1.1833 -2.5877  0.4785
16798TIP3   OH271884   4.445   6.443  11.335  0.1967  0.1193  0.0451
16798TIP3    H171885   4.461   6.379  11.266  0.9099 -0.1651  0.4603
16798TIP3    H271886   4.530   6.455  11.377  0.5032  2.7006 -1.1367
16799TIP3   OH271887   5.070   1.248   0.343 -0.1538 -0.1116  0.3482
16799TIP3    H171888   5.014   1.294   0.406  2.0458 -0.0649  2.4450
16799TIP3    H271889   5.047   1.156   0.353 -0.1398 -0.0582  0.9071
16800TIP3   OH271890   1.343   2.913   4.754  0.0083 -0.4384 -0.6153
16800TIP3    H171891   1.345   2.908   4.658  1.6039  0.5873 -0.6866
16800TIP3    H271892   1.425   2.957   4.777 -0.6228 -0.1172  1.1981
16801TIP3   OH271893   4.354   3.640  14.043  0.1949  0.3764 -0.1569
16801TIP3    H171894   4.302   3.664  14.120 -3.2352  1.0679 -2.4739
16801TIP3    H271895   4.361   3.722  13.993 -0.5842 -0.6894 -2.1118
16802TIP3   OH271896   1.869   5.479   5.581 -0.5955 -0.4848  0.8444
16802TIP3    H171897   1.837   5.392   5.605 -2.0078 -0.6610 -1.4700
16802TIP3    H271898   1.915   5.509   5.660 -1.8615 -2.4449  2.4412
16803TIP3   OH271899   1.233   0.238  11.267  0.1339  0.8818  0.0869
16803TIP3    H171900   1.320   0.274  11.283  0.5227  0.3870 -0.8095
16803TIP3    H271901   1.250   0.147  11.241 -0.6524  0.7826 -0.0944
16804TIP3   OH271902   4.793   3.195  16.136 -0.1339  0.5063  0.4381
16804TIP3    H171903   4.707   3.218  16.101 -0.3177  1.6063  1.5513
16804TIP3    H271904   4.796   3.236  16.222  0.8425 -0.9792  1.1579
16805TIP3   OH271905   1.650   4.151  14.789  0.0374 -0.3726 -0.4485
16805TIP3    H171906   1.699   4.229  14.814 -1.0262  0.6720 -1.5250
16805TIP3    H271907   1.717   4.085  14.771  0.9300 -0.0351  1.3935
16806TIP3   OH271908   4.700   1.423   0.312 -0.1337  0.0666 -0.7869
16806TIP3    H171909   4.662   1.479   0.244  0.1933  1.0127 -0.2141
16806TIP3    H271910   4.675   1.334   0.287 -2.3617  0.5996 -0.6880
16807TIP3   OH271911   0.382   5.587  11.635  0.1166 -0.1633  0.3900
16807TIP3    H171912   0.322   5.628  11.696  0.2694 -1.5020  1.4914
16807TIP3    H271913   0.329   5.521  11.590  0.3746 -0.2311  0.1799
16808TIP3   OH271914   3.022   2.483  12.540 -0.2529  0.2357  0.4119
16808TIP3    H171915   2.997   2.575  12.554  0.1146  0.7241 -1.7364
16808TIP3    H271916   2.940   2.440  12.516 -0.3526  0.0716  1.0221
16809TIP3   OH271917   4.959   3.873  12.273  0.2942 -0.2816 -0.0532
16809TIP3    H171918   4.931   3.820  12.348  0.1812  0.6941  0.6195
16809TIP3    H271919   5.035   3.827  12.239  0.6896 -0.4695  1.0208
16810TIP3   OH271920   5.022   3.322  15.453  0.0489 -0.4393 -0.2725
16810TIP3    H171921   5.033   3.309  15.548  1.3559  0.4483 -0.2882
16810TIP3    H271922   5.070   3.249  15.414 -0.5058 -0.8160 -0.2752
16811TIP3   OH271923   1.443   2.835  14.152 -0.1142  0.5111 -0.2026
16811TIP3    H171924   1.449   2.873  14.064  0.1248  3.1974  0.8795
16811TIP3    H271925   1.411   2.906  14.207  1.6985 -0.4277  2.2640
16812TIP3   OH271926   4.563   4.826  13.946 -0.2315  0.6873 -0.2869
16812TIP3    H171927   4.582   4.873  14.027 -0.2798  0.9227 -0.4116
16812TIP3    H271928   4.486   4.871  13.909 -1.2878 -0.4976  0.4109
16813TIP3   OH271929   1.916   1.885  16.620 -0.0183  0.3199 -0.0410
16813TIP3    H171930   1.882   1.972  16.599 -0.3489  0.1511 -0.2040
16813TIP3    H271931   1.953   1.894  16.708 -0.4254  0.5193  0.1112
16814TIP3   OH271932   0.815   2.990  14.198  0.0545 -0.4772 -0.0998
16814TIP3    H171933   0.852   2.903  14.213 -0.6251 -0.9394 -0.9766
16814TIP3    H271934   0.720   2.977  14.207 -0.1048 -0.0028 -1.0199
16815TIP3   OH271935   2.037   6.269   4.030  0.2767 -0.6067 -0.0138
16815TIP3    H171936   2.035   6.362   4.009 -0.6230 -0.5209  0.4174
16815TIP3    H271937   2.129   6.251   4.049  0.5933  0.0075 -0.8800
16816TIP3   OH271938   5.720   4.651  13.148  0.1439  0.2300  0.4066
16816TIP3    H171939   5.670   4.655  13.066 -0.7447  1.8037  0.9631
16816TIP3    H271940   5.669   4.592  13.204  0.5143 -0.4950 -0.0048
16817TIP3   OH271941   6.259   1.202   1.044 -0.5240  0.2009 -0.5153
16817TIP3    H171942   6.271   1.247   0.960  1.5741  0.2387 -0.2633
16817TIP3    H271943   6.264   1.109   1.022  2.8320  0.1858 -0.2244
16818TIP3   OH271944   0.185   0.834   6.529 -0.5002 -0.4865  0.2339
16818TIP3    H171945   0.193   0.914   6.477  1.0760  0.2678  1.5540
16818TIP3    H271946   0.125   0.858   6.600 -0.4844 -0.6632  0.3072
16819TIP3   OH271947   0.364   3.357  14.904 -0.3084 -0.3479 -0.2044
16819TIP3    H171948   0.424   3.396  14.967  1.0203 -1.3373 -0.7938
16819TIP3    H271949   0.356   3.422  14.834 -1.3126  0.5016  0.6774
16820TIP3   OH271950   4.865   1.054   1.708 -0.7767  0.1301  0.0822
16820TIP3    H171951   4.843   1.147   1.705 -1.7813  0.0251  2.6118
16820TIP3    H271952   4.787   1.011   1.742 -0.9309 -1.9347 -2.5497
16821TIP3   OH271953   6.122   5.997  13.323  0.1309 -0.0601 -0.0127
16821TIP3    H171954   6.124   6.090  13.303  1.3997 -0.2077 -0.6952
16821TIP3    H271955   6.171   5.956  13.251 -0.1549 -1.2161  0.4315
16822TIP3   OH271956   1.140   4.777   4.809 -0.0424  0.3316 -0.7547
16822TIP3    H171957   1.166   4.800   4.899  2.1078  0.1904 -1.2986
16822TIP3    H271958   1.116   4.685   4.814  1.2677 -0.0179 -0.5264
16823TIP3   OH271959   5.599   1.480   5.099 -0.1133  0.1713  0.7077
16823TIP3    H171960   5.692   1.466   5.082 -0.4538 -0.6485 -0.6855
16823TIP3    H271961   5.581   1.568   5.066  0.2640  0.5214  1.4318
16824TIP3   OH271962   5.975   6.156  14.141  0.2973 -0.0801  0.4698
16824TIP3    H171963   5.957   6.248  14.125  1.3532  0.2063  0.8166
16824TIP3    H271964   5.909   6.109  14.091 -1.8235  0.8603  2.2106
16825TIP3   OH271965   3.988   0.828  16.596  0.3768 -0.1485 -0.8661
16825TIP3    H171966   3.978   0.917  16.562 -0.1645 -0.0013 -0.3463
16825TIP3    H271967   4.082   0.815  16.603  0.4519  0.6269 -0.3462
16826TIP3   OH271968   0.613   3.714  14.701 -0.7729  0.0176 -0.0204
16826TIP3    H171969   0.541   3.770  14.728 -0.4719  0.4712 -0.1437
16826TIP3    H271970   0.655   3.761  14.629  0.9753  0.8267  1.4362
16827TIP3   OH271971   5.117   3.728  12.891  0.4468  0.3339 -0.4831
16827TIP3    H171972   5.181   3.799  12.896 -1.1652  1.8335 -0.0226
16827TIP3    H271973   5.107   3.698  12.981  1.3016 -0.6958 -0.7069
16828TIP3   OH271974   2.496   1.701  16.510  0.2029 -0.6969 -0.0602
16828TIP3    H171975   2.409   1.700  16.551 -0.6746 -1.1833 -1.8342
16828TIP3    H271976   2.535   1.782  16.540 -2.0930  1.0962 -1.5639
16829TIP3   OH271977   0.282   6.611  11.921  0.3745 -0.1367 -0.0442
16829TIP3    H171978   0.196   6.596  11.961 -0.5001 -1.0640 -2.0830
16829TIP3    H271979   0.272   6.695  11.875  0.4697 -0.3538 -0.4655
16830TIP3   OH271980   1.997   0.832  13.505 -0.3370 -0.0762  0.1057
16830TIP3    H171981   2.031   0.903  13.559  2.0596  1.3349 -2.9750
16830TIP3    H271982   1.902   0.846  13.504 -0.0926  2.0552  0.9074
16831TIP3   OH271983   4.045   4.071  13.148 -0.3687  0.0005 -0.4007
16831TIP3    H171984   4.126   4.071  13.199  0.5583 -0.8798 -1.8208
16831TIP3    H271985   3.994   4.144  13.184  0.6072 -0.0615  1.1906
16832TIP3   OH271986   5.876   6.072   4.758 -0.3180  0.3983  0.2865
16832TIP3    H171987   5.867   6.005   4.827  0.0091 -0.4287 -0.4502
16832TIP3    H271988   5.970   6.090   4.754 -0.2437 -0.1265 -0.4578
16833TIP3   OH271989   5.492   3.911  13.609 -0.3968 -0.5686  0.1683
16833TIP3    H171990   5.538   3.926  13.691  0.8455  1.6611 -0.8406
16833TIP3    H271991   5.522   3.981  13.551 -0.0493 -2.8431 -2.6938
16834TIP3   OH271992   2.324   3.018  13.141 -0.0171 -0.5082 -0.0767
16834TIP3    H171993   2.284   3.099  13.172  0.6951  0.4588 -1.5444
16834TIP3    H271994   2.252   2.970  13.099 -0.4448 -0.6728  0.8174
16835TIP3   OH271995   0.471   3.610   5.514 -0.1851  0.2227  0.2046
16835TIP3    H171996   0.380   3.599   5.543 -0.2130  0.1969  0.1063
16835TIP3    H271997   0.513   3.658   5.586 -0.4402  0.8274 -0.0407
16836TIP3   OH271998   5.374   6.775  13.428  0.2415  0.0258 -0.1707
16836TIP3    H171999   5.461   6.802  13.400 -0.5459  2.3093 -0.6532
16836TIP3    H272000   5.355   6.830  13.504  0.1574 -2.2319  1.5657
16837TIP3   OH272001   4.426   0.790  15.216 -0.6934 -0.5620 -0.4673
16837TIP3    H172002   4.390   0.864  15.167 -0.2057 -1.6558 -2.5898
16837TIP3    H272003   4.353   0.729  15.225 -0.2712 -1.2890 -1.7596
16838TIP3   OH272004   0.241   2.226   2.538 -0.4307  0.5056 -0.0287
16838TIP3    H172005   0.231   2.227   2.443 -0.8064  0.8228  0.0139
16838TIP3    H272006   0.223   2.135   2.563  1.5854 -0.0520 -0.4543
16839TIP3   OH272007   2.707   2.659   5.998  0.4423  0.7343 -0.3052
16839TIP3    H172008   2.768   2.653   5.924  0.4794 -0.3664 -0.1999
16839TIP3    H272009   2.685   2.752   6.003 -0.5265  0.6905 -2.4816
16840TIP3   OH272010   6.297   5.944  13.090 -0.8779 -0.1852  0.4457
16840TIP3    H172011   6.335   6.031  13.100 -0.5884 -0.2061 -0.4334
16840TIP3    H272012   6.289   5.932  12.996 -0.5134 -1.2861  0.5435
16841TIP3   OH272013   0.440   6.193   5.488 -0.5007  0.0478  0.5388
16841TIP3    H172014   0.424   6.109   5.531  0.5302  0.0814  1.0187
16841TIP3    H272015   0.503   6.173   5.419  1.1191  0.6838  1.7686
16842TIP3   OH272016   4.480   1.321   5.602  0.1714 -0.0877  0.8524
16842TIP3    H172017   4.542   1.380   5.559  1.0567 -0.6829  1.2675
16842TIP3    H272018   4.394   1.354   5.578  0.6117  2.1841  2.1072
16843TIP3   OH272019   4.862   3.860  15.026 -0.2646  0.1044  0.2919
16843TIP3    H172020   4.786   3.802  15.027 -1.3351  1.3778 -1.2567
16843TIP3    H272021   4.829   3.943  15.061  0.5162  0.5471  0.0066
16844TIP3   OH272022   2.455   3.059  16.586  0.1321  0.2997  0.4602
16844TIP3    H172023   2.483   2.994  16.521 -0.1541  1.6636 -1.1215
16844TIP3    H272024   2.396   3.012  16.644 -0.4489 -0.7507 -0.9232
16845TIP3   OH272025   1.624   2.873  11.218  0.3499  0.9243 -0.0315
16845TIP3    H172026   1.556   2.809  11.194 -0.2221  1.6307 -0.3076
16845TIP3    H272027   1.623   2.937  11.147  0.3934  1.6535  0.6118
16846TIP3   OH272028   3.341   0.739  11.894  0.6653  0.2486  0.0513
16846TIP3    H172029   3.307   0.772  11.811  1.4927  0.1325 -0.3357
16846TIP3    H272030   3.328   0.645  11.889 -1.0582  0.3991  0.8708
16847TIP3   OH272031   5.691   6.787  15.701 -0.4486 -0.0972  0.1449
16847TIP3    H172032   5.662   6.863  15.751 -1.1899 -0.5238  0.3852
16847TIP3    H272033   5.784   6.801  15.687 -0.8839  1.7271 -1.3487
16848TIP3   OH272034   0.935   5.238  16.633  0.2271 -0.1164 -0.2547
16848TIP3    H172035   1.010   5.180  16.623  1.2848  1.2466 -0.5667
16848TIP3    H272036   0.877   5.216  16.560  1.4879  0.4651 -1.4625
16849TIP3   OH272037   0.387   0.972   1.779 -0.3493 -0.0732 -0.0315
16849TIP3    H172038   0.451   1.042   1.768 -0.9764  0.3645 -1.0053
16849TIP3    H272039   0.396   0.919   1.700 -2.4617  1.0645 -1.1117
16850TIP3   OH272040   5.584   0.618  13.880 -0.0136 -0.1623 -0.1286
16850TIP3    H172041   5.656   0.599  13.820 -0.4424 -0.4642 -0.5452
16850TIP3    H272042   5.627   0.632  13.965  0.7574  1.8607 -0.7947
16851TIP3   OH272043   2.787   6.479   0.334  0.2148 -0.3714  0.6216
16851TIP3    H172044   2.815   6.557   0.286 -1.7037  1.3749  2.1622
16851TIP3    H272045   2.699   6.500   0.365  0.7292 -1.9993  3.5408
16852TIP3   OH272046   5.137   4.328   4.637  0.4718  0.3298 -0.1409
16852TIP3    H172047   5.225   4.291   4.635  0.5885  0.3203  2.0799
16852TIP3    H272048   5.151   4.423   4.628  0.7297  0.3365  0.2916
16853TIP3   OH272049   4.559   1.712   2.728  0.3318  0.2667 -0.3085
16853TIP3    H172050   4.605   1.698   2.646  1.7890 -1.4134  0.7208
16853TIP3    H272051   4.514   1.629   2.745 -0.4106  0.7793  0.3081
16854TIP3   OH272052   1.661   2.596  16.478 -0.0281 -0.0841  0.5147
16854TIP3    H172053   1.601   2.537  16.524 -0.1162  0.1847  0.7470
16854TIP3    H272054   1.664   2.675  16.532  0.3630 -0.0087  0.3869
16855TIP3   OH272055   0.127   3.747   6.259  0.1230  0.2149  0.3121
16855TIP3    H172056   0.044   3.793   6.251  1.3423  2.2216 -1.6674
16855TIP3    H272057   0.114   3.665   6.211 -0.8248  0.2930  0.4179
16856TIP3   OH272058   5.044   5.401  15.420 -0.4469  0.2624 -0.6278
16856TIP3    H172059   5.133   5.416  15.391 -0.2428 -0.7826 -0.5709
16856TIP3    H272060   5.039   5.307  15.438 -1.2129  0.4873  0.5075
16857TIP3   OH272061   1.964   2.021   1.441 -0.1515  0.1771 -0.2457
16857TIP3    H172062   1.939   2.096   1.388 -0.9583 -0.4861 -0.8177
16857TIP3    H272063   1.928   2.040   1.528 -0.6576  0.2858 -0.4779
16858TIP3   OH272064   0.765   5.244  13.628 -0.5958 -0.0920 -0.0493
16858TIP3    H172065   0.846   5.223  13.675 -0.4854 -4.0651 -1.5836
16858TIP3    H272066   0.697   5.244  13.695  0.1283 -1.3733  0.7339
16859TIP3   OH272067   3.033   4.238   3.287 -0.2610 -0.1359  0.0694
16859TIP3    H172068   3.080   4.321   3.291  0.5517 -0.5736 -0.2770
16859TIP3    H272069   2.948   4.261   3.248  0.1687  0.4310 -0.5466
16860TIP3   OH272070   1.075   4.398  13.397  0.2921  0.3762 -0.1680
16860TIP3    H172071   1.035   4.484  13.410  1.1028  0.8889 -0.8874
16860TIP3    H272072   1.169   4.417  13.388  0.3147 -0.3812 -2.0059
16861TIP3   OH272073   5.306   0.594   1.566 -0.6032 -0.2443 -0.1608
16861TIP3    H172074   5.273   0.529   1.504  1.5606 -1.4652 -0.1558
16861TIP3    H272075   5.291   0.678   1.524  1.1900 -1.0415 -2.6595
16862TIP3   OH272076   5.985   4.350   0.057 -0.7712 -0.0764 -0.1186
16862TIP3    H172077   6.064   4.354   0.111  0.0274 -0.8715 -1.1573
16862TIP3    H272078   5.977   4.257   0.033 -2.2182 -0.0609  0.2210
16863TIP3   OH272079   3.022   6.551  15.100  0.3175 -0.0232 -0.2889
16863TIP3    H172080   2.982   6.512  15.177  0.2509 -0.4071 -0.5103
16863TIP3    H272081   2.948   6.574  15.044  0.3914 -1.8763 -1.2481
16864TIP3   OH272082   2.719   1.590  16.634  0.1912  0.4281  0.2592
16864TIP3    H172083   2.708   1.500  16.603 -1.2010 -0.1588  2.2113
16864TIP3    H272084   2.634   1.631  16.618  0.2437  0.8364  0.9841
16865TIP3   OH272085   0.114   0.893  17.162  0.2400 -0.3570 -0.7917
16865TIP3    H172086   0.133   0.799  17.165  0.3463 -0.3271 -0.4866
16865TIP3    H272087   0.176   0.929  17.099  0.9344 -0.3240 -0.1105
16866TIP3   OH272088   3.977   0.227  16.055  0.7625  0.2236 -0.7606
16866TIP3    H172089   3.924   0.306  16.070  1.5925  0.6732 -0.0758
16866TIP3    H272090   3.982   0.219  15.960 -0.9120 -0.1041 -0.8562
16867TIP3   OH272091   4.162   5.366  15.932  0.1725  0.2167 -0.6823
16867TIP3    H172092   4.222   5.387  16.004  0.9977 -0.8413 -1.0214
16867TIP3    H272093   4.219   5.345  15.859 -0.6197 -0.5182 -1.1107
16868TIP3   OH272094   2.468   2.238   2.212  0.1509 -0.8016  0.4720
16868TIP3    H172095   2.434   2.328   2.206 -0.3627 -1.0471 -0.6151
16868TIP3    H272096   2.412   2.195   2.276  0.5186 -0.2951  1.1386
16869TIP3   OH272097   0.427   4.200   0.138 -0.3682  0.1026  0.7324
16869TIP3    H172098   0.491   4.255   0.093  1.8795 -2.1538  0.9013
16869TIP3    H272099   0.394   4.254   0.209 -0.0315  1.9511 -0.4565
16870TIP3   OH272100   5.646   6.409  11.426  0.2537  0.0704 -0.0185
16870TIP3    H172101   5.675   6.492  11.462  0.0867  0.2923 -0.3907
16870TIP3    H272102   5.561   6.392  11.468 -0.1936  0.5888 -0.6784
16871TIP3   OH272103   4.619   4.976   2.362  0.3247  0.3484  0.2088
16871TIP3    H172104   4.569   5.052   2.329 -0.5006 -0.7588 -1.2176
16871TIP3    H272105   4.708   5.008   2.371 -0.4856  2.2837  2.4297
16872TIP3   OH272106   2.716   3.109   3.390 -0.3615 -0.0577 -0.3785
16872TIP3    H172107   2.740   3.106   3.483 -0.2673 -1.9783 -0.4132
16872TIP3    H272108   2.773   3.176   3.352 -0.5909  0.9427  0.9856
16873TIP3   OH272109   1.013   2.571   2.698 -0.1655  0.3689 -0.1540
16873TIP3    H172110   0.938   2.628   2.679  0.4550  0.3990 -2.9010
16873TIP3    H272111   1.068   2.622   2.757 -1.6765  0.8312  0.9210
16874TIP3   OH272112   5.533   0.356   5.862  0.1517 -0.0104  0.4357
16874TIP3    H172113   5.514   0.326   5.773  0.0871  0.4959  0.2798
16874TIP3    H272114   5.535   0.451   5.856  1.4089 -0.0050  0.7190
16875TIP3   OH272115   4.791   2.980  11.878  0.5371 -0.0452  0.3239
16875TIP3    H172116   4.723   2.949  11.818 -0.6166  2.5341  0.1621
16875TIP3    H272117   4.856   3.021  11.822  0.7888  0.0563  0.6825
16876TIP3   OH272118   3.506   2.970  12.385 -0.6930  0.6886  0.2541
16876TIP3    H172119   3.417   3.004  12.394 -1.3942 -0.9972  0.1782
16876TIP3    H272120   3.525   2.929  12.469  0.3166  1.6805  0.5235
16877TIP3   OH272121   6.214   0.217  10.303  0.0597  0.1384  0.3704
16877TIP3    H172122   6.286   0.214  10.366 -0.4769 -2.0868  0.9603
16877TIP3    H272123   6.220   0.304  10.264  2.8098  0.1939  0.7059
16878TIP3   OH272124   0.547   2.198  12.413  0.4078 -0.3422 -0.2935
16878TIP3    H172125   0.521   2.137  12.343 -1.5363 -0.0556  0.1100
16878TIP3    H272126   0.500   2.166  12.490 -0.9269  1.7986 -0.1316
16879TIP3   OH272127   0.832   5.674  12.773  0.4218  0.4180  0.3833
16879TIP3    H172128   0.807   5.630  12.855  1.0464  0.2768  0.5098
16879TIP3    H272129   0.757   5.662  12.715  1.1554 -2.3314 -0.1736
16880TIP3   OH272130   4.172   1.755   4.640 -0.3644  0.2712 -0.0801
16880TIP3    H172131   4.256   1.790   4.668  0.1452 -1.2409  0.3901
16880TIP3    H272132   4.115   1.831   4.634  0.9366  1.2833 -0.0701
16881TIP3   OH272133   5.759   2.129   4.733  0.2198 -0.5450 -0.2856
16881TIP3    H172134   5.738   2.037   4.718  1.8766 -1.2703  1.4527
16881TIP3    H272135   5.852   2.137   4.712 -0.2356  1.1491 -1.9382
16882TIP3   OH272136   1.765   5.919   1.909 -0.1817  0.4018 -0.4763
16882TIP3    H172137   1.754   5.856   1.837 -1.7469 -1.1562  1.0177
16882TIP3    H272138   1.678   5.958   1.919 -0.0592  0.4129  0.6972
16883TIP3   OH272139   4.365   3.944   4.932 -0.3940 -0.5715 -0.2846
16883TIP3    H172140   4.409   4.020   4.969 -0.8202 -0.8712  0.8614
16883TIP3    H272141   4.384   3.949   4.838  0.1225  0.5814 -0.1339
16884TIP3   OH272142   5.355   5.775   0.077  0.1446  0.0791 -0.3115
16884TIP3    H172143   5.298   5.807   0.147  0.5133  0.5191 -0.2059
16884TIP3    H272144   5.317   5.811  -0.003  0.1082  0.1333 -0.2702
16885TIP3   OH272145   2.740   1.849  15.167 -0.5921 -0.2798  0.5908
16885TIP3    H172146   2.715   1.838  15.075  0.5104 -1.0068  0.3424
16885TIP3    H272147   2.768   1.940  15.174 -0.3889 -0.3045  0.1226
16886TIP3   OH272148   4.398   6.000   4.118 -1.0886  0.7828  0.2613
16886TIP3    H172149   4.397   6.066   4.188  0.0944  0.0469  1.0051
16886TIP3    H272150   4.427   5.919   4.162 -1.8397 -0.0732 -0.7694
16887TIP3   OH272151   3.523   1.822   4.685 -0.5040  0.4653  0.1428
16887TIP3    H172152   3.572   1.904   4.690  0.1961  0.0292  0.7080
16887TIP3    H272153   3.455   1.829   4.751  0.5758 -0.0432  1.3540
16888TIP3   OH272154   0.928   0.109  14.114 -0.3433 -0.0876 -0.1003
16888TIP3    H172155   0.971   0.091  14.031  0.4660  2.0712 -0.2210
16888TIP3    H272156   0.845   0.061  14.110 -0.3465  0.0166 -2.1660
16889TIP3   OH272157   0.006   5.993  14.481  0.1002  0.6663 -0.6301
16889TIP3    H172158   0.015   5.937  14.404 -1.0612  1.5007 -1.3968
16889TIP3    H272159   0.089   5.982  14.528  0.4447 -0.6091 -1.4692
16890TIP3   OH272160   1.214   5.816  14.241 -0.4642  0.4573  0.4212
16890TIP3    H172161   1.271   5.887  14.269  1.1901 -0.0446 -1.4835
16890TIP3    H272162   1.243   5.740  14.292 -2.2400  1.0098  2.4656
16891TIP3   OH272163   3.217   1.455  12.614  0.4748 -0.2751  0.1828
16891TIP3    H172164   3.218   1.420  12.703  2.5219  2.7816  1.5419
16891TIP3    H272165   3.130   1.493  12.604  0.5467  0.1832  1.2583
16892TIP3   OH272166   5.620   1.339   3.895  0.0225 -0.4469 -0.3120
16892TIP3    H172167   5.566   1.260   3.902 -1.7249  0.5507 -1.6333
16892TIP3    H272168   5.570   1.396   3.836  1.4976  1.4256  0.1783
16893TIP3   OH272169   3.358   4.531   0.408 -0.7073  0.0436  0.7153
16893TIP3    H172170   3.272   4.496   0.430 -1.9804  2.8610  0.6326
16893TIP3    H272171   3.394   4.560   0.492 -0.1294 -0.4552  0.6487
16894TIP3   OH272172   2.300   6.294   5.488 -0.4010 -0.5429  0.5984
16894TIP3    H172173   2.270   6.223   5.431  0.4795 -0.8969  0.5644
16894TIP3    H272174   2.358   6.251   5.551  1.8124  0.4375 -0.7008
16895TIP3   OH272175   3.696   6.735  13.900 -0.2213  0.0203 -0.4790
16895TIP3    H172176   3.756   6.663  13.882  1.1268  0.7509  0.9488
16895TIP3    H272177   3.609   6.697  13.886  0.5049 -1.3849 -1.4132
16896TIP3   OH272178   5.790   5.814   4.587 -0.0493 -0.3327  0.5466
16896TIP3    H172179   5.714   5.757   4.575  0.0727 -0.3453 -0.2687
16896TIP3    H272180   5.753   5.897   4.615 -0.6693  0.4909 -2.3494
16897TIP3   OH272181   6.486   1.415  13.102 -0.0369 -0.6054  0.1805
16897TIP3    H172182   6.515   1.324  13.099  1.5368 -0.1047 -0.7295
16897TIP3    H272183   6.459   1.435  13.012  2.4406  0.6567 -0.3564
16898TIP3   OH272184   6.637   5.156  16.443  0.2613 -0.0156  0.3954
16898TIP3    H172185   6.567   5.135  16.505  0.8833 -1.2144  0.7093
16898TIP3    H272186   6.661   5.246  16.464 -0.9920  0.3352  0.4595
16899TIP3   OH272187   1.352   5.082  12.205  1.0053 -0.3196 -0.3074
16899TIP3    H172188   1.433   5.131  12.222  1.0518 -0.9614  1.5293
16899TIP3    H272189   1.297   5.099  12.282 -0.4714 -0.2274 -1.3252
16900TIP3   OH272190   4.414   3.647  12.483 -0.0910 -0.1176  0.3360
16900TIP3    H172191   4.336   3.592  12.474  0.4879 -0.8348 -0.3624
16900TIP3    H272192   4.387   3.731  12.446 -0.9315  0.0491  1.2661
16901TIP3   OH272193   4.643   4.583  13.869 -0.0488  0.2589  0.0107
16901TIP3    H172194   4.598   4.666  13.886  0.8095  0.2646  2.8642
16901TIP3    H272195   4.735   4.601  13.887  0.2621 -1.0881 -0.1435
16902TIP3   OH272196   4.713   2.205   5.692 -0.3165 -0.5019 -0.0362
16902TIP3    H172197   4.784   2.148   5.722  0.5472  1.1427  1.1911
16902TIP3    H272198   4.649   2.202   5.764 -0.7229 -0.6648 -0.3995
16903TIP3   OH272199   3.173   6.486  10.606 -0.2195 -0.1718  0.1855
16903TIP3    H172200   3.173   6.557  10.670  1.3595 -0.5553  0.6453
16903TIP3    H272201   3.265   6.464  10.594 -0.6140 -1.4301 -0.7597
16904TIP3   OH272202   4.114   6.064   5.984 -0.3839 -0.1471  0.1862
16904TIP3    H172203   4.047   5.997   5.971 -1.7006  0.9176  1.1484
16904TIP3    H272204   4.064   6.146   5.990  1.0477  0.7221  0.6006
16905TIP3   OH272205   2.751   6.123  16.636  0.5812  0.4284  0.2017
16905TIP3    H172206   2.707   6.122  16.721 -1.5184  1.5649 -0.7959
16905TIP3    H272207   2.690   6.169  16.578  1.6195 -0.9227 -2.1061
16906TIP3   OH272208   2.312   5.474  12.308  0.1102 -0.4030  0.1213
16906TIP3    H172209   2.300   5.447  12.217 -0.9245  0.1443  0.0760
16906TIP3    H272210   2.388   5.533  12.306  2.1454 -2.8553  0.1560
16907TIP3   OH272211   2.363   4.371   1.176 -0.3973 -0.7618 -0.4692
16907TIP3    H172212   2.267   4.379   1.174 -0.4057 -0.1772  0.9927
16907TIP3    H272213   2.394   4.461   1.164 -0.0823 -0.7066  0.7100
16908TIP3   OH272214   4.020   2.761  15.801  0.6264 -0.2396  0.0442
16908TIP3    H172215   4.068   2.744  15.720 -0.1561 -1.6847 -0.1275
16908TIP3    H272216   3.929   2.772  15.774  0.5557  0.6083  0.5861
16909TIP3   OH272217   0.307   5.326  14.422 -0.0928  0.2619  0.5964
16909TIP3    H172218   0.389   5.371  14.441 -0.6827  2.7356 -1.9542
16909TIP3    H272219   0.268   5.309  14.508  2.1174  0.8843  1.7910
16910TIP3   OH272220   4.239   1.986  17.117 -0.2079  0.1283  0.3684
16910TIP3    H172221   4.170   2.043  17.150  0.3369  0.3857  1.0668
16910TIP3    H272222   4.317   2.011  17.166  0.2873 -0.4594 -0.1059
16911TIP3   OH272223   4.664   5.245   2.100  0.9215 -0.3440 -0.4105
16911TIP3    H172224   4.693   5.315   2.041  2.3315 -0.5076  0.0510
16911TIP3    H272225   4.651   5.169   2.043 -0.8491  0.2993 -0.9514
16912TIP3   OH272226   5.688   6.018  12.957 -0.2089 -0.6025  0.0387
16912TIP3    H172227   5.736   5.979  13.030  1.4540  0.1464 -0.5994
16912TIP3    H272228   5.717   6.109  12.955 -1.9524 -0.0077 -0.1765
16913TIP3   OH272229   2.887   0.430   1.086 -0.1475  0.6527  0.1438
16913TIP3    H172230   2.800   0.446   1.050 -0.7248 -0.9007  0.7713
16913TIP3    H272231   2.878   0.449   1.180  0.4703  1.4352  0.0600
16914TIP3   OH272232   4.806   3.421   4.338 -0.2041  0.2558  0.0993
16914TIP3    H172233   4.789   3.511   4.366 -4.0124 -0.1418 -0.4294
16914TIP3    H272234   4.761   3.367   4.403 -0.0186 -1.1770 -0.9102
16915TIP3   OH272235   2.135   1.085  15.672 -0.3691  0.0224 -0.3148
16915TIP3    H172236   2.049   1.057  15.704  0.3018 -0.2826  1.3433
16915TIP3    H272237   2.117   1.167  15.626 -1.4727  0.3859  0.6904
16916TIP3   OH272238   3.904   4.776   4.080 -0.0355  0.2830  0.1959
16916TIP3    H172239   3.830   4.716   4.091 -1.1453  1.6980  0.7023
16916TIP3    H272240   3.982   4.720   4.090 -1.0105 -1.2119 -0.2094
16917TIP3   OH272241   5.189   5.801   3.133  0.0885  0.0453 -0.2130
16917TIP3    H172242   5.131   5.735   3.171  0.1267  1.0334  1.6961
16917TIP3    H272243   5.245   5.753   3.073 -1.3110 -1.2764 -0.5251
16918TIP3   OH272244   3.874   5.232  16.996  0.7146 -0.1185  0.2615
16918TIP3    H172245   3.904   5.152  17.040  1.1028  0.2791  0.7300
16918TIP3    H272246   3.795   5.258  17.044  2.2580  1.4432  2.0726
16919TIP3   OH272247   4.567   5.020   3.497 -0.5032 -0.0797  0.3358
16919TIP3    H172248   4.636   4.955   3.514 -1.3697 -0.9233  0.6771
16919TIP3    H272249   4.530   4.994   3.413 -0.4615  0.3266  0.1919
16920TIP3   OH272250   2.500   1.454  12.072 -0.1464 -0.3374 -0.2858
16920TIP3    H172251   2.490   1.489  12.161  1.6690 -1.3918  0.4034
16920TIP3    H272252   2.476   1.526  12.014 -1.0527  0.4776  1.0569
16921TIP3   OH272253   4.460   3.281  11.966  0.2870  0.2583  0.0382
16921TIP3    H172254   4.430   3.193  11.990 -2.0014  1.1951  0.9545
16921TIP3    H272255   4.404   3.306  11.893  1.7926  0.5196 -1.0679
16922TIP3   OH272256   0.440   0.263   4.013  0.1499  0.2501  0.5771
16922TIP3    H172257   0.410   0.178   4.045 -0.1444 -0.1052 -0.6049
16922TIP3    H272258   0.359   0.311   3.993  0.3090 -0.2878 -1.5317
16923TIP3   OH272259   1.053   6.110   4.094  0.4137  0.2426  0.4830
16923TIP3    H172260   0.966   6.110   4.134  0.5357 -1.3462  0.8472
16923TIP3    H272261   1.048   6.043   4.025  1.6346 -0.7220  1.2659
16924TIP3   OH272262   5.584   2.112  16.265  0.2845 -0.1619  0.2240
16924TIP3    H172263   5.547   2.032  16.227 -1.5368  0.9776 -0.5080
16924TIP3    H272264   5.576   2.178  16.197 -0.3370  1.2070  1.5726
16925TIP3   OH272265   0.189   1.027   3.814  0.0556  0.1429 -0.0104
16925TIP3    H172266   0.224   1.108   3.852  0.6591  0.2872 -0.8443
16925TIP3    H272267   0.266   0.971   3.803 -0.3063 -0.3943  0.1980
16926TIP3   OH272268   4.052   5.173   6.149 -0.1192 -0.0348 -0.1846
16926TIP3    H172269   3.988   5.111   6.115  0.5190 -0.1724 -1.1926
16926TIP3    H272270   4.056   5.242   6.082  0.2200  0.3630  0.2341
16927TIP3   OH272271   5.646   0.477   2.992  0.2144  0.3380  0.0246
16927TIP3    H172272   5.555   0.494   2.968  0.0476 -0.6556 -0.1069
16927TIP3    H272273   5.667   0.395   2.948  0.7655 -0.1173  1.0870
16928TIP3   OH272274   1.266   2.716   3.674  0.0566 -0.3971  0.1910
16928TIP3    H172275   1.336   2.779   3.660 -0.3144  0.0989  0.5304
16928TIP3    H272276   1.202   2.734   3.605  0.2268 -0.7966 -0.0716
16929TIP3   OH272277   2.105   4.301  10.329  0.0757  0.5038 -0.5487
16929TIP3    H172278   2.030   4.243  10.323 -1.5809  2.3406  0.9916
16929TIP3    H272279   2.067   4.389  10.338  2.4191  1.5453 -0.0167
16930TIP3   OH272280   4.460   3.695  13.700  0.4192 -0.0678  0.4775
16930TIP3    H172281   4.499   3.782  13.692  0.9856 -0.2253  1.3885
16930TIP3    H272282   4.485   3.650  13.619 -0.2722  0.7451 -0.2214
16931TIP3   OH272283   5.310   2.407   5.044 -0.6370  0.0742 -0.2557
16931TIP3    H172284   5.265   2.476   5.091 -0.2497  0.2162 -0.0875
16931TIP3    H272285   5.328   2.444   4.957 -1.9517 -0.4225 -0.7692
16932TIP3   OH272286   5.820   0.347  14.365  0.9713  0.4460 -0.1436
16932TIP3    H172287   5.912   0.332  14.385  0.7981 -1.1651 -0.4191
16932TIP3    H272288   5.806   0.305  14.280  0.5121  2.7597 -1.2991
16933TIP3   OH272289   0.100   0.234  16.581 -0.4434  0.6489  0.2750
16933TIP3    H172290   0.086   0.186  16.499 -2.0792 -0.6211  1.2178
16933TIP3    H272291   0.105   0.326  16.554  0.9683  0.1384 -1.4136
16934TIP3   OH272292   3.217   5.581   5.031 -0.3219 -0.1093 -0.1738
16934TIP3    H172293   3.294   5.586   5.088 -0.6008  1.7362  0.0976
16934TIP3    H272294   3.181   5.493   5.047  2.0943 -1.3258 -0.8585
16935TIP3   OH272295   3.059   6.394   6.197  0.3317 -0.2592 -0.2308
16935TIP3    H172296   3.056   6.407   6.292  0.8756 -2.8583  0.2223
16935TIP3    H272297   3.071   6.482   6.161  1.9735  0.6217  2.2062
16936TIP3   OH272298   4.171   2.765   3.636  0.0478  0.0825 -0.0044
16936TIP3    H172299   4.263   2.776   3.658 -0.1446 -0.2277  1.0498
16936TIP3    H272300   4.139   2.701   3.700 -0.7222 -0.3923 -0.8409
16937TIP3   OH272301   3.156   3.424  15.273 -0.2415  0.0549 -0.5729
16937TIP3    H172302   3.218   3.442  15.344 -0.4433 -1.2019 -0.0646
16937TIP3    H272303   3.090   3.493  15.282 -0.0342  0.1662  0.1763
16938TIP3   OH272304   3.118   1.522  10.728  0.5839  0.0338  0.6953
16938TIP3    H172305   3.066   1.526  10.648  0.1163 -1.1134  0.9251
16938TIP3    H272306   3.177   1.448  10.715  0.7423  0.0505  1.2643
16939TIP3   OH272307   1.814   2.422   0.105  0.2454  0.0359  1.1388
16939TIP3    H172308   1.813   2.506   0.152  1.0471 -0.3092  1.8156
16939TIP3    H272309   1.744   2.429   0.041  1.7829  2.1649 -0.4589
16940TIP3   OH272310   6.536   2.502  11.991  0.1717  0.0966  0.4579
16940TIP3    H172311   6.606   2.549  11.946  1.2921 -1.8368  0.0643
16940TIP3    H272312   6.525   2.421  11.941 -1.0765 -0.4690  1.5729
16941TIP3   OH272313   4.457   0.386  14.754  0.2542  0.2423 -0.4027
16941TIP3    H172314   4.426   0.299  14.781  1.6251 -0.7474 -1.8356
16941TIP3    H272315   4.522   0.410  14.819  0.2454 -0.0347 -0.2913
16942TIP3   OH272316   4.808   5.050   2.734  0.1709  0.7377 -0.3423
16942TIP3    H172317   4.894   5.007   2.739 -0.5121 -0.6892 -0.5460
16942TIP3    H272318   4.745   4.978   2.733 -0.9197  1.6173 -3.2221
16943TIP3   OH272319   2.942   0.811  14.171  0.4930 -0.2012  0.5057
16943TIP3    H172320   3.012   0.791  14.109  0.4124  0.3809  0.2126
16943TIP3    H272321   2.951   0.745  14.240 -0.6555 -2.1573 -1.0967
16944TIP3   OH272322   4.806   5.592  13.438 -0.0279 -0.0339  0.2827
16944TIP3    H172323   4.771   5.676  13.469 -2.4812 -0.6510 -0.5964
16944TIP3    H272324   4.841   5.612  13.351 -0.7853  0.0380 -0.0073
16945TIP3   OH272325   0.230   1.995   6.108  0.2227 -0.5300 -0.5696
16945TIP3    H172326   0.158   1.957   6.058 -0.4506  1.3371 -1.0563
16945TIP3    H272327   0.189   2.053   6.171  1.2365 -0.5422  0.1312
16946TIP3   OH272328   3.122   0.289  12.094  0.2655  0.4355  0.4546
16946TIP3    H172329   3.167   0.296  12.178  2.0284 -0.2815 -0.4010
16946TIP3    H272330   3.035   0.327  12.111  1.1258  1.7891  2.1695
16947TIP3   OH272331   1.426   2.540   3.056 -0.2731 -0.4638 -0.3804
16947TIP3    H172332   1.420   2.451   3.021 -3.8583 -0.9317  0.9715
16947TIP3    H272333   1.401   2.532   3.148  1.2183  1.7305  0.2971
16948TIP3   OH272334   2.094   3.292   5.132  0.0892 -0.0243  0.0014
16948TIP3    H172335   2.024   3.343   5.092  0.1271 -1.7130 -2.4566
16948TIP3    H272336   2.173   3.320   5.087  0.3323 -1.0894 -0.2721
16949TIP3   OH272337   5.281   5.518   1.698 -0.4704  0.4693 -0.3152
16949TIP3    H172338   5.285   5.611   1.678  1.5597  0.3403 -0.7580
16949TIP3    H272339   5.322   5.475   1.623  2.6079 -0.4076  1.6504
16950TIP3   OH272340   6.143   3.235  13.330  0.3238 -0.1895 -0.0244
16950TIP3    H172341   6.146   3.330  13.341  0.4190 -0.0337 -1.1818
16950TIP3    H272342   6.234   3.207  13.340  0.6202  0.1149 -1.5827
16951TIP3   OH272343   0.838   0.617   2.793  0.2316  0.7499 -0.4668
16951TIP3    H172344   0.808   0.701   2.760  2.6892  1.4848 -1.0464
16951TIP3    H272345   0.923   0.635   2.832  0.8795 -1.4749 -0.6893
16952TIP3   OH272346   3.264   1.615   0.418 -0.0135 -0.2932  0.7139
16952TIP3    H172347   3.221   1.644   0.499 -1.2135 -2.2201  0.8251
16952TIP3    H272348   3.334   1.557   0.448  1.3360  1.1058  0.4282
16953TIP3   OH272349   6.371   3.951   4.094  0.1312 -0.0397 -0.5083
16953TIP3    H172350   6.448   3.933   4.040  0.4822 -0.7199  0.1883
16953TIP3    H272351   6.353   4.044   4.081 -0.2032 -0.3297 -2.2966
16954TIP3   OH272352   1.099   5.789   1.538  0.1988 -0.0227  0.6910
16954TIP3    H172353   1.079   5.841   1.616  0.2616  0.4148  0.4177
16954TIP3    H272354   1.014   5.774   1.497  0.2458  0.4179  0.4247
16955TIP3   OH272355   4.247   4.916   5.214 -0.4780 -0.3462  0.3446
16955TIP3    H172356   4.268   4.826   5.189  0.9148  0.6929 -2.6930
16955TIP3    H272357   4.227   4.960   5.131 -0.9588  2.2022  1.7040
16956TIP3   OH272358   3.889   1.480   4.038  0.2039  0.1685 -0.3725
16956TIP3    H172359   3.933   1.526   4.110  0.9700 -2.1472  0.7413
16956TIP3    H272360   3.951   1.413   4.011 -2.3947 -3.2500  1.2416
16957TIP3   OH272361   5.372   4.792  10.851 -0.2202 -0.5501 -0.2244
16957TIP3    H172362   5.328   4.792  10.766  2.0519  0.0055 -1.4769
16957TIP3    H272363   5.437   4.723  10.845  0.9183  0.4085  0.5369
16958TIP3   OH272364   5.380   0.966  12.570  0.1380 -0.2872 -0.4880
16958TIP3    H172365   5.433   1.035  12.530  2.7469 -0.5085  2.2697
16958TIP3    H272366   5.438   0.890  12.574 -0.8969 -1.0415  1.2147
16959TIP3   OH272367   2.195   0.505   1.499 -0.1430  0.4037 -0.0506
16959TIP3    H172368   2.153   0.576   1.548  0.1944 -0.7642  2.0646
16959TIP3    H272369   2.123   0.446   1.475 -0.1018 -0.0206  0.8292
16960TIP3   OH272370   5.895   6.705  17.152  0.8349 -0.0075  0.0990
16960TIP3    H172371   5.963   6.715  17.218  1.2350  4.0743 -0.6425
16960TIP3    H272372   5.943   6.689  17.071  1.1172  2.9060 -0.4301
16961TIP3   OH272373   3.650   5.927  14.849 -0.5478 -0.5370 -0.2777
16961TIP3    H172374   3.602   5.844  14.851 -0.2544 -0.7006  0.2741
16961TIP3    H272375   3.742   5.902  14.854 -0.5030 -0.1484  1.6878
16962TIP3   OH272376   1.840   0.260  11.787 -0.4846 -0.1182 -0.0444
16962TIP3    H172377   1.803   0.172  11.777 -0.5204 -0.0128 -0.8554
16962TIP3    H272378   1.784   0.315  11.733 -0.5419  0.4355  0.5654
16963TIP3   OH272379   2.315   3.139  14.873  0.2789  0.1104 -0.2732
16963TIP3    H172380   2.351   3.095  14.950  0.2145  0.8708  0.1983
16963TIP3    H272381   2.391   3.180  14.831  0.1400  0.7465  0.0849
16964TIP3   OH272382   4.986   3.741   4.037 -0.4125 -0.2465  0.2775
16964TIP3    H172383   4.891   3.729   4.039 -0.4998  0.4183  1.5633
16964TIP3    H272384   5.003   3.783   3.953 -1.3287  0.1661  0.2781
16965TIP3   OH272385   6.064   3.916   3.462 -0.3350  0.2114 -0.3081
16965TIP3    H172386   6.017   3.982   3.411 -2.0203 -0.5037  0.2333
16965TIP3    H272387   6.030   3.832   3.431 -1.9412 -0.2464  2.3573
16966TIP3   OH272388   3.192   5.381  13.215  0.1218  0.2983 -0.0056
16966TIP3    H172389   3.286   5.396  13.202 -0.0687  0.0233 -2.0199
16966TIP3    H272390   3.188   5.319  13.288  1.5872 -0.8816 -0.8697
16967TIP3   OH272391   0.079   5.118  13.667  0.0568  0.2499 -0.2859
16967TIP3    H172392   0.063   5.151  13.579 -0.1153  3.1971  0.7472
16967TIP3    H272393  -0.003   5.074  13.691 -1.1210  2.2044 -0.5010
16968TIP3   OH272394   5.300   1.408   2.896  0.4237  0.3978  0.1267
16968TIP3    H172395   5.313   1.365   2.980  0.6279 -0.3755 -0.2977
16968TIP3    H272396   5.312   1.340   2.831  0.2155  0.9762 -0.5382
16969TIP3   OH272397   4.853   6.504  16.922  0.1582  0.2474  0.0985
16969TIP3    H172398   4.945   6.482  16.906  0.4256  1.3059  0.1228
16969TIP3    H272399   4.855   6.593  16.957 -1.0038  1.0063 -1.6488
16970TIP3   OH272400   2.906   3.742  15.627 -0.6797  0.5403  0.1422
16970TIP3    H172401   2.829   3.750  15.571 -0.6066  1.8272  0.2023
16970TIP3    H272402   2.875   3.770  15.714 -0.3678  0.1894  0.3701
16971TIP3   OH272403   1.647   6.589  15.946 -0.1844 -0.1709 -0.3727
16971TIP3    H172404   1.641   6.608  15.852  1.0846 -0.7083 -0.5785
16971TIP3    H272405   1.593   6.511  15.958 -1.1263  0.4445 -0.4641
16972TIP3   OH272406   5.146   3.485   0.865  0.1779 -0.5538 -0.1357
16972TIP3    H172407   5.182   3.397   0.864 -1.8580 -1.5376  2.2510
16972TIP3    H272408   5.060   3.476   0.907 -1.1105  2.2368 -1.8401
16973TIP3   OH272409   2.841   1.634   3.755 -0.4225  0.0219  0.0557
16973TIP3    H172410   2.830   1.595   3.668 -0.3709 -0.2519  0.1711
16973TIP3    H272411   2.931   1.614   3.779  0.0837  1.4809 -0.5037
16974TIP3   OH272412   1.942   5.175   1.129  0.4813  0.2447 -0.5086
16974TIP3    H172413   1.876   5.139   1.070 -2.2030  1.5685  1.4675
16974TIP3    H272414   1.987   5.242   1.077  0.2318 -0.6221 -1.8865
16975TIP3   OH272415   5.109   2.947   4.171 -0.3297  0.7640 -0.0898
16975TIP3    H172416   5.165   2.922   4.098 -0.2118  0.1362  0.2105
16975TIP3    H272417   5.154   3.021   4.212  0.6224 -0.1307  0.5272
16976TIP3   OH272418   1.304   5.367   0.641 -0.4944  0.1649  0.2341
16976TIP3    H172419   1.232   5.321   0.597  0.5967 -1.9152  0.5153
16976TIP3    H272420   1.297   5.341   0.732  0.8341 -0.3850  0.1943
16977TIP3   OH272421   3.024   3.099   5.075  0.2974 -0.3136 -0.1967
16977TIP3    H172422   2.936   3.073   5.104 -0.2177  2.6027  1.2045
16977TIP3    H272423   3.017   3.106   4.980 -0.9311 -0.2872 -0.1218
16978TIP3   OH272424   3.071   2.566   2.532 -0.8953 -0.2638  0.0522
16978TIP3    H172425   3.123   2.593   2.457  0.2588 -0.4412  0.7689
16978TIP3    H272426   3.022   2.644   2.557  0.1098  0.3279  0.2351
16979TIP3   OH272427   1.354   4.863   1.950 -0.0680  0.0650  0.0452
16979TIP3    H172428   1.401   4.909   1.880  0.8458  2.0963  1.8769
16979TIP3    H272429   1.415   4.796   1.980  0.1155  0.1480 -0.1374
16980TIP3   OH272430   3.543   1.068   1.746  0.1034  0.1702  0.5390
16980TIP3    H172431   3.615   1.114   1.704  0.2035 -1.1282 -0.7781
16980TIP3    H272432   3.584   0.995   1.792 -0.2127  0.4248  1.2427
16981TIP3   OH272433   4.976   5.150  13.992  0.2484  0.4162 -0.4359
16981TIP3    H172434   4.904   5.096  13.961  0.7734 -0.2758 -0.4758
16981TIP3    H272435   5.032   5.162  13.916  0.8618 -0.1840 -0.0933
16982TIP3   OH272436   1.427   2.115  16.420 -0.3820  0.5013 -0.1839
16982TIP3    H172437   1.433   2.030  16.464  1.0220  1.0218  0.7015
16982TIP3    H272438   1.465   2.099  16.333  0.6626  0.3919  0.2752
16983TIP3   OH272439   6.568   6.649   0.631 -0.0615 -0.9259 -0.8506
16983TIP3    H172440   6.515   6.696   0.695 -0.1181  0.2668 -1.7495
16983TIP3    H272441   6.643   6.618   0.681 -1.4133 -2.3993  0.3836
16984TIP3   OH272442   5.676   0.165   4.142  0.0520 -0.6301 -0.1665
16984TIP3    H172443   5.699   0.257   4.126  0.9398 -0.9958 -1.0428
16984TIP3    H272444   5.756   0.117   4.125 -0.4079 -1.5805  0.3046
16985TIP3   OH272445   2.912   5.832  13.018 -0.6255 -0.0934 -0.3596
16985TIP3    H172446   2.817   5.836  13.022 -0.6709 -1.3306  0.3315
16985TIP3    H272447   2.931   5.813  12.926 -0.8337  3.3608 -1.2700
16986TIP3   OH272448   1.316   5.882   5.368 -0.0286  0.1806  0.1058
16986TIP3    H172449   1.246   5.821   5.344 -0.3079  0.9861 -1.2120
16986TIP3    H272450   1.318   5.879   5.464 -1.5753 -0.1882  0.1589
16987TIP3   OH272451   3.454   1.380  13.216 -0.0179  0.0720  0.1232
16987TIP3    H172452   3.513   1.376  13.291 -0.3435  0.4550  0.4057
16987TIP3    H272453   3.507   1.352  13.141 -0.0931 -1.8039  0.7284
16988TIP3   OH272454   2.763   4.083  12.180  0.5360  0.2235  0.2435
16988TIP3    H172455   2.707   4.006  12.187 -0.5780  1.0209  0.4882
16988TIP3    H272456   2.734   4.140  12.252  1.7465  0.6155  0.4464
16989TIP3   OH272457   1.498   4.180   2.612 -0.0327  0.1599 -0.1633
16989TIP3    H172458   1.444   4.180   2.691  1.1224  0.9225  0.6547
16989TIP3    H272459   1.560   4.252   2.625  0.7394 -0.2509 -1.3831
16990TIP3   OH272460   4.821   3.806   1.614  0.2919  0.2098  0.0356
16990TIP3    H172461   4.737   3.815   1.661  0.4393  0.5811  0.2343
16990TIP3    H272462   4.801   3.747   1.541 -0.4098  1.1288 -0.5492
16991TIP3   OH272463   5.206   5.810   1.472 -0.1584 -0.4195 -0.7163
16991TIP3    H172464   5.232   5.766   1.391  0.1869 -1.6997  0.0662
16991TIP3    H272465   5.288   5.846   1.506 -0.4164  0.7461 -1.2791
16992TIP3   OH272466   0.361   6.356  12.000 -0.5692 -0.5303 -0.4207
16992TIP3    H172467   0.371   6.448  11.973  0.4388 -0.8257 -1.1109
16992TIP3    H272468   0.447   6.317  11.985 -0.1950 -0.9695  2.4414
16993TIP3   OH272469   5.920   0.869   1.625 -0.2471 -0.5994  0.2238
16993TIP3    H172470   5.983   0.809   1.584  0.8019  0.5476  0.1100
16993TIP3    H272471   5.970   0.913   1.693 -1.0389  0.0768  0.3778
16994TIP3   OH272472   4.094   2.159  15.696  0.6844 -0.1729  0.3425
16994TIP3    H172473   4.017   2.125  15.650  1.5137 -1.0458 -0.4530
16994TIP3    H272474   4.131   2.082  15.740  0.7971  0.3505  1.1734
16995TIP3   OH272475   4.896   3.571   1.462 -0.6709 -0.6559  0.0307
16995TIP3    H172476   4.984   3.533   1.459 -0.0294  0.6876  1.1638
16995TIP3    H272477   4.839   3.496   1.473  0.5870 -1.3555  2.5488
16996TIP3   OH272478   5.368   3.452  10.996 -0.3319 -0.4566 -0.6995
16996TIP3    H172479   5.305   3.525  10.991 -0.1130 -0.2001  0.1066
16996TIP3    H272480   5.449   3.488  10.961  0.1084  0.0907  0.7814
16997TIP3   OH272481   2.946   6.787  11.505  0.7250 -0.1690 -0.2976
16997TIP3    H172482   2.927   6.751  11.592  1.1969 -1.9697 -0.9086
16997TIP3    H272483   2.861   6.794  11.463  0.6481 -0.7824 -0.2471
16998TIP3   OH272484   2.777   3.085   0.647  0.4570 -0.5685 -0.2702
16998TIP3    H172485   2.797   3.008   0.700  0.3956 -0.9866 -0.8520
16998TIP3    H272486   2.822   3.071   0.564  1.3000  0.5041 -0.0204
16999TIP3   OH272487   2.121   5.103  16.508  0.6106 -0.0038  0.0578
16999TIP3    H172488   2.108   5.129  16.599 -2.4236 -1.4125  0.1587
16999TIP3    H272489   2.207   5.061  16.506  1.9732  2.4872  1.5837
17000TIP3   OH272490   1.129   0.640  13.596 -0.3570  0.1289  0.0197
17000TIP3    H172491   1.035   0.656  13.603 -0.3543  0.8620 -1.3844
17000TIP3    H272492   1.160   0.702  13.530  1.2406  0.3682  0.9302
17001TIP3   OH272493   1.934   6.003   0.498 -0.6650 -0.2687  0.1383
17001TIP3    H172494   2.026   6.029   0.505 -1.1524  1.6628  0.0708
17001TIP3    H272495   1.909   6.027   0.409 -1.1483 -1.1688  0.0158
17002TIP3   OH272496   1.075   4.250  13.141  0.3725  0.2565 -0.1927
17002TIP3    H172497   0.986   4.279  13.121 -0.1346 -1.0083  0.1340
17002TIP3    H272498   1.094   4.288  13.227  0.0204  0.2773 -0.1226
17003TIP3   OH272499   2.378   6.286   1.021  0.2664  0.2928  0.4339
17003TIP3    H172500   2.427   6.208   1.048  2.3688  0.9687 -1.1811
17003TIP3    H272501   2.286   6.260   1.027  0.9007 -2.2907  0.0053
17004TIP3   OH272502   0.252   4.043  12.498 -0.0010 -0.0088  0.1585
17004TIP3    H172503   0.221   4.130  12.522 -1.1920 -0.1062 -0.9343
17004TIP3    H272504   0.330   4.058  12.444 -1.0121  0.4616 -1.2133
17005TIP3   OH272505   1.574   3.996   0.093  0.0734  0.0550 -0.0304
17005TIP3    H172506   1.589   4.086   0.064  1.3819  0.1091  0.7347
17005TIP3    H272507   1.482   3.994   0.119 -0.2332  0.8944 -0.9921
17006TIP3   OH272508   0.926   5.327  11.905  0.0013 -0.7327  0.1130
17006TIP3    H172509   0.864   5.372  11.962 -0.0962 -0.7252  0.0013
17006TIP3    H272510   0.958   5.254  11.957  2.2584  1.0127  1.3540
17007TIP3   OH272511   1.434   2.373  13.723 -0.9748  0.7385  0.3681
17007TIP3    H172512   1.376   2.418  13.662 -1.0046 -0.3402 -0.4190
17007TIP3    H272513   1.430   2.281  13.697  0.3863  0.5135  0.8636
17008TIP3   OH272514   3.850   2.473   0.697 -0.5584  0.0507 -0.5956
17008TIP3    H172515   3.805   2.396   0.663 -0.7037 -1.3805  2.5672
17008TIP3    H272516   3.781   2.526   0.736  0.0430 -0.7032  1.6292
17009TIP3   OH272517   4.704   0.420  12.090  0.1947  0.5205 -0.5768
17009TIP3    H172518   4.689   0.379  12.175  1.0530 -0.8950 -1.0709
17009TIP3    H272519   4.660   0.363  12.027  0.2469  1.1132 -1.1637
17010TIP3   OH272520   0.742   5.085   3.160 -0.3237 -0.2161 -0.5094
17010TIP3    H172521   0.655   5.125   3.165  0.3251  1.0695  1.3004
17010TIP3    H272522   0.802   5.156   3.183  0.8900 -2.1379  2.7821
17011TIP3   OH272523   0.625   4.747  13.338 -0.0477  0.0767 -0.1301
17011TIP3    H172524   0.573   4.756  13.258 -0.5749 -1.0121  0.0811
17011TIP3    H272525   0.640   4.837  13.367 -0.0109  0.4802 -1.3457
17012TIP3   OH272526   4.214   6.162  17.237 -0.8881 -0.0922  0.4334
17012TIP3    H172527   4.275   6.179  17.309  0.3048 -2.9488  0.2240
17012TIP3    H272528   4.266   6.174  17.158 -1.0263 -0.9654  0.1988
17013TIP3   OH272529   0.685   4.399   3.296 -0.2955 -0.3185  0.4226
17013TIP3    H172530   0.597   4.433   3.278 -0.7192 -0.8049  1.4904
17013TIP3    H272531   0.674   4.344   3.374  0.4524 -2.4450 -0.8856
17014TIP3   OH272532   4.385   6.176   0.156  0.9883  0.1009 -0.1387
17014TIP3    H172533   4.478   6.198   0.156  1.2794 -1.0299 -1.0908
17014TIP3    H272534   4.377   6.110   0.225  1.1029 -0.5788 -0.7669
17015TIP3   OH272535   5.529   4.799   3.819 -0.6369  0.1486 -0.3726
17015TIP3    H172536   5.572   4.804   3.734 -0.3849 -0.5236 -0.2905
17015TIP3    H272537   5.533   4.706   3.843 -1.7661  0.1298 -0.1709
17016TIP3   OH272538   5.115   5.613  14.347  0.1475 -0.1892  0.4412
17016TIP3    H172539   5.141   5.541  14.289 -3.5708 -0.6291 -0.9687
17016TIP3    H272540   5.135   5.692  14.297 -1.0116 -0.4957 -0.5587
17017TIP3   OH272541   0.485   3.151   4.401  0.2561  0.2546  0.3732
17017TIP3    H172542   0.535   3.200   4.335  1.4170 -0.8373  0.4055
17017TIP3    H272543   0.418   3.213   4.431 -0.0664  0.9143 -1.5488
17018TIP3   OH272544   5.658   4.356   0.437  0.3039 -0.1831  0.0246
17018TIP3    H172545   5.750   4.352   0.409  0.0741  1.1495 -1.0482
17018TIP3    H272546   5.617   4.416   0.374 -1.0550  0.1389  1.1775
17019TIP3   OH272547   1.101   2.478   1.890  0.2811  0.6710 -0.3069
17019TIP3    H172548   1.092   2.516   1.977 -0.0502 -1.4619  0.6659
17019TIP3    H272549   1.011   2.457   1.863  0.3106  1.9457 -1.5030
17020TIP3   OH272550   1.772   5.479  13.869 -0.6883  0.5497  0.5362
17020TIP3    H172551   1.708   5.420  13.908  0.4741 -0.2957  1.2250
17020TIP3    H272552   1.837   5.421  13.830 -2.1488  1.2705 -3.5104
17021TIP3   OH272553   0.592   4.443   5.109 -0.4010 -0.2672  0.4627
17021TIP3    H172554   0.685   4.420   5.115 -0.3207  0.2164  1.1448
17021TIP3    H272555   0.551   4.397   5.182 -1.0226 -1.9574 -0.8901
17022TIP3   OH272556   3.961   2.153  12.947 -0.1083 -0.4176 -0.0293
17022TIP3    H172557   3.917   2.224  12.994 -0.2708 -0.7641  0.3472
17022TIP3    H272558   4.041   2.138  12.997  1.6655  1.7543 -1.9589
17023TIP3   OH272559   3.702   3.385  11.498 -0.0667  0.1238  0.2225
17023TIP3    H172560   3.787   3.383  11.542  0.9695  0.9926 -1.6242
17023TIP3    H272561   3.657   3.460  11.537  0.3306  0.1192  0.6973
17024TIP3   OH272562   6.581   0.047   3.108  0.2651  0.4565 -0.2410
17024TIP3    H172563   6.560  -0.012   3.181  1.5587 -1.2538 -1.1785
17024TIP3    H272564   6.538   0.130   3.131 -0.4403 -0.4131  1.8185
17025TIP3   OH272565   5.804   4.266  16.143  0.0303  0.6311  0.4881
17025TIP3    H172566   5.712   4.290  16.153 -0.0865 -0.0851  1.1931
17025TIP3    H272567   5.814   4.245  16.051 -0.7132 -0.1036  0.5671
17026TIP3   OH272568   6.679   6.227   0.466  0.3361  0.0219  0.2182
17026TIP3    H172569   6.663   6.134   0.481 -0.3709  0.0317 -0.4068
17026TIP3    H272570   6.612   6.271   0.519  1.3358  0.2285  1.3661
17027TIP3   OH272571   2.457   1.233  16.699 -0.1117 -0.2323  0.3989
17027TIP3    H172572   2.432   1.145  16.671 -1.9661  0.0831  0.9577
17027TIP3    H272573   2.525   1.218  16.765  0.5649 -1.1720 -0.4815
17028TIP3   OH272574   6.411   2.589  13.464 -0.4849  0.2305  0.4016
17028TIP3    H172575   6.392   2.556  13.376  1.8908  1.3288 -0.6035
17028TIP3    H272576   6.366   2.673  13.469 -1.2495 -0.1848  0.5298
17029TIP3   OH272577   3.052   6.106  10.654  0.0733  0.2727 -0.1968
17029TIP3    H172578   3.095   6.144  10.731  1.3581  0.0145 -0.7680
17029TIP3    H272579   3.048   6.178  10.591  1.4318 -0.1908 -0.8430
17030TIP3   OH272580   0.053   4.055  16.113 -0.4632  0.4062  0.2326
17030TIP3    H172581   0.072   3.977  16.060  0.3051 -0.5898  1.8872
17030TIP3    H272582   0.011   4.020  16.192  0.7931  1.5564  1.4621
17031TIP3   OH272583   4.380   4.335  14.905 -0.6087 -0.2338 -0.1758
17031TIP3    H172584   4.473   4.353  14.919 -0.7381 -0.5175  1.1073
17031TIP3    H272585   4.378   4.282  14.826  0.3339 -0.3972 -0.1044
17032TIP3   OH272586   2.159   5.717   4.061 -0.3674  0.0487 -0.1141
17032TIP3    H172587   2.137   5.652   4.128  0.6781 -0.4313 -0.2113
17032TIP3    H272588   2.077   5.732   4.014 -0.2730 -2.6483 -1.3321
17033TIP3   OH272589   0.006   1.862  16.450 -0.0850  0.7159 -0.5863
17033TIP3    H172590   0.062   1.939  16.459 -0.9662  1.2903  0.1266
17033TIP3    H272591  -0.078   1.896  16.418 -0.1052 -0.1088 -1.4672
17034TIP3   OH272592   4.341   6.126  14.237 -0.1163 -0.0732  0.3446
17034TIP3    H172593   4.422   6.100  14.282  0.1432  0.3887  0.1483
17034TIP3    H272594   4.371   6.164  14.155 -0.5800 -0.7161 -0.1295
17035TIP3   OH272595   0.213   4.929  13.895  0.1199  0.5725 -0.0600
17035TIP3    H172596   0.204   4.959  13.804  1.8639 -1.6793 -1.0639
17035TIP3    H272597   0.145   4.863  13.905  1.3527 -0.8057 -0.5167
17036TIP3   OH272598   1.413   2.161  12.202  0.1442 -0.1645 -0.0934
17036TIP3    H172599   1.498   2.183  12.166  0.2920 -1.3156 -0.4721
17036TIP3    H272600   1.409   2.065  12.199  0.0265 -0.3322  2.5831
17037TIP3   OH272601   2.709   6.115   2.487 -0.4929 -0.2991  0.3916
17037TIP3    H172602   2.646   6.061   2.535  0.6271 -1.6685  0.3499
17037TIP3    H272603   2.665   6.133   2.404 -1.5609  0.3080  1.0465
17038TIP3   OH272604   0.705   4.617   1.498  0.6888 -0.3672  0.6133
17038TIP3    H172605   0.687   4.700   1.454 -1.7988 -2.0060 -1.8208
17038TIP3    H272606   0.728   4.557   1.427 -1.6424 -2.6825  1.6384
17039TIP3   OH272607   2.292   5.033   1.030  0.1465 -0.2195 -0.2348
17039TIP3    H172608   2.271   5.126   1.040  0.4919 -0.2688  1.1305
17039TIP3    H272609   2.215   4.988   1.065  0.5025 -0.4272  0.2896
17040TIP3   OH272610   3.440   2.609   4.638 -0.3490 -0.3159  0.1908
17040TIP3    H172611   3.425   2.659   4.718  0.6257 -0.2565  0.3532
17040TIP3    H272612   3.510   2.656   4.592  1.5949 -2.2101  1.0260
17041TIP3   OH272613   4.409   6.147  14.711  0.3761 -0.1953  0.8381
17041TIP3    H172614   4.329   6.124  14.663  0.4134 -1.1173  1.1911
17041TIP3    H272615   4.468   6.073  14.696  1.8069  1.1879 -0.7555
17042TIP3   OH272616   2.069   6.220   0.397 -0.2578  0.6011 -0.3978
17042TIP3    H172617   1.985   6.266   0.403 -0.3118  0.5067 -0.4417
17042TIP3    H272618   2.134   6.291   0.395 -0.2965  0.6632  0.3013
17043TIP3   OH272619   3.716   3.124   4.019 -0.0282  0.6276 -0.4378
17043TIP3    H172620   3.713   3.219   4.017  1.3091  0.6826 -0.5209
17043TIP3    H272621   3.797   3.103   4.066 -0.0035 -0.4679 -0.9385
17044TIP3   OH272622   3.681   2.264  16.717  0.6024 -0.0849  0.1306
17044TIP3    H172623   3.688   2.176  16.753 -1.1403 -1.5911 -2.8595
17044TIP3    H272624   3.753   2.271  16.655  0.9260  0.7557  0.5878
17045TIP3   OH272625   5.664   5.627   0.039  0.1696  0.0919 -0.4552
17045TIP3    H172626   5.646   5.644   0.131  0.2340 -1.2447 -0.1836
17045TIP3    H272627   5.578   5.634  -0.004 -0.1338 -0.8825 -0.0288
17046TIP3   OH272628   5.799   6.276  12.931 -0.0459  0.0681 -0.1247
17046TIP3    H172629   5.721   6.328  12.949  0.1081  0.2935 -0.1075
17046TIP3    H272630   5.872   6.336  12.944  0.1229 -0.0923 -0.3178
17047TIP3   OH272631   2.556   2.062  17.202 -0.0914 -0.5912  0.1389
17047TIP3    H172632   2.498   2.042  17.128  1.4200 -1.7839 -0.7826
17047TIP3    H272633   2.534   2.153  17.225 -1.4410 -0.5972 -0.9716
17048TIP3   OH272634   5.633   2.883   3.678 -0.4444 -0.1334  0.1740
17048TIP3    H172635   5.565   2.950   3.665  0.9016  1.0212 -1.3029
17048TIP3    H272636   5.711   2.933   3.701  0.5512 -1.2314 -0.7420
17049TIP3   OH272637   2.228   3.614   5.694  0.0027  0.0439 -0.2546
17049TIP3    H172638   2.143   3.650   5.722 -0.6844 -1.4252 -0.3319
17049TIP3    H272639   2.236   3.532   5.742  0.6295 -0.6203 -1.4361
17050TIP3   OH272640   0.905   2.758   5.234  0.1953 -0.2038  0.4921
17050TIP3    H172641   0.830   2.775   5.290 -0.8312  0.1882 -0.9505
17050TIP3    H272642   0.875   2.781   5.145  2.2800  0.8559 -0.0184
17051TIP3   OH272643   2.801   4.535  17.205 -0.5152 -0.0195  0.0893
17051TIP3    H172644   2.745   4.605  17.172 -2.4593 -2.3199 -1.8179
17051TIP3    H272645   2.755   4.501  17.281  0.1936  0.3741  0.7228
17052TIP3   OH272646   0.941   0.878   2.171 -0.5746 -0.1756  0.2823
17052TIP3    H172647   0.949   0.949   2.108 -1.0157 -1.4414 -1.2654
17052TIP3    H272648   0.891   0.915   2.244 -2.0338  0.7221 -1.1154
17053TIP3   OH272649   0.617   6.314   6.548 -0.2356  0.0425  0.1512
17053TIP3    H172650   0.621   6.220   6.536 -0.7732 -0.0273  0.5060
17053TIP3    H272651   0.699   6.336   6.594 -1.6406 -0.7710  3.3167
17054TIP3   OH272652   3.224   0.305   1.256  0.1848  0.8217  0.1488
17054TIP3    H172653   3.178   0.343   1.331  0.6665  0.7602  0.4741
17054TIP3    H272654   3.172   0.229   1.232 -0.6615  1.5323 -0.3584
17055TIP3   OH272655   1.009   3.328   4.435 -0.0124  0.4337 -0.4674
17055TIP3    H172656   1.051   3.271   4.370  0.6754 -0.8242  1.0068
17055TIP3    H272657   1.080   3.385   4.466 -0.0743  0.2742 -0.0325
17056TIP3   OH272658   0.009   3.538  12.038  0.5653  0.1706 -0.7699
17056TIP3    H172659  -0.003   3.506  12.128 -0.2601  3.3924  0.4293
17056TIP3    H272660  -0.077   3.572  12.013  1.2838  1.1758 -1.9725
17057TIP3   OH272661   6.706   0.084   2.209  0.7396 -0.3781 -0.4651
17057TIP3    H172662   6.642   0.110   2.143 -1.2545 -1.1892  1.0506
17057TIP3    H272663   6.778   0.147   2.199  0.3734 -0.2617 -3.1093
17058TIP3   OH272664   3.487   0.007   3.100 -0.2597 -0.1527 -0.3351
17058TIP3    H172665   3.565   0.034   3.149 -0.2030  1.0258 -1.0391
17058TIP3    H272666   3.516   0.002   3.009 -0.5068 -1.7871 -0.3662
17059TIP3   OH272667   3.601   1.667   2.646  0.0701 -0.4572 -0.0020
17059TIP3    H172668   3.516   1.707   2.664  1.0665  2.5111 -1.3084
17059TIP3    H272669   3.603   1.589   2.702 -3.3972 -0.5604  0.1943
17060TIP3   OH272670   0.251   6.582   3.724  0.7500 -0.3580  0.1743
17060TIP3    H172671   0.212   6.509   3.675 -1.6590  1.2211 -0.4124
17060TIP3    H272672   0.286   6.640   3.656 -2.0472  1.5347  0.2075
17061TIP3   OH272673   0.300   2.019  13.047 -0.0205 -0.3549  0.1519
17061TIP3    H172674   0.238   1.986  13.112 -0.6318 -0.4524 -0.4780
17061TIP3    H272675   0.248   2.036  12.969  0.4057  1.3034  0.1757
17062TIP3   OH272676   6.262   3.889   3.143  0.0359 -0.2968  0.3282
17062TIP3    H172677   6.351   3.919   3.123 -0.4843  1.5817  0.7031
17062TIP3    H272678   6.274   3.798   3.169  1.8829 -0.0395  0.5457
17063TIP3   OH272679   4.634   5.999   3.884 -0.0802 -0.1096 -0.5060
17063TIP3    H172680   4.661   5.918   3.927  0.6980  0.2207 -0.3542
17063TIP3    H272681   4.608   5.973   3.796  0.2624 -0.5060 -0.4893
17064TIP3   OH272682   2.069   5.242  14.099 -0.2571  0.3471  0.4761
17064TIP3    H172683   2.079   5.170  14.037 -1.0360  1.8531 -1.5522
17064TIP3    H272684   2.001   5.213  14.160 -2.9054  0.4125 -2.1834
17065TIP3   OH272685   2.959   5.824  10.683  0.2158 -0.0141 -0.2845
17065TIP3    H172686   3.030   5.885  10.661 -1.2478  2.3018  0.9253
17065TIP3    H272687   2.884   5.856  10.632 -0.5605 -0.9133  0.2654
17066TIP3   OH272688   5.622   4.316  13.764 -0.4575 -0.3961 -0.1992
17066TIP3    H172689   5.669   4.358  13.837  0.1715 -0.5126 -0.5264
17066TIP3    H272690   5.676   4.336  13.687 -1.0411 -0.3977 -0.6128
17067TIP3   OH272691   2.538   4.643   1.072 -0.1976  0.0207  0.2806
17067TIP3    H172692   2.614   4.620   1.019 -0.9092  0.9278 -1.2297
17067TIP3    H272693   2.567   4.716   1.126  0.3167 -0.3799  0.5475
17068TIP3   OH272694   1.106   4.917   6.114 -0.0501  0.2935  0.1214
17068TIP3    H172695   1.085   4.974   6.040  0.8903  1.4858  0.7459
17068TIP3    H272696   1.200   4.928   6.127 -0.2954  0.5626  1.8656
17069TIP3   OH272697   1.819   1.750  16.390  0.0096  0.3277  0.4804
17069TIP3    H172698   1.868   1.688  16.337 -1.3304  0.7976 -1.4049
17069TIP3    H272699   1.885   1.793  16.444  1.1875 -1.4094  0.4966
17070TIP3   OH272700   0.941   6.292   3.657  0.0991 -0.4754 -1.0603
17070TIP3    H172701   0.847   6.302   3.643  0.3759  0.5850 -2.4464
17070TIP3    H272702   0.949   6.238   3.735 -1.6593  0.8844  0.1258
17071TIP3   OH272703   4.632   5.995  16.400 -0.8516  0.1546 -0.6306
17071TIP3    H172704   4.726   6.011  16.397 -1.0788  1.5664 -0.8829
17071TIP3    H272705   4.600   6.026  16.315 -1.7500  1.2918  0.0927
17072TIP3   OH272706   5.867   4.590   0.114 -0.2861  0.1090  0.0656
17072TIP3    H172707   5.801   4.600   0.183 -0.3940  1.7795 -0.2364
17072TIP3    H272708   5.910   4.507   0.134 -1.0950 -0.0119  1.4664
17073TIP3   OH272709   0.413   6.255  16.411 -0.2504  0.4547 -0.0868
17073TIP3    H172710   0.317   6.259  16.417 -0.2980 -1.0109  0.5918
17073TIP3    H272711   0.443   6.333  16.457 -1.1080 -0.2699  1.8185
17074TIP3   OH272712   3.512   3.125  11.584  0.3631 -0.2564 -0.0249
17074TIP3    H172713   3.538   3.205  11.539 -2.1716 -0.9506 -3.0512
17074TIP3    H272714   3.420   3.139  11.606 -0.2814 -2.5070 -1.0984
17075TIP3   OH272715   2.085   5.520   5.722  0.1837 -0.3800  0.0468
17075TIP3    H172716   2.132   5.494   5.643 -1.6050  1.1929 -1.6632
17075TIP3    H272717   2.096   5.615   5.726 -0.4223 -0.3414  1.2275
17076TIP3   OH272718   2.846   5.295   2.358  0.5349 -0.2150 -0.3227
17076TIP3    H172719   2.872   5.360   2.293  2.8878 -1.2016 -0.4602
17076TIP3    H272720   2.766   5.256   2.322  1.2628 -0.0896 -2.1786
17077TIP3   OH272721   1.212   0.862  15.309  0.4550  0.2589 -0.3004
17077TIP3    H172722   1.153   0.827  15.376  0.0476  1.4722 -0.0042
17077TIP3    H272723   1.277   0.911  15.358  0.3902  0.8202 -0.7624
17078TIP3   OH272724   1.904   0.544  14.063  0.2125 -0.2014  0.4459
17078TIP3    H172725   1.842   0.570  13.994  0.1240  1.1058  0.9975
17078TIP3    H272726   1.860   0.472  14.109 -0.0857 -0.5229 -0.3207
17079TIP3   OH272727   4.784   5.776  12.869 -0.5780 -0.1870  0.3821
17079TIP3    H172728   4.865   5.725  12.860 -0.8087 -0.5388  0.2616
17079TIP3    H272729   4.720   5.728  12.817 -1.6356 -1.5629  2.7585
17080TIP3   OH272730   1.412   5.421   4.066  0.0921 -0.2925  0.0441
17080TIP3    H172731   1.450   5.366   3.998  0.4282  0.8427 -0.7099
17080TIP3    H272732   1.430   5.511   4.038 -0.7398  0.2224  1.0663
17081TIP3   OH272733   1.191   3.096   5.487  0.6700  0.1534 -0.3969
17081TIP3    H172734   1.243   3.165   5.445  1.3950  0.3684  0.8140
17081TIP3    H272735   1.254   3.046   5.537 -0.1656 -0.1276  0.3907
17082TIP3   OH272736   1.292   2.598  12.123  0.7206  0.3313 -0.2205
17082TIP3    H172737   1.308   2.612  12.029  0.2616  3.3544  0.0376
17082TIP3    H272738   1.379   2.591  12.161  0.9632  0.8385 -0.6689
17083TIP3   OH272739   3.866   3.103  14.332  0.1713 -0.1157  0.5918
17083TIP3    H172740   3.816   3.164  14.278  0.8223 -1.5427 -1.7777
17083TIP3    H272741   3.936   3.072  14.274  0.9769 -1.6926  2.3074
17084TIP3   OH272742   5.180   5.465  13.847  0.2491 -0.0536 -0.3190
17084TIP3    H172743   5.273   5.461  13.870 -0.1924 -0.4377  1.5645
17084TIP3    H272744   5.156   5.557  13.862  0.5364  0.2750 -1.7816
17085TIP3   OH272745   3.217   1.727  13.234 -0.5152  0.6859  0.6315
17085TIP3    H172746   3.179   1.665  13.171  3.0648 -1.1526  0.0189
17085TIP3    H272747   3.230   1.808  13.184 -2.0970  0.8709  0.4645
17086TIP3   OH272748   0.025   3.756  13.348  0.3550 -0.4072  0.2801
17086TIP3    H172749   0.033   3.826  13.413 -0.5354 -0.9352  0.9757
17086TIP3    H272750  -0.058   3.713  13.369 -0.9591  0.5750 -2.3578
17087TIP3   OH272751   3.890   4.088   4.799 -0.5753 -0.2131  0.5927
17087TIP3    H172752   3.847   4.129   4.724  1.1336 -0.8963 -0.8276
17087TIP3    H272753   3.861   3.997   4.797  0.2931 -0.4917  0.0839
17088TIP3   OH272754   5.890   3.552   4.236  0.5070 -0.3546 -0.1945
17088TIP3    H172755   5.905   3.495   4.312 -1.4108 -0.4077  0.1825
17088TIP3    H272756   5.847   3.629   4.273 -0.1178 -0.2261 -1.1847
17089TIP3   OH272757   4.265   2.939   2.542 -0.2834  0.3266  0.3559
17089TIP3    H172758   4.350   2.919   2.503 -0.6621  0.2743 -0.4770
17089TIP3    H272759   4.202   2.912   2.475 -0.8984  2.6420 -0.0825
17090TIP3   OH272760   0.073   6.486  12.422 -0.2077 -0.5460  0.0844
17090TIP3    H172761   0.146   6.443  12.377 -1.4027 -0.2079 -2.3822
17090TIP3    H272762   0.019   6.413  12.453 -0.3045 -0.8494 -0.7448
17091TIP3   OH272763   4.606   4.451   4.809  0.3932  0.5198 -0.1385
17091TIP3    H172764   4.539   4.441   4.742  1.3217  0.7320 -1.1200
17091TIP3    H272765   4.580   4.529   4.858 -0.9023 -0.2794  0.4958
17092TIP3   OH272766   4.227   3.917  14.683  0.1170 -0.7731 -0.0992
17092TIP3    H172767   4.218   3.933  14.589 -2.5135 -0.2158  0.1523
17092TIP3    H272768   4.289   3.984  14.712 -2.1503  1.8823 -0.8836
17093TIP3   OH272769   5.948   4.296   2.080 -0.3129  0.2213 -0.2727
17093TIP3    H172770   5.940   4.338   1.995 -2.7429  3.2247  1.2501
17093TIP3    H272771   5.904   4.211   2.069 -1.7040  1.0762 -1.6889
17094TIP3   OH272772   6.762   0.132   0.667  0.3929 -0.4038  0.2606
17094TIP3    H172773   6.790   0.121   0.757 -4.1050 -2.6339  1.6870
17094TIP3    H272774   6.777   0.047   0.626  0.0446 -0.2110 -0.2919
17095TIP3   OH272775   5.622   6.433   1.323 -0.0940  1.2540 -0.6500
17095TIP3    H172776   5.650   6.373   1.254  1.4275  1.4227 -0.2326
17095TIP3    H272777   5.611   6.517   1.280 -1.0140  0.9602 -1.0102
17096TIP3   OH272778   0.888   3.368  15.982  0.3291 -0.1991  0.8097
17096TIP3    H172779   0.947   3.439  16.007  1.1186 -0.5995  0.1116
17096TIP3    H272780   0.931   3.289  16.012  0.9757 -0.6358 -1.1175
17097TIP3   OH272781   2.072   1.299  12.308  0.3681 -0.0570 -0.1724
17097TIP3    H172782   2.117   1.262  12.384  1.5325  0.3542 -0.6358
17097TIP3    H272783   1.984   1.260  12.310  0.1988  0.3199  1.6520
17098TIP3   OH272784   1.013   0.981   5.025 -0.5975  0.2035 -0.3417
17098TIP3    H172785   0.968   0.905   5.063 -0.3876  0.2263 -0.0404
17098TIP3    H272786   0.965   0.999   4.944 -0.3965 -0.5053 -0.6304
17099TIP3   OH272787   3.122   2.052   5.770 -0.3857 -0.0322  0.9294
17099TIP3    H172788   3.132   2.139   5.730 -1.5239 -0.6497 -0.7897
17099TIP3    H272789   3.211   2.025   5.791 -0.0330  1.6535  1.7647
17100TIP3   OH272790   2.618   2.058  16.001 -0.1911 -0.3042 -0.4689
17100TIP3    H172791   2.689   2.092  16.056  0.5057 -0.5357 -1.1975
17100TIP3    H272792   2.594   1.975  16.041 -0.0656 -0.2152 -0.2066
17101TIP3   OH272793   5.170   2.991   3.011  0.6520 -0.3350  0.4864
17101TIP3    H172794   5.149   2.904   3.045  0.8588 -0.2384  0.8641
17101TIP3    H272795   5.262   2.985   2.986  0.2207 -0.7290 -1.0789
17102TIP3   OH272796   2.104   2.601  14.729  0.4374 -0.4504  0.1702
17102TIP3    H172797   2.021   2.575  14.687  0.7866 -0.1781 -0.7192
17102TIP3    H272798   2.169   2.593  14.659  0.9700  0.4249  0.5618
17103TIP3   OH272799   3.709   6.747   0.654  0.3198  0.0733 -0.4519
17103TIP3    H172800   3.666   6.800   0.722 -0.0967 -0.4049 -0.3403
17103TIP3    H272801   3.664   6.663   0.657  2.1535 -0.9307  0.5994
17104TIP3   OH272802   3.069   1.985  16.468  0.0986  0.2336  0.2689
17104TIP3    H172803   3.098   2.020  16.552 -0.5734 -1.4177  1.2485
17104TIP3    H272804   3.150   1.969  16.420  0.4505  2.1712  0.1424
17105TIP3   OH272805   4.279   0.874   5.909  0.1613  0.2462 -0.0360
17105TIP3    H172806   4.289   0.923   5.827  0.2558  1.0650  0.4485
17105TIP3    H272807   4.299   0.784   5.886  0.3080  0.4872 -0.8903
17106TIP3   OH272808   6.217   6.045   6.426  0.4119  0.4975 -0.2028
17106TIP3    H172809   6.306   6.012   6.416  0.6067  0.3725  1.5800
17106TIP3    H272810   6.192   6.018   6.515 -0.3880  2.8910  0.3643
17107TIP3   OH272811   2.982   4.485   0.737  0.2190  0.2619  0.1034
17107TIP3    H172812   2.980   4.412   0.799  0.1425 -0.1738 -0.4103
17107TIP3    H272813   2.890   4.499   0.715  0.2346  0.5107  0.1963
17108TIP3   OH272814   4.998   6.383  16.562 -0.7913  0.0167 -0.2544
17108TIP3    H172815   5.000   6.475  16.535 -0.0755  0.0195 -0.2296
17108TIP3    H272816   4.912   6.352  16.536 -0.9520  0.6342 -0.4806
17109TIP3   OH272817   1.624   6.037   2.781  0.2026  0.1629 -0.0501
17109TIP3    H172818   1.609   6.127   2.811  1.8189  0.0823  1.1655
17109TIP3    H272819   1.621   5.985   2.862 -0.5818 -0.8672 -0.7234
17110TIP3   OH272820   4.603   0.821  11.408  0.2149  0.7855 -0.5119
17110TIP3    H172821   4.638   0.881  11.474  0.9622 -0.3829  0.1918
17110TIP3    H272822   4.515   0.800  11.439  0.3735  0.6349 -0.1638
17111TIP3   OH272823   0.639   4.734  14.711 -0.5786 -0.1409  0.4110
17111TIP3    H172824   0.709   4.691  14.760 -0.4594  1.1394  1.4161
17111TIP3    H272825   0.653   4.828  14.727 -2.1468  0.1653  0.1168
17112TIP3   OH272826   1.293   2.866  16.538  0.5783  0.1802  0.1583
17112TIP3    H172827   1.341   2.822  16.608  1.0304  1.9795  1.0323
17112TIP3    H272828   1.352   2.864  16.463  0.6515 -0.5305  0.2279
17113TIP3   OH272829   6.607   3.883   2.308  0.0262  0.0035 -0.7916
17113TIP3    H172830   6.617   3.897   2.402 -0.9902 -0.4061 -0.6056
17113TIP3    H272831   6.548   3.953   2.279  0.4632  0.2253 -1.1565
17114TIP3   OH272832   5.678   4.405   4.019 -0.1448 -0.6295  0.4276
17114TIP3    H172833   5.752   4.344   4.013  1.2676  0.9341  1.0124
17114TIP3    H272834   5.614   4.360   4.074  1.2613 -1.2063  1.6505
17115TIP3   OH272835   5.145   3.630   4.900  0.1532  0.5878  0.0543
17115TIP3    H172836   5.072   3.692   4.905  0.2285  0.6369  0.5451
17115TIP3    H272837   5.223   3.682   4.919  0.4416  0.7287 -1.3411
17116TIP3   OH272838   0.894   3.000  11.332 -0.3513  0.5115  0.2847
17116TIP3    H172839   0.891   2.945  11.411  0.5127  0.1949  0.1068
17116TIP3    H272840   0.962   2.960  11.278  0.2974  1.7700  0.1513
17117TIP3   OH272841   2.502   1.518  14.490  0.0164 -0.3816  0.3193
17117TIP3    H172842   2.460   1.436  14.518  0.6515 -0.9220 -0.2604
17117TIP3    H272843   2.529   1.560  14.572 -1.1637 -0.2813  0.6724
17118TIP3   OH272844   2.107   2.982   6.049  0.3430 -0.0268 -0.3978
17118TIP3    H172845   2.126   2.899   6.093 -0.1356 -0.1003 -0.3207
17118TIP3    H272846   2.035   3.020   6.099  0.5567  0.4359 -0.4361
17119TIP3   OH272847   3.181   6.418   2.913  0.4859  0.0829  0.0493
17119TIP3    H172848   3.195   6.476   2.838 -0.7592 -0.0601 -0.3109
17119TIP3    H272849   3.088   6.425   2.932  0.9938  1.2067  2.5199
17120TIP3   OH272850   1.731   0.044   1.646  0.5743  0.2999 -0.2734
17120TIP3    H172851   1.676   0.078   1.717  1.0729  1.9609 -0.6292
17120TIP3    H272852   1.714  -0.050   1.645 -0.5075  0.4468  1.1186
17121TIP3   OH272853   1.883   4.215   1.963 -0.3631  0.5044 -0.1464
17121TIP3    H172854   1.930   4.197   1.881 -0.0567 -2.0991  0.5012
17121TIP3    H272855   1.923   4.155   2.027 -1.4966  1.5067  1.5770
17122TIP3   OH272856   3.988   3.743  11.390 -0.0283 -0.1024 -0.3138
17122TIP3    H172857   3.939   3.775  11.466  0.6414 -0.8101  0.4391
17122TIP3    H272858   4.074   3.784  11.399  0.1011 -0.3123 -0.6011
17123TIP3   OH272859   5.912   0.673  13.860 -0.3974  0.4726  0.0528
17123TIP3    H172860   5.879   0.627  13.783  0.3233  0.5704 -0.3206
17123TIP3    H272861   5.990   0.719  13.829 -0.5952  1.2152  0.6344
17124TIP3   OH272862   1.572   2.299   3.574  0.6328  0.0718 -0.3195
17124TIP3    H172863   1.499   2.341   3.618  1.1860  0.3663  0.3328
17124TIP3    H272864   1.586   2.352   3.495 -1.3303 -1.3281 -1.7196
17125TIP3   OH272865   5.377   3.624  15.611  0.8493  0.2907 -0.1644
17125TIP3    H172866   5.293   3.670  15.603 -0.3224 -1.9941 -1.9830
17125TIP3    H272867   5.428   3.654  15.536  0.6758 -0.1808 -0.4757
17126TIP3   OH272868   4.140   5.931  14.271 -0.0483 -0.1478  0.5290
17126TIP3    H172869   4.209   5.994  14.249 -0.6265  0.7778  1.2974
17126TIP3    H272870   4.085   5.977  14.334 -2.4601 -0.1530 -1.4164
17127TIP3   OH272871   2.312   5.626  16.931  0.1570  0.8398 -0.1630
17127TIP3    H172872   2.241   5.687  16.911 -0.5156  0.0760 -0.1584
17127TIP3    H272873   2.269   5.542  16.943  0.9974  0.4804  0.4812
17128TIP3   OH272874   4.151   5.852   5.119  0.1927  0.0557 -0.1816
17128TIP3    H172875   4.112   5.938   5.134 -0.4927 -0.1347 -0.8089
17128TIP3    H272876   4.080   5.798   5.084  1.2523  0.0417 -2.5292
17129TIP3   OH272877   0.026   5.358  17.182  0.3322  0.4203 -0.7138
17129TIP3    H172878   0.014   5.325  17.093 -2.8582  1.4010 -0.7636
17129TIP3    H272879   0.119   5.380  17.187  1.0620 -1.6686 -3.0432
17130TIP3   OH272880   5.811   0.701   1.950 -0.2897 -0.2538 -0.4441
17130TIP3    H172881   5.792   0.726   2.040 -2.0773  1.4280 -1.2201
17130TIP3    H272882   5.776   0.612   1.941 -3.1410  0.7781 -0.3213
17131TIP3   OH272883   4.492   0.514   2.143 -0.1899  0.3469  0.1425
17131TIP3    H172884   4.454   0.495   2.057  0.3618  1.1189 -0.2935
17131TIP3    H272885   4.525   0.430   2.174  1.2113  0.3210 -1.2309
17132TIP3   OH272886   6.403   0.053  10.989  0.0880 -0.3881 -0.5108
17132TIP3    H172887   6.332   0.048  10.926 -0.1198 -1.4952 -0.1959
17132TIP3    H272888   6.378  -0.006  11.060  2.3619 -2.6937 -1.4623
17133TIP3   OH272889   0.365   6.276   1.147 -0.1799  0.0142 -0.3376
17133TIP3    H172890   0.293   6.305   1.092 -0.2168  0.1966 -0.1927
17133TIP3    H272891   0.407   6.205   1.097 -1.4011 -1.1629  0.2518
17134TIP3   OH272892   1.779   5.216   4.560 -0.0281  0.6124 -0.8888
17134TIP3    H172893   1.797   5.264   4.640  0.0374 -0.3510 -0.3063
17134TIP3    H272894   1.828   5.134   4.570 -0.2552  0.3568 -1.7811
17135TIP3   OH272895   4.169   3.158   1.916 -0.0664  0.0373 -0.0317
17135TIP3    H172896   4.095   3.116   1.873 -1.3089  1.8030  0.2623
17135TIP3    H272897   4.208   3.213   1.848  1.1352 -1.0148 -0.2348
17136TIP3   OH272898   2.109   1.086   0.998  0.3849  0.5702  0.1198
17136TIP3    H172899   2.058   1.160   1.030 -0.5801  0.2190 -0.5554
17136TIP3    H272900   2.197   1.102   1.030  0.3369  2.3443 -0.5671
17137TIP3   OH272901   5.816   0.843  14.555  0.5853  0.3541 -0.1947
17137TIP3    H172902   5.803   0.760  14.509  1.2677 -0.0321  0.2977
17137TIP3    H272903   5.790   0.910  14.491 -1.9131 -0.2702  0.0512
17138TIP3   OH272904   6.165   0.415   4.982 -0.3756 -0.1391 -0.4181
17138TIP3    H172905   6.084   0.365   4.991 -0.0572 -0.8753 -1.3525
17138TIP3    H272906   6.218   0.362   4.922  0.2987  0.9442 -0.8007
17139TIP3   OH272907   2.182   2.713  12.635 -0.1975  0.2966  0.1881
17139TIP3    H172908   2.199   2.805  12.654  0.3839  0.5235 -1.2892
17139TIP3    H272909   2.262   2.668  12.662  1.2495  0.8052 -2.7341
17140TIP3   OH272910   1.060   0.376   2.879  0.1871  0.1663 -0.1156
17140TIP3    H172911   1.115   0.348   2.805  1.3946  2.7880 -0.3494
17140TIP3    H272912   1.056   0.471   2.869 -1.4855  0.3587  1.9743
17141TIP3   OH272913   3.914   6.098  11.894  0.0236  0.8120 -0.3452
17141TIP3    H172914   3.952   6.040  11.828  2.6379  0.3907  1.3759
17141TIP3    H272915   3.837   6.051  11.925 -0.1755  0.1600 -1.7506
17142TIP3   OH272916   2.494   1.932   1.896  0.1751 -1.0301 -0.0291
17142TIP3    H172917   2.490   2.011   1.843 -1.3512 -2.1044 -1.6223
17142TIP3    H272918   2.585   1.903   1.890  0.7701  0.6237  0.6599
17143TIP3   OH272919   1.910   0.823   2.073  0.0230 -0.3652 -0.5633
17143TIP3    H172920   1.913   0.836   1.978  0.3201 -1.7268 -0.7629
17143TIP3    H272921   1.924   0.911   2.109  1.6937 -0.0609 -1.7800
17144TIP3   OH272922   0.793   3.033  14.520 -0.5103 -0.0255  0.4855
17144TIP3    H172923   0.849   3.004  14.448 -1.8792 -0.7280 -0.3376
17144TIP3    H272924   0.820   2.980  14.595  1.7424  1.5273  0.8911
17145TIP3   OH272925   5.010   3.207   3.115  0.7165  0.1738 -0.9092
17145TIP3    H172926   5.059   3.152   3.053  0.4556 -0.6963 -0.3602
17145TIP3    H272927   5.056   3.196   3.198  0.0262 -0.0779 -0.5523
17146TIP3   OH272928   5.739   2.664  16.917  0.1456  0.5624 -0.0518
17146TIP3    H172929   5.699   2.732  16.971  1.0689 -0.4589  2.0544
17146TIP3    H272930   5.816   2.705  16.878 -0.7035  1.4036 -0.8831
17147TIP3   OH272931   6.240   5.045   3.780 -0.1626 -0.3068 -0.0786
17147TIP3    H172932   6.257   5.135   3.808  1.4591 -0.7500  0.4265
17147TIP3    H272933   6.303   5.029   3.711 -1.1095 -0.7541 -0.8692
17148TIP3   OH272934   0.802   0.805  11.824 -0.0472 -0.5397 -0.4134
17148TIP3    H172935   0.894   0.831  11.823  0.0206 -0.7528  0.1128
17148TIP3    H272936   0.804   0.709  11.826 -0.2883 -0.5795 -1.4339
17149TIP3   OH272937   6.801   2.973  11.447 -0.4086 -0.0459 -0.4052
17149TIP3    H172938   6.753   3.051  11.420  2.2415  1.5089 -0.9621
17149TIP3    H272939   6.848   2.945  11.369  0.8213 -0.5227  0.4697
17150TIP3   OH272940   6.747   5.701  14.857 -0.1424 -0.1691  0.0280
17150TIP3    H172941   6.777   5.643  14.927 -0.5435  0.0133  0.3548
17150TIP3    H272942   6.785   5.664  14.777 -0.8365 -1.2035  0.1556
17151TIP3   OH272943   4.755   2.072   3.218 -0.1766 -0.1205 -0.3106
17151TIP3    H172944   4.665   2.063   3.188 -0.9336  0.6250  1.5468
17151TIP3    H272945   4.767   1.999   3.279  0.5423 -0.3174 -0.6787
17152TIP3   OH272946   3.800   2.404   2.651 -0.4223  0.1001  0.2617
17152TIP3    H172947   3.832   2.319   2.623 -0.1153  0.7946 -1.6340
17152TIP3    H272948   3.709   2.406   2.622 -0.6999  0.0870  1.1086
17153TIP3   OH272949   4.496   2.931   5.402 -0.9267  0.1977  0.5597
17153TIP3    H172950   4.469   2.850   5.445  0.1188  0.2819  1.4160
17153TIP3    H272951   4.566   2.905   5.343  0.9873  0.7189  2.4495
17154TIP3   OH272952   1.828   4.929   5.398  0.4413 -0.3712  0.1097
17154TIP3    H172953   1.759   4.964   5.454  0.7226 -0.8827  0.7894
17154TIP3    H272954   1.909   4.946   5.446  0.6460 -1.2435  0.1003
17155TIP3   OH272955   6.177   2.453  13.052  0.3743 -0.8778 -0.0603
17155TIP3    H172956   6.100   2.496  13.014  1.3268  1.8098  0.8161
17155TIP3    H272957   6.142   2.403  13.126 -0.7936 -1.7985 -1.1747
17156TIP3   OH272958   0.093   0.801  16.848  0.2208  0.7208 -0.2894
17156TIP3    H172959   0.105   0.858  16.772  1.3864  0.2449 -0.4734
17156TIP3    H272960   0.159   0.830  16.910 -1.3572  1.7700  0.9806
17157TIP3   OH272961   6.154   3.837  16.626 -0.1529  0.2152 -0.0734
17157TIP3    H172962   6.192   3.769  16.683  1.0051 -0.2213 -1.3241
17157TIP3    H272963   6.159   3.917  16.679  1.2471 -0.1037  0.3405
17158TIP3   OH272964   1.549   4.337   3.976  0.2702  0.0628  0.4949
17158TIP3    H172965   1.503   4.272   4.029  0.3297 -0.4925 -0.1201
17158TIP3    H272966   1.529   4.312   3.886 -1.6522  2.2830  0.2191
17159TIP3   OH272967   5.481   5.807  14.696  0.2014  1.1572  0.3740
17159TIP3    H172968   5.574   5.824  14.682  0.1384 -0.2521 -2.3522
17159TIP3    H272969   5.439   5.892  14.680  0.9253  1.5475  0.4961
17160TIP3   OH272970   1.539   0.846   6.731 -0.1016  0.0519  0.1459
17160TIP3    H172971   1.491   0.819   6.652  1.5414  1.4674 -1.4150
17160TIP3    H272972   1.629   0.820   6.714  0.3193  0.5552  1.5115
17161TIP3   OH272973   4.376   3.482   4.214 -0.0357 -0.3762  0.4030
17161TIP3    H172974   4.444   3.531   4.167  0.1998 -0.4440  0.6654
17161TIP3    H272975   4.300   3.486   4.157  0.2071 -0.3459  0.0771
17162TIP3   OH272976   3.809   0.317   5.594  0.2711 -1.1105  0.8195
17162TIP3    H172977   3.844   0.355   5.513 -1.3712 -0.2932  0.4592
17162TIP3    H272978   3.813   0.389   5.657 -0.8601 -0.9353  0.7193
17163TIP3   OH272979   1.755   5.742   0.381 -0.3174 -0.0644 -0.5361
17163TIP3    H172980   1.780   5.832   0.360  1.6749 -0.7409 -1.3048
17163TIP3    H272981   1.730   5.744   0.473 -2.2045  1.6182 -1.0335
17164TIP3   OH272982   6.589   0.431  14.530  0.1940  0.8833 -0.4431
17164TIP3    H172983   6.643   0.415  14.453 -1.4741 -1.9914 -1.1769
17164TIP3    H272984   6.526   0.497  14.502  1.5519  2.2169 -0.4565
17165TIP3   OH272985   5.877   0.561   1.687  0.5711 -0.1028 -0.1739
17165TIP3    H172986   5.952   0.619   1.695  1.2500 -0.7730 -1.4867
17165TIP3    H272987   5.914   0.474   1.671 -0.4642 -0.5879 -0.0613
17166TIP3   OH272988   1.838   5.100   0.870 -0.1208 -0.3101 -0.5627
17166TIP3    H172989   1.859   5.045   0.795  1.7216  0.9758 -1.0798
17166TIP3    H272990   1.767   5.157   0.840 -0.0781 -0.4826 -0.9929
17167TIP3   OH272991   3.586   0.881   5.366  0.8472 -0.2488 -0.4654
17167TIP3    H172992   3.612   0.855   5.278 -0.1940  0.2430 -0.9268
17167TIP3    H272993   3.547   0.802   5.404 -1.1602  0.2265 -1.4213
17168TIP3   OH272994   1.568   4.448  15.152 -0.5359  0.2468  0.4761
17168TIP3    H172995   1.476   4.475  15.157 -0.6072  0.4058 -1.1281
17168TIP3    H272996   1.575   4.374  15.212 -2.5405 -1.8702 -1.6768
17169TIP3   OH272997   0.527   3.823   1.404 -0.0300  0.1617  0.1338
17169TIP3    H172998   0.510   3.734   1.435  1.7774  0.3987  2.0350
17169TIP3    H272999   0.451   3.874   1.433 -0.7469 -0.6095 -0.3583
17170TIP3   OH273000   6.128   4.597   1.507 -0.1974 -0.0190 -0.4224
17170TIP3    H173001   6.136   4.687   1.537  0.3514 -0.2188  0.0461
17170TIP3    H273002   6.200   4.550   1.550 -0.1405 -0.5689 -1.0949
17171TIP3   OH273003   4.433   0.404   4.821 -0.1002 -0.2316  0.6188
17171TIP3    H173004   4.466   0.487   4.788  0.5676 -0.1623  1.4320
17171TIP3    H273005   4.473   0.338   4.764  2.1170 -0.2014  2.0475
17172TIP3   OH273006   3.753   2.204   0.678 -0.2124 -0.3023 -0.0059
17172TIP3    H173007   3.699   2.128   0.700 -1.3934  0.3759 -0.4784
17172TIP3    H273008   3.842   2.169   0.671 -0.6227 -1.5003  0.4967
17173TIP3   OH273009   5.599   2.679  13.460 -0.2401 -0.4324  0.2324
17173TIP3    H173010   5.674   2.738  13.455  1.1557 -2.0475  1.0260
17173TIP3    H273011   5.554   2.703  13.541 -0.4101  0.3073 -0.0692
17174TIP3   OH273012   1.470   0.021   2.964 -0.0111  0.1340  0.2050
17174TIP3    H173013   1.378   0.017   2.988 -0.7815  1.1630 -2.1825
17174TIP3    H273014   1.511   0.071   3.034 -0.9012 -1.6585  2.0950
17175TIP3   OH273015   0.703   3.784  12.535 -0.4110  0.4463 -0.1377
17175TIP3    H173016   0.696   3.697  12.495  1.6747  0.0283  0.3043
17175TIP3    H273017   0.726   3.841  12.462  1.2345  0.0664  0.0598
17176TIP3   OH273018   3.937   3.367  16.765 -0.2410 -0.3667 -0.0271
17176TIP3    H173019   3.984   3.326  16.837  0.5522 -1.9217 -1.3772
17176TIP3    H273020   3.940   3.461  16.786 -0.5155 -0.7973  2.2028
17177TIP3   OH273021   2.715   1.198   0.970 -0.2638 -0.6928  0.1755
17177TIP3    H173022   2.622   1.197   0.993 -0.8139 -0.8829 -1.7965
17177TIP3    H273023   2.751   1.120   1.012 -0.7070 -0.0229  1.8885
17178TIP3   OH273024   0.011   6.086  13.808 -0.0772  0.0297 -0.1900
17178TIP3    H173025  -0.007   6.092  13.902  0.8600 -0.8954  0.0652
17178TIP3    H273026   0.002   6.176  13.777 -3.0369 -0.0159  0.2399
17179TIP3   OH273027   5.561   5.481  15.518  0.0929  0.0403  0.1646
17179TIP3    H173028   5.581   5.575  15.523  0.1388 -0.0313  2.2338
17179TIP3    H273029   5.503   5.473  15.443 -0.1828  1.7857  0.1427
17180TIP3   OH273030   2.073   1.002  13.721 -0.0535 -0.8585 -0.0872
17180TIP3    H173031   2.088   1.018  13.814  0.8921 -0.3067 -0.3108
17180TIP3    H273032   2.027   1.081  13.690  2.7727  0.6690 -0.7679
17181TIP3   OH273033   4.287   0.080   0.932  0.0930 -0.7537 -0.9388
17181TIP3    H173034   4.275   0.154   0.992  2.4893 -0.9602 -0.0852
17181TIP3    H273035   4.308   0.006   0.990 -0.1114 -1.5793 -1.8914
17182TIP3   OH273036   4.343   5.819   0.641 -0.2805  0.5842 -0.2280
17182TIP3    H173037   4.305   5.818   0.553 -2.7851 -0.9287  0.7772
17182TIP3    H273038   4.416   5.758   0.636 -0.2327  0.7021 -1.3028
17183TIP3   OH273039   0.933   1.351   4.899  0.0389 -0.0989 -0.3131
17183TIP3    H173040   1.017   1.371   4.942  0.3722  0.0610 -1.0220
17183TIP3    H273041   0.894   1.437   4.882 -0.4041 -0.1802  0.2605
17184TIP3   OH273042   3.569   4.030   2.808 -0.0062 -0.0067 -0.2923
17184TIP3    H173043   3.579   4.104   2.868 -0.0654 -0.2483  0.0142
17184TIP3    H273044   3.476   4.009   2.811 -0.0556  0.1423 -0.6635
17185TIP3   OH273045   4.854   1.811   0.727 -0.1720  0.0726  0.1501
17185TIP3    H173046   4.933   1.792   0.677  0.5856  0.5359  1.1260
17185TIP3    H273047   4.809   1.879   0.677 -0.3919 -0.7784 -0.8405
17186TIP3   OH273048   6.324   3.939  16.119  0.5016  0.5736  0.4701
17186TIP3    H173049   6.417   3.928  16.098  0.2884 -0.4627  0.0109
17186TIP3    H273050   6.278   3.917  16.038 -0.2697 -1.8796  1.4731
17187TIP3   OH273051   0.887   5.919   6.191  0.1631 -0.5018  0.0176
17187TIP3    H173052   0.825   5.883   6.254 -0.6524 -0.5932 -0.8120
17187TIP3    H273053   0.909   6.005   6.226 -0.8986 -0.2187  0.0321
17188TIP3   OH273054   3.899   1.134   5.118  0.5153 -0.2175  0.3080
17188TIP3    H173055   3.942   1.220   5.115  0.9653 -0.4145  0.9492
17188TIP3    H273056   3.926   1.092   5.037 -0.4856  0.6006 -0.4825
17189TIP3   OH273057   1.741   4.946   1.840  0.4927  0.4504  0.0201
17189TIP3    H173058   1.803   4.888   1.886 -0.0472 -0.7103 -0.6602
17189TIP3    H273059   1.773   4.947   1.749 -0.1315  0.3344 -0.2025
17190TIP3   OH273060   1.079   2.943  13.599  0.7852 -0.0489  0.7944
17190TIP3    H173061   1.096   2.933  13.505 -2.1189  0.8767  0.0624
17190TIP3    H273062   0.991   2.908  13.611  0.4339  1.3568  2.8369
17191TIP3   OH273063   5.620   4.570   0.260  0.5236  0.0186  0.3981
17191TIP3    H173064   5.599   4.663   0.246  1.4181  0.0004 -1.3797
17191TIP3    H273065   5.549   4.524   0.215 -0.0843 -0.2046  1.5356
17192TIP3   OH273066   2.143   2.641   0.093 -0.5216  0.1605 -0.2357
17192TIP3    H173067   2.196   2.633   0.172  0.0295  0.2736 -0.5869
17192TIP3    H273068   2.121   2.551   0.068  0.9190 -0.0091 -1.0188
17193TIP3   OH273069   5.140   2.867   0.439 -0.4813  0.2287  0.2758
17193TIP3    H173070   5.049   2.856   0.470 -0.5060 -1.3279 -0.2397
17193TIP3    H273071   5.159   2.959   0.454 -1.9404  0.4566  0.9842
17194TIP3   OH273072   3.583   0.221  12.685 -0.3622 -0.3310 -0.6406
17194TIP3    H173073   3.612   0.159  12.753 -1.3818 -2.0610 -1.7177
17194TIP3    H273074   3.516   0.274  12.728  1.8482  1.4338  0.8728
17195TIP3   OH273075   2.148   4.714  16.793 -0.1518  0.2463 -0.2794
17195TIP3    H173076   2.206   4.688  16.721 -0.7511 -0.3090 -0.5615
17195TIP3    H273077   2.136   4.634  16.844 -2.0678 -0.0926 -1.1956
17196TIP3   OH273078   5.054   3.050  13.012 -0.4568  0.0377  0.7700
17196TIP3    H173079   5.027   3.055  13.103 -0.7196 -0.7402  0.7472
17196TIP3    H273080   5.142   3.011  13.015 -1.4409 -2.3927  0.5982
17197TIP3   OH273081   1.420   0.454  16.037 -0.2723 -0.4591  0.5690
17197TIP3    H173082   1.356   0.523  16.054 -0.4381 -1.0060  2.3843
17197TIP3    H273083   1.492   0.498  15.991 -1.2750  0.4677 -0.1637
17198TIP3   OH273084   1.411   1.120   4.437 -0.1234  0.2699 -0.5428
17198TIP3    H173085   1.499   1.118   4.399 -0.2358 -2.1625 -0.8305
17198TIP3    H273086   1.424   1.101   4.529 -0.2447  1.6769 -0.2084
17199TIP3   OH273087   3.867   0.205   4.358  0.1859 -0.0747  0.0234
17199TIP3    H173088   3.869   0.145   4.433  2.9206 -2.1347 -1.5458
17199TIP3    H273089   3.803   0.167   4.298  1.5763 -1.2189 -0.7668
17200TIP3   OH273090   2.154   2.791   3.471  0.0905 -0.0062  0.5201
17200TIP3    H173091   2.065   2.760   3.488 -1.1406  1.6732 -2.1964
17200TIP3    H273092   2.145   2.886   3.464  1.9370  0.1239 -0.6216
17201TIP3   OH273093   4.816   1.899   5.205  0.2707  0.4928 -0.3341
17201TIP3    H173094   4.896   1.935   5.244 -0.4841  1.6724  0.1760
17201TIP3    H273095   4.826   1.915   5.111  0.4832  0.9468 -0.2374
17202TIP3   OH273096   5.745   0.623  14.104  0.0023 -0.5882 -0.1146
17202TIP3    H173097   5.813   0.630  14.037  2.5918 -0.6039  2.2855
17202TIP3    H273098   5.730   0.529  14.113 -0.5641 -0.5704 -0.8555
17203TIP3   OH273099   5.370   6.492   0.793 -0.0147  0.3219  0.6341
17203TIP3    H173100   5.436   6.556   0.767 -0.0642 -0.1933 -0.8445
17203TIP3    H273101   5.287   6.532   0.768 -0.2683  0.7597  2.0548
17204TIP3   OH273102   4.814   2.679  13.789 -0.0905  0.6652 -0.1264
17204TIP3    H173103   4.789   2.721  13.871 -1.5944 -0.3135 -0.0456
17204TIP3    H273104   4.909   2.672  13.793  0.0269  2.3187  0.6830
17205TIP3   OH273105   0.206   5.581  14.239 -0.2584 -0.0733 -0.1056
17205TIP3    H173106   0.200   5.534  14.322  1.0391  0.2953  0.2187
17205TIP3    H273107   0.276   5.644  14.253 -0.9738  0.9575 -1.0256
17206TIP3   OH273108   0.539   5.552   1.798  0.2427  0.2111  0.2074
17206TIP3    H173109   0.630   5.529   1.817  0.8269  1.4601 -0.9287
17206TIP3    H273110   0.487   5.491   1.850  1.7150 -1.6424 -0.4149
17207TIP3   OH273111   4.113   3.736  17.152 -0.3978 -0.7692 -0.0713
17207TIP3    H173112   4.154   3.673  17.094 -1.3287 -1.5816  0.1260
17207TIP3    H273113   4.049   3.685  17.202 -0.5978  0.1756  0.6701
17208TIP3   OH273114   4.078   6.515  15.600 -0.3618  0.2340 -0.8532
17208TIP3    H173115   4.088   6.609  15.615 -3.3092  0.4388  0.4950
17208TIP3    H273116   4.072   6.507  15.505  1.2491  1.1894 -1.0757
17209TIP3   OH273117   0.802   1.588   2.277  1.1623 -0.1514 -0.7450
17209TIP3    H173118   0.890   1.620   2.294  1.5533 -1.9432  0.9482
17209TIP3    H273119   0.808   1.493   2.288 -1.0091 -0.3029 -0.3626
17210TIP3   OH273120   6.410   6.027  13.445 -0.6042 -0.6181 -0.5009
17210TIP3    H173121   6.357   6.096  13.404  0.9476  1.2900  0.5112
17210TIP3    H273122   6.374   6.018  13.533 -2.0298 -2.5478 -1.2412
17211TIP3   OH273123   4.848   0.507   2.665 -0.4212 -0.0191  0.1363
17211TIP3    H173124   4.854   0.526   2.571 -0.3425  2.3662  0.5619
17211TIP3    H273125   4.934   0.471   2.687  0.4165  1.5870 -0.3216
17212TIP3   OH273126   5.625   6.318  14.594  0.2815 -0.5631  0.2167
17212TIP3    H173127   5.683   6.277  14.659  0.7183 -2.1115 -1.0758
17212TIP3    H273128   5.601   6.246  14.535 -0.0195  0.7970 -1.3969
17213TIP3   OH273129   0.797   6.366   0.120  0.1960 -0.6344 -0.7919
17213TIP3    H173130   0.822   6.279   0.089  0.3767 -0.0588 -2.3233
17213TIP3    H273131   0.712   6.353   0.162  1.2649 -1.9506  1.1380
17214TIP3   OH273132   5.654   5.094  17.279  0.0691 -0.7643 -0.1563
17214TIP3    H173133   5.649   5.038  17.357 -0.4426 -1.0131 -0.3630
17214TIP3    H273134   5.572   5.143  17.280 -0.1550 -1.1147 -0.7907
17215TIP3   OH273135   6.297   4.006  15.415 -0.0700 -0.1528  0.1336
17215TIP3    H173136   6.340   4.005  15.501 -0.9159 -0.2780  0.5694
17215TIP3    H273137   6.247   4.087  15.415 -1.2754 -0.8692  0.3891
17216TIP3   OH273138   4.329   6.647  15.868  0.1608  0.1640 -0.3536
17216TIP3    H173139   4.266   6.703  15.825 -0.0609  0.9924  1.0013
17216TIP3    H273140   4.282   6.565  15.885  0.6459 -0.7261 -2.8217
17217TIP3   OH273141   2.644   3.531  12.732 -0.1844 -0.6908  0.1846
17217TIP3    H173142   2.733   3.548  12.701 -0.0110  1.0741  1.5451
17217TIP3    H273143   2.648   3.442  12.768  0.1746 -1.9017 -2.5615
17218TIP3   OH273144   0.185   5.461   2.406  0.1410  0.3036 -0.2696
17218TIP3    H173145   0.239   5.508   2.469 -0.1190  2.6187 -1.6650
17218TIP3    H273146   0.248   5.413   2.351  0.5371  0.3600  0.1314
17219TIP3   OH273147   0.186   0.038  17.065  0.0261 -0.9392 -0.3161
17219TIP3    H173148   0.164  -0.051  17.091  0.7192 -1.3938 -1.2539
17219TIP3    H273149   0.267   0.057  17.112  0.1157 -0.9593 -0.4644
17220TIP3   OH273150   1.858   2.956   6.469  0.0395 -0.7273  0.5445
17220TIP3    H173151   1.799   2.932   6.540  0.3558  2.6146  2.0874
17220TIP3    H273152   1.945   2.961   6.509  0.7066 -1.4402 -0.7315
17221TIP3   OH273153   5.176   0.580  12.076 -0.1145 -0.5269 -0.0212
17221TIP3    H173154   5.191   0.495  12.035  1.6667 -0.1788 -0.1534
17221TIP3    H273155   5.253   0.595  12.130 -1.7128 -0.3057  2.3739
17222TIP3   OH273156   0.073   3.908  12.937 -0.0885 -0.2747 -0.2183
17222TIP3    H173157   0.149   3.898  12.881  0.9757 -0.2807  1.1717
17222TIP3    H273158   0.019   3.831  12.917  0.9386 -1.0176 -0.2347
17223TIP3   OH273159   0.879   0.275  14.355 -0.6502 -0.0985 -0.3929
17223TIP3    H173160   0.938   0.338  14.314 -1.3965  0.2309 -0.9828
17223TIP3    H273161   0.897   0.192  14.310 -1.3620  0.2286 -1.2940
17224TIP3   OH273162   0.782   5.130   4.691  0.2136 -0.5852 -0.0616
17224TIP3    H173163   0.731   5.143   4.771 -0.8448 -3.0957 -0.2519
17224TIP3    H273164   0.869   5.106   4.722 -0.2106 -1.6239  0.3808
17225TIP3   OH273165   2.952   3.832   3.746 -0.2263  0.2493 -0.0156
17225TIP3    H173166   2.894   3.785   3.685  0.7063 -1.9486  0.6972
17225TIP3    H273167   2.945   3.784   3.828  1.5963  0.6981  0.4572
17226TIP3   OH273168   4.637   4.940   1.492  0.3347  0.8541 -0.6968
17226TIP3    H173169   4.649   4.974   1.581 -1.1439  1.2603 -0.6153
17226TIP3    H273170   4.725   4.921   1.461  0.9750  1.8776  0.4075
17227TIP3   OH273171   5.875   4.395   2.961 -0.1112  0.0455  0.1552
17227TIP3    H173172   5.911   4.416   3.048  0.4644 -3.7076  0.9923
17227TIP3    H273173   5.784   4.424   2.966  0.2809  1.2092  1.4562
17228TIP3   OH273174   2.724   4.348  13.021 -0.2404  0.3189 -0.0808
17228TIP3    H173175   2.819   4.351  13.007  0.2107  0.0534  2.5534
17228TIP3    H273176   2.709   4.266  13.068 -1.7635  0.4923 -0.2148
17229TIP3   OH273177   1.521   6.803  13.739  0.1848 -0.0872  0.3319
17229TIP3    H173178   1.591   6.739  13.727 -0.4718 -0.6013 -0.9953
17229TIP3    H273179   1.553   6.882  13.696 -1.1940 -1.2237 -3.1497
17230TIP3   OH273180   5.111   2.404   0.403 -0.2771  0.3327  0.4781
17230TIP3    H173181   5.205   2.399   0.385 -0.0671 -1.4382  1.8313
17230TIP3    H273182   5.070   2.380   0.320  0.4735  0.1886  0.1380
17231TIP3   OH273183   4.784   5.524   3.873  0.3284  0.1493 -0.2272
17231TIP3    H173184   4.766   5.431   3.890  0.0640  0.4888  1.6044
17231TIP3    H273185   4.714   5.552   3.815 -1.6547 -0.0029  1.9572
17232TIP3   OH273186   5.063   4.927   2.825  1.0939 -0.0087  0.5011
17232TIP3    H173187   5.029   4.849   2.869  0.3393  1.2864  2.3111
17232TIP3    H273188   5.142   4.949   2.874  1.0158  0.6652  0.3259
17233TIP3   OH273189   3.169   2.579   2.800 -0.2107  0.8587  0.3011
17233TIP3    H173190   3.233   2.646   2.776  0.1269  0.1559 -0.9061
17233TIP3    H273191   3.124   2.558   2.717 -0.0695 -0.6128  0.5602
17234TIP3   OH273192   5.342   6.111  15.843 -0.1654 -0.3042  0.1607
17234TIP3    H173193   5.325   6.048  15.773 -2.6171 -0.2213  0.5705
17234TIP3    H273194   5.404   6.174  15.806 -1.8118  0.0522 -2.1760
17235TIP3   OH273195   5.080   1.734   2.726  0.2771 -0.6093  0.2997
17235TIP3    H173196   5.147   1.790   2.687 -0.6851  0.6906  0.4591
17235TIP3    H273197   5.064   1.666   2.661 -1.9817  2.0293 -2.1318
17236TIP3   OH273198   2.673   2.816   5.061 -0.2870  0.3247 -0.2258
17236TIP3    H173199   2.581   2.803   5.039  0.0962 -1.5978 -0.8563
17236TIP3    H273200   2.689   2.754   5.132  0.4790  0.7993  0.0270
17237TIP3   OH273201   2.646   6.665  12.119 -0.0962  0.0955 -0.2855
17237TIP3    H173202   2.680   6.753  12.109  0.9440 -0.3670 -0.9387
17237TIP3    H273203   2.668   6.621  12.037 -2.8177 -0.0623 -1.0262
17238TIP3   OH273204   6.483   6.192   1.354 -0.3332  0.5879  0.1826
17238TIP3    H173205   6.393   6.170   1.379 -0.3226 -0.2041 -0.4359
17238TIP3    H273206   6.537   6.126   1.398 -0.2248 -0.1330 -0.9862
17239TIP3   OH273207   2.075   3.163  15.515  0.3755 -0.1584  0.0421
17239TIP3    H173208   1.984   3.190  15.523 -0.2269 -2.5024  3.4636
17239TIP3    H273209   2.072   3.081  15.466  0.5415 -0.5299  0.6402
17240TIP3   OH273210   1.342   1.473  14.427  0.2483 -0.4881  0.6286
17240TIP3    H173211   1.279   1.406  14.400 -0.9473  0.8748 -0.0487
17240TIP3    H273212   1.420   1.454  14.375 -0.3901 -0.7938 -0.2353
17241TIP3   OH273213   0.029   4.255   0.791 -0.6562 -0.4432  0.4188
17241TIP3    H173214  -0.044   4.300   0.750 -1.5270 -1.2376  1.0351
17241TIP3    H273215   0.047   4.306   0.870  0.2371  0.4100 -0.3195
17242TIP3   OH273216   2.841   4.450  15.395 -0.2003  0.2797 -0.3208
17242TIP3    H173217   2.811   4.365  15.362 -1.6824  0.4580  0.4705
17242TIP3    H273218   2.922   4.467  15.347  0.4872 -1.8675 -0.0375
17243TIP3   OH273219   3.209   3.526  13.207  0.2288  0.2889 -0.3818
17243TIP3    H173220   3.184   3.573  13.287 -2.1044 -1.7092  0.1885
17243TIP3    H273221   3.272   3.461  13.237  0.5049  0.5071 -0.4775
17244TIP3   OH273222   5.766   4.735   4.660 -0.1574 -0.3556 -0.4466
17244TIP3    H173223   5.806   4.821   4.648 -0.2937 -0.5123 -2.2190
17244TIP3    H273224   5.677   4.754   4.690  0.3562  0.0473  0.9160
17245TIP3   OH273225   0.577   2.431   3.979  0.1551 -0.3576 -0.1143
17245TIP3    H173226   0.661   2.386   3.963  0.0137 -1.5761  2.1689
17245TIP3    H273227   0.545   2.452   3.892  0.8211 -3.6960 -1.3163
17246TIP3   OH273228   4.323   4.880  13.762 -0.0821  0.1324  0.1075
17246TIP3    H173229   4.295   4.950  13.703 -1.6901 -0.2340  0.3775
17246TIP3    H273230   4.307   4.799  13.712  2.7872 -0.0653 -0.6292
17247TIP3   OH273231   5.640   6.764  16.300  0.3318 -0.1617 -0.4331
17247TIP3    H173232   5.618   6.732  16.213  0.1122 -0.9632 -0.0883
17247TIP3    H273233   5.589   6.845  16.309 -1.4177 -1.2469 -0.1844
17248TIP3   OH273234   1.683   5.446  16.508  0.0031 -0.0167 -0.0861
17248TIP3    H173235   1.593   5.468  16.530 -0.3986 -2.2293  0.6436
17248TIP3    H273236   1.732   5.463  16.589 -0.0838 -0.5841  0.0857
17249TIP3   OH273237   3.926   2.398  13.580 -0.5877  0.3395 -0.1099
17249TIP3    H173238   3.940   2.471  13.519 -0.4129  0.6638  0.3113
17249TIP3    H273239   3.945   2.435  13.666 -1.9089  0.1924  0.2697
17250TIP3   OH273240   3.668   1.837   5.000  0.5012 -0.3204 -0.1810
17250TIP3    H173241   3.754   1.875   4.978 -0.5951  1.9540 -0.8566
17250TIP3    H273242   3.628   1.901   5.059 -1.8535  0.1813 -2.1453
17251TIP3   OH273243   6.380   2.397   0.629 -0.9552  0.4381 -0.2927
17251TIP3    H173244   6.472   2.379   0.613 -1.3738 -1.2043 -1.0583
17251TIP3    H273245   6.347   2.432   0.546 -1.0887  0.7708 -0.1032
17252TIP3   OH273246   3.013   0.857  12.727  0.4165 -0.0800 -0.4095
17252TIP3    H173247   2.945   0.919  12.701  0.7080  0.5666  0.3026
17252TIP3    H273248   3.087   0.913  12.754 -0.0378 -0.6216  2.2971
17253TIP3   OH273249   6.650   6.800  12.140  0.0059 -0.2822  0.3876
17253TIP3    H173250   6.661   6.895  12.142  0.4102 -0.3012 -0.4440
17253TIP3    H273251   6.556   6.786  12.150 -0.3688  0.3293 -1.7121
17254TIP3   OH273252   5.191   3.113  15.328 -0.3550  0.3723  0.4745
17254TIP3    H173253   5.272   3.069  15.355  0.3960  1.1151 -0.4738
17254TIP3    H273254   5.124   3.045  15.334  0.3178 -0.2380  1.3608
17255TIP3   OH273255   5.631   4.160   1.465 -0.4608  0.2010 -0.7305
17255TIP3    H173256   5.608   4.196   1.379 -0.7783 -0.1072 -0.7782
17255TIP3    H273257   5.609   4.230   1.526 -1.0898  0.0860 -0.8207
17256TIP3   OH273258   5.904   4.787  14.868  0.2155  0.2067  0.4543
17256TIP3    H173259   5.918   4.695  14.891 -0.7812  0.5252  2.5175
17256TIP3    H273260   5.907   4.834  14.952  1.3230  2.1627 -0.5991
17257TIP3   OH273261   5.195   0.013  12.235 -0.4111 -0.4025 -0.1262
17257TIP3    H173262   5.112  -0.016  12.275 -0.3632 -0.3263  0.0307
17257TIP3    H273263   5.254   0.025  12.309 -0.0250 -1.2042 -0.3018
17258TIP3   OH273264   1.484   1.417  12.567 -0.3752 -0.1561  1.0069
17258TIP3    H173265   1.506   1.383  12.480 -0.9340  0.4092  0.6272
17258TIP3    H273266   1.542   1.371  12.627  1.4469  0.8902  0.1236
17259TIP3   OH273267   5.574   3.529  14.481 -0.5997  0.3682 -0.1750
17259TIP3    H173268   5.635   3.526  14.408  0.4425 -1.1805  0.7085
17259TIP3    H273269   5.552   3.621  14.490 -0.1256  0.6835 -1.9152
17260TIP3   OH273270   3.873   5.913  12.334  0.6069  0.2559 -0.3709
17260TIP3    H173271   3.827   5.964  12.267 -0.5235 -0.9815 -0.5937
17260TIP3    H273272   3.819   5.923  12.412  2.2372  2.1778  0.5798
17261TIP3   OH273273   2.079   6.683   1.754  0.3884 -0.2806 -0.1001
17261TIP3    H173274   2.101   6.612   1.693 -0.2094  2.0364 -3.2531
17261TIP3    H273275   2.006   6.648   1.806 -1.1028 -1.4440 -2.7848
17262TIP3   OH273276   3.786   4.017   1.857  0.0152  0.2728  0.2017
17262TIP3    H173277   3.775   3.938   1.909 -0.9659  0.2252 -0.0479
17262TIP3    H273278   3.791   4.088   1.922 -0.1925  0.1108  0.3997
17263TIP3   OH273279   0.276   4.339   0.534  0.5269 -0.1845 -0.3355
17263TIP3    H173280   0.346   4.338   0.470 -0.2602  2.5675 -1.3956
17263TIP3    H273281   0.196   4.332   0.482 -0.1167  1.7671  0.3182
17264TIP3   OH273282   4.689   2.705   0.851 -0.3622  1.1414  0.1619
17264TIP3    H173283   4.669   2.718   0.943 -1.6982  0.9036 -0.0814
17264TIP3    H273284   4.689   2.793   0.814 -1.1750  1.1291  0.1274
17265TIP3   OH273285   5.256   4.326   4.938  0.2369 -0.3772 -0.0710
17265TIP3    H173286   5.224   4.355   4.852  1.6460 -0.5890 -0.6921
17265TIP3    H273287   5.232   4.233   4.941  0.6264 -0.4972 -0.4649
17266TIP3   OH273288   0.269   0.528  12.947  0.5653  0.1504  0.0973
17266TIP3    H173289   0.287   0.435  12.931 -0.3237 -0.2257  1.2230
17266TIP3    H273290   0.331   0.574  12.889  1.2854 -1.1262 -0.1898
17267TIP3   OH273291   2.386   6.818  15.294 -0.1419 -0.5404  0.1343
17267TIP3    H173292   2.349   6.812  15.382  0.5709  0.6685  0.5442
17267TIP3    H273293   2.441   6.740  15.285 -0.5930 -0.9135  0.5758
17268TIP3   OH273294   0.873   3.827   3.143 -0.1967  0.8784  0.1853
17268TIP3    H173295   0.805   3.847   3.207 -0.5294  1.0670 -0.2153
17268TIP3    H273296   0.925   3.907   3.137  0.4457  0.5225  0.9501
17269TIP3   OH273297   6.301   4.195   1.430  0.5158 -0.7528 -0.2289
17269TIP3    H173298   6.229   4.202   1.493  1.2829  0.1896  0.5819
17269TIP3    H273299   6.380   4.198   1.484  1.1898 -2.7659 -1.0030
17270TIP3   OH273300   4.707   6.231   5.878  0.2217  0.1823  0.0606
17270TIP3    H173301   4.621   6.228   5.836  1.3308 -0.9492 -2.2764
17270TIP3    H273302   4.722   6.142   5.907  1.4591 -0.1234 -1.4352
17271TIP3   OH273303   1.599   3.135   6.522  0.0159  0.1790  0.5716
17271TIP3    H173304   1.560   3.084   6.452  0.9026  0.7133 -0.3361
17271TIP3    H273305   1.530   3.195   6.551 -1.0947 -1.5865  1.7710
17272TIP3   OH273306   4.810   2.776  14.592  0.0391  0.2278  0.2379
17272TIP3    H173307   4.887   2.724  14.613  0.0894  0.1547 -0.1333
17272TIP3    H273308   4.834   2.865  14.617  0.8015  0.4725 -1.2392
17273TIP3   OH273309   2.691   2.078   2.221  0.5570 -0.3007  0.3435
17273TIP3    H173310   2.616   2.137   2.213  0.6975 -0.0060  1.1508
17273TIP3    H273311   2.660   2.007   2.276  0.9340 -0.0665  0.8604
17274TIP3   OH273312   0.519   3.705  13.062 -0.0338 -0.4688 -0.2104
17274TIP3    H173313   0.493   3.775  13.122 -2.0168  0.7363 -2.2735
17274TIP3    H273314   0.582   3.746  13.003 -1.1372 -0.3977 -1.3771
17275TIP3   OH273315   0.991   4.053  10.640 -0.4262  0.1862  0.2035
17275TIP3    H173316   0.986   4.015  10.552 -0.4834  2.5587 -0.9006
17275TIP3    H273317   1.073   4.020  10.676  0.0456 -0.1296 -1.1061
17276TIP3   OH273318   6.431   4.088   2.269 -0.1634 -0.5296  0.0987
17276TIP3    H173319   6.433   4.100   2.364  1.7420  0.3849 -0.0123
17276TIP3    H273320   6.465   4.171   2.234  1.4666 -1.7158 -1.2737
17277TIP3   OH273321   0.961   3.491  11.315  0.4756  0.0426  0.0152
17277TIP3    H173322   0.937   3.569  11.365 -0.0393 -0.8112  1.1298
17277TIP3    H273323   0.952   3.418  11.377  3.5734 -0.6422 -0.1858
17278TIP3   OH273324   3.385   6.593  13.475 -0.6155 -0.1487  0.0053
17278TIP3    H173325   3.293   6.612  13.493 -0.8322 -1.8861  0.9113
17278TIP3    H273326   3.386   6.568  13.382 -1.3352 -1.4785  0.3240
17279TIP3   OH273327   3.678   4.599  13.211 -0.0744  0.4453 -0.6400
17279TIP3    H173328   3.737   4.669  13.183 -0.1138  0.6160 -0.2971
17279TIP3    H273329   3.697   4.527  13.151 -0.4288  0.9296 -1.3493
17280TIP3   OH273330   1.429   3.246   3.042  0.2786 -0.2162  0.0997
17280TIP3    H173331   1.347   3.197   3.050  0.3714 -0.2206  1.3167
17280TIP3    H273332   1.462   3.251   3.132  1.3597  0.2227 -0.3055
17281TIP3   OH273333   0.390   2.325   5.526  0.4162 -0.0332 -0.3826
17281TIP3    H173334   0.334   2.390   5.569  2.7038  1.5496  0.4526
17281TIP3    H273335   0.333   2.281   5.464 -1.4814  2.2678 -0.4263
17282TIP3   OH273336   5.168   2.395  14.456 -0.5456 -0.0776 -0.1725
17282TIP3    H173337   5.180   2.305  14.486 -1.4482 -0.4325 -0.8136
17282TIP3    H273338   5.253   2.419  14.419  0.1646 -0.1129  1.3670
17283TIP3   OH273339   5.169   5.830   0.293  0.0077 -0.4678 -0.4070
17283TIP3    H173340   5.187   5.870   0.378 -0.8730  0.6627 -0.7301
17283TIP3    H273341   5.143   5.741   0.313  1.0465 -0.6018  0.4096
17284TIP3   OH273342   0.090   0.285   2.219 -0.1870 -0.6685  0.7169
17284TIP3    H173343   0.172   0.246   2.188 -0.3166  0.0015 -0.5741
17284TIP3    H273344   0.117   0.364   2.266 -0.0802  0.1462 -0.6251
17285TIP3   OH273345   3.683   6.242   6.377 -0.5206 -0.2735 -0.0735
17285TIP3    H173346   3.612   6.236   6.312 -0.6578  3.4437 -0.4658
17285TIP3    H273347   3.762   6.255   6.324 -0.1595 -0.2806  0.4602
17286TIP3   OH273348   0.756   3.206   1.083 -0.0264 -0.6335 -0.4067
17286TIP3    H173349   0.837   3.219   1.132  0.6396 -0.6253 -1.4723
17286TIP3    H273350   0.695   3.271   1.120  0.7188 -0.0485 -0.1789
17287TIP3   OH273351   6.574   0.894   1.400 -0.1440 -0.4362 -0.0638
17287TIP3    H173352   6.596   0.954   1.471  0.8080  0.4212 -1.0464
17287TIP3    H273353   6.527   0.948   1.336 -1.1451 -1.2330 -0.0264
17288TIP3   OH273354   4.005   3.459  12.233 -0.1227 -0.3017  0.4658
17288TIP3    H173355   3.910   3.468  12.220 -0.4354 -0.8529  2.1930
17288TIP3    H273356   4.043   3.511  12.162 -1.6689 -1.8406 -1.6248
17289TIP3   OH273357   4.737   2.130   2.269  0.6647  0.0887 -0.5268
17289TIP3    H173358   4.806   2.178   2.222  0.0027  1.1151 -0.4927
17289TIP3    H273359   4.692   2.081   2.200 -1.0285  2.4727 -1.2574
17290TIP3   OH273360   5.210   2.024  11.946  0.0876 -0.4801 -0.2912
17290TIP3    H173361   5.283   2.018  12.008 -0.5802 -1.6149  0.4103
17290TIP3    H273362   5.137   2.055  11.999 -0.3338 -0.8352 -0.6666
17291TIP3   OH273363   3.446   5.097  13.148  1.1691  0.5611 -0.3408
17291TIP3    H173364   3.502   5.165  13.186  1.3416 -0.1645  0.7512
17291TIP3    H273365   3.363   5.105  13.197  0.5745  1.1032 -1.3945
17292TIP3   OH273366   1.771   5.579   2.332  0.2512 -0.6510  0.2874
17292TIP3    H173367   1.676   5.571   2.322  0.0969  1.7087 -0.9555
17292TIP3    H273368   1.785   5.671   2.354  2.3368 -0.5482 -1.1949
17293TIP3   OH273369   2.542   3.006  15.613  0.2436  0.3300 -0.2536
17293TIP3    H173370   2.482   3.074  15.581  0.4625  1.0864  0.8685
17293TIP3    H273371   2.484   2.937  15.645 -0.0115  0.5851 -0.1531
17294TIP3   OH273372   1.893   3.287   3.911  0.3807 -0.0795 -0.4639
17294TIP3    H173373   1.872   3.202   3.872 -1.5573 -0.3854  1.0752
17294TIP3    H273374   1.840   3.349   3.862  0.0653 -0.0862 -0.1366
17295TIP3   OH273375   1.819   5.626   6.066 -0.0348  0.2094 -0.5492
17295TIP3    H173376   1.859   5.617   6.152 -1.4019 -0.6243  0.0285
17295TIP3    H273377   1.774   5.543   6.051 -0.9853  0.8613 -1.4533
17296TIP3   OH273378   2.035   3.783   5.182 -0.1366  0.6826  0.4415
17296TIP3    H173379   1.980   3.771   5.259 -1.4635  2.7111 -0.1082
17296TIP3    H273380   1.988   3.736   5.112  1.0205 -1.0828  0.7948
17297TIP3   OH273381   2.130   4.614   1.442  0.8023  0.1643 -0.3876
17297TIP3    H173382   2.085   4.614   1.357  0.1903  0.7843 -0.0742
17297TIP3    H273383   2.157   4.523   1.455 -2.7042 -0.8840  0.6143
17298TIP3   OH273384   4.111   0.077  14.873 -0.2367 -0.1268  0.4944
17298TIP3    H173385   4.047   0.145  14.893 -0.1533  0.1725 -0.2325
17298TIP3    H273386   4.061  -0.004  14.877 -0.4904  0.0351  0.6819
17299TIP3   OH273387   4.005   3.802  13.306 -0.2018  0.0039  0.3031
17299TIP3    H173388   3.951   3.803  13.227  0.7305  0.5528 -0.3443
17299TIP3    H273389   4.094   3.785  13.275  0.3997  1.5601  1.0702
17300TIP3   OH273390   5.415   0.184  11.319 -0.4458  0.0779  0.5227
17300TIP3    H173391   5.389   0.093  11.331  1.3457 -0.6322 -0.5877
17300TIP3    H273392   5.446   0.189  11.229  0.8554  1.4297  1.0011
17301TIP3   OH273393   4.983   6.480  16.205  0.1809  0.4201 -0.3887
17301TIP3    H173394   4.942   6.532  16.136 -0.1873 -0.3706 -0.7785
17301TIP3    H273395   5.028   6.410  16.158  0.3985  0.2016  0.1441
17302TIP3   OH273396   4.426   1.828   5.975 -0.3714 -0.1077 -0.1523
17302TIP3    H173397   4.426   1.744   5.930  0.1944  0.0075 -0.3752
17302TIP3    H273398   4.485   1.816   6.049  0.2630  0.3025 -0.5892
17303TIP3   OH273399   1.947   2.835   0.658  1.1198  0.2464 -0.6208
17303TIP3    H173400   1.991   2.829   0.573 -0.5268  0.4400 -1.5215
17303TIP3    H273401   1.858   2.804   0.641  1.1955 -1.2151  1.3959
17304TIP3   OH273402   6.131   2.561  14.521  0.7549 -0.1975 -0.2141
17304TIP3    H173403   6.191   2.490  14.541  0.5054 -0.8264 -1.5822
17304TIP3    H273404   6.187   2.638  14.509  1.0182 -0.1217  1.3299
17305TIP3   OH273405   4.289   5.530   4.757  0.0446  0.3120 -0.6860
17305TIP3    H173406   4.237   5.594   4.708 -0.0667 -0.3115 -1.3989
17305TIP3    H273407   4.378   5.564   4.755  0.2174 -0.1377 -2.1232
17306TIP3   OH273408   5.429   2.254  12.948  0.0305 -0.4359 -0.1141
17306TIP3    H173409   5.346   2.281  12.987  1.4267  0.1284  2.7229
17306TIP3    H273410   5.465   2.335  12.912  0.6701 -0.0008  1.4056
17307TIP3   OH273411   1.212   6.755  12.943 -0.4112  0.3347  0.1186
17307TIP3    H173412   1.255   6.813  13.006  0.7522  0.9921 -1.2335
17307TIP3    H273413   1.283   6.705  12.904 -1.0301  0.4361 -1.1644
17308TIP3   OH273414   1.012   2.127  10.821  0.0714 -0.5376  0.1071
17308TIP3    H173415   0.936   2.069  10.827 -0.4280 -0.1431 -1.6846
17308TIP3    H273416   1.066   2.089  10.751 -0.4973  1.3259 -1.4463
17309TIP3   OH273417   6.552   1.684  16.748 -0.0132  0.7328 -0.1472
17309TIP3    H173418   6.608   1.618  16.790 -0.1512  0.8457  0.2153
17309TIP3    H273419   6.568   1.764  16.798 -0.8667  0.6523  0.2766
17310TIP3   OH273420   6.582   1.689   1.977 -0.4588 -0.0574 -0.0005
17310TIP3    H173421   6.538   1.693   1.893 -0.4983  0.2065  0.0307
17310TIP3    H273422   6.612   1.598   1.985 -0.2503 -0.0268 -0.4018
17311TIP3   OH273423   0.279   4.328   4.657 -0.4557  0.2346  0.2049
17311TIP3    H173424   0.239   4.308   4.742 -0.4842  0.2286  0.1898
17311TIP3    H273425   0.368   4.294   4.664 -1.2947 -2.3800 -0.7815
17312TIP3   OH273426   2.023   0.832  15.906 -0.1131 -0.3853 -0.5690
17312TIP3    H173427   2.016   0.921  15.940 -0.0096 -0.5302 -0.1615
17312TIP3    H273428   2.101   0.833  15.851  0.4491 -0.4601  0.1985
17313TIP3   OH273429   0.898   0.479  17.042  0.0843 -0.1056 -0.1114
17313TIP3    H173430   0.858   0.533  17.111 -2.7869 -1.0830 -0.8471
17313TIP3    H273431   0.880   0.527  16.962 -0.6887 -1.1081 -0.5664
17314TIP3   OH273432   4.503   4.337   0.950  0.0895 -0.5532 -0.2560
17314TIP3    H173433   4.515   4.330   0.855  2.8105 -2.0928  0.0905
17314TIP3    H273434   4.484   4.247   0.978 -1.8220  0.0737  0.5942
17315TIP3   OH273435   0.387   3.838   3.872 -0.7440 -0.2480 -0.1423
17315TIP3    H173436   0.319   3.803   3.813 -0.1029 -0.3867 -0.8144
17315TIP3    H273437   0.345   3.913   3.914 -0.8019  0.6948 -1.7846
17316TIP3   OH273438   0.129   6.648  17.264  0.8329  0.2359  0.4845
17316TIP3    H173439   0.216   6.641  17.304  0.2627  1.4698  2.0398
17316TIP3    H273440   0.083   6.570  17.294  2.0520 -1.6961 -2.2646
17317TIP3   OH273441   3.982   0.163  13.415  0.3625  0.6746  0.6731
17317TIP3    H173442   3.914   0.188  13.478  0.8025  0.5408  1.2108
17317TIP3    H273443   3.933   0.135  13.338 -0.1804  2.5913  0.2447
17318TIP3   OH273444   0.410   4.185  16.547  0.1589 -0.0810 -0.7328
17318TIP3    H173445   0.367   4.114  16.594  0.2503 -1.4732 -2.5967
17318TIP3    H273446   0.364   4.264  16.574  0.0637 -0.8112  1.4248
17319TIP3   OH273447   0.583   0.738  12.536 -0.3713 -0.1668 -0.3803
17319TIP3    H173448   0.564   0.699  12.621 -0.7959  1.4113  0.2979
17319TIP3    H273449   0.501   0.731  12.487 -0.2394 -0.7409 -0.5164
17320TIP3   OH273450   4.974   6.571  13.356  0.3272  0.6680  0.2903
17320TIP3    H173451   5.047   6.515  13.329  1.3423  0.6991  2.6796
17320TIP3    H273452   5.015   6.652  13.386 -0.3252 -0.1284  3.8151
17321TIP3   OH273453   0.653   5.331  16.121 -0.2026 -0.0406  0.0175
17321TIP3    H173454   0.633   5.244  16.084 -0.7829  0.2798 -0.4442
17321TIP3    H273455   0.748   5.331  16.132  0.0625  0.0124 -1.9353
17322TIP3   OH273456   5.355   5.064   2.661 -0.3801  0.3820  0.6034
17322TIP3    H173457   5.306   5.071   2.743  0.9216 -1.3502  1.5949
17322TIP3    H273458   5.437   5.110   2.677  0.0223 -0.2470  0.4113
17323TIP3   OH273459   2.594   2.526  14.409  0.1097  0.2240  0.1092
17323TIP3    H173460   2.639   2.490  14.332 -0.3603 -0.1304 -0.0036
17323TIP3    H273461   2.633   2.481  14.483 -1.5733 -1.7677 -0.1207
17324TIP3   OH273462   2.010   2.103   0.349  0.2468 -0.4933  0.0389
17324TIP3    H173463   1.967   2.072   0.429 -0.6037 -2.0599 -0.9727
17324TIP3    H273464   2.060   2.028   0.318  0.1182 -0.0933 -1.1898
17325TIP3   OH273465   2.862   6.212   5.198 -0.3916  0.2894 -0.1067
17325TIP3    H173466   2.832   6.134   5.151 -1.2781 -0.4618  1.5839
17325TIP3    H273467   2.930   6.179   5.257  0.6940  1.1963 -0.8379
17326TIP3   OH273468   5.908   6.379  13.974 -0.3279  0.0990  0.1243
17326TIP3    H173469   5.913   6.429  14.056 -0.6404  1.4306 -0.6328
17326TIP3    H273470   5.903   6.446  13.906 -0.9784 -0.9849 -0.9280
17327TIP3   OH273471   2.617   3.058  17.014 -0.1505  1.1436  0.4459
17327TIP3    H173472   2.595   3.126  16.951 -0.5836  0.1051 -0.5405
17327TIP3    H273473   2.709   3.074  17.034 -0.4394  2.5049  0.8648
17328TIP3   OH273474   3.773   1.296  14.303 -0.1179  0.4039  0.5669
17328TIP3    H173475   3.699   1.323  14.248  0.4538  1.3252  0.2114
17328TIP3    H273476   3.842   1.273  14.240 -0.3003 -1.0873  0.8879
17329TIP3   OH273477   6.596   3.735  14.255 -0.2038 -0.1658 -0.0907
17329TIP3    H173478   6.592   3.824  14.289  1.0518  0.1405 -0.6631
17329TIP3    H273479   6.658   3.740  14.182 -1.1793 -1.2277 -1.0437
17330TIP3   OH273480   2.954   1.451   1.028 -0.1975  0.1038 -0.0011
17330TIP3    H173481   2.947   1.387   1.099 -1.5317  1.4379  1.1520
17330TIP3    H273482   2.868   1.492   1.025  0.4076  1.3508 -1.1705
17331TIP3   OH273483   3.724   1.081  12.021  0.6227 -0.1041 -0.1084
17331TIP3    H173484   3.715   1.088  12.116 -1.2959  0.3305 -0.2883
17331TIP3    H273485   3.666   1.008  11.996 -2.7966  2.7423 -1.3689
17332TIP3   OH273486   3.901   5.963  17.087 -0.3433  0.0737  0.0067
17332TIP3    H173487   3.835   5.894  17.091  0.1078 -0.3704 -0.1931
17332TIP3    H273488   3.922   5.982  17.178 -1.9273  1.3646  0.1364
17333TIP3   OH273489   6.140   2.799  15.536  0.4237 -0.0063  0.0611
17333TIP3    H173490   6.160   2.886  15.501 -0.7213 -0.3330 -1.5135
17333TIP3    H273491   6.212   2.743  15.505  0.1010 -0.0242 -0.6626
17334TIP3   OH273492   1.768   3.878  13.923 -0.3233 -0.3644 -0.1604
17334TIP3    H173493   1.782   3.886  13.829  1.7885 -2.6426 -0.1214
17334TIP3    H273494   1.844   3.922  13.963  0.2450 -1.7948  0.3883
17335TIP3   OH273495   0.272   4.339  10.841 -0.1525 -0.0538 -0.5653
17335TIP3    H173496   0.349   4.396  10.842  1.0072 -1.5693  0.2747
17335TIP3    H273497   0.290   4.275  10.772  0.0076 -1.2432  0.5442
17336TIP3   OH273498   5.845   0.368  15.595 -0.3512  0.3653  0.1797
17336TIP3    H173499   5.774   0.323  15.640  0.3094 -0.5638  0.3356
17336TIP3    H273500   5.905   0.298  15.569  0.9297  1.1798  0.8024
17337TIP3   OH273501   4.851   0.459  16.973 -0.0720 -0.6601 -0.0781
17337TIP3    H173502   4.853   0.436  16.880  0.2648 -1.3569  0.0899
17337TIP3    H273503   4.767   0.502  16.986 -1.0584 -2.4387 -0.2953
17338TIP3   OH273504   6.595   6.721   6.729 -0.0856 -0.1515 -0.3512
17338TIP3    H173505   6.574   6.780   6.657  2.9716  1.2188 -0.2636
17338TIP3    H273506   6.690   6.715   6.728 -0.1447 -3.2073  1.1906
17339TIP3   OH273507   2.071   4.879  14.685 -0.0322  0.1058  0.9315
17339TIP3    H173508   2.085   4.860  14.778  0.5041  0.4653  0.9305
17339TIP3    H273509   2.100   4.970  14.674  1.0841 -0.3110  0.1816
17340TIP3   OH273510   0.377   3.741  17.205 -0.2648 -0.5585 -0.5811
17340TIP3    H173511   0.303   3.800  17.190  0.8488  1.2938  0.7460
17340TIP3    H273512   0.338   3.665  17.248 -1.6183 -0.3893 -1.4585
17341TIP3   OH273513   4.640   4.534  14.971  0.6384 -0.0460  0.4249
17341TIP3    H173514   4.675   4.609  15.019 -0.4032  1.0135 -0.4028
17341TIP3    H273515   4.638   4.563  14.880 -0.1554 -0.9343  0.1466
17342TIP3   OH273516   1.969   1.548  14.330  0.1319 -0.0762  0.0558
17342TIP3    H173517   1.959   1.453  14.342  1.7410 -0.6152 -2.0638
17342TIP3    H273518   2.018   1.577  14.407  2.2991 -1.6096 -0.6188
17343TIP3   OH273519   5.515   3.094  14.907  0.4311  0.6534 -0.0796
17343TIP3    H173520   5.559   3.173  14.939 -0.6705  1.2789 -0.0708
17343TIP3    H273521   5.435   3.088  14.958 -0.4159  0.5896 -1.3845
17344TIP3   OH273522   3.073   3.809  15.958  0.3296  0.7267 -0.0052
17344TIP3    H173523   3.126   3.779  15.885 -0.1336 -0.1406 -0.0080
17344TIP3    H273524   3.105   3.897  15.978 -0.2202  1.3957 -1.9111
17345TIP3   OH273525   1.578   3.033   4.819  0.0451  0.1147  0.5219
17345TIP3    H173526   1.653   3.067   4.867  0.0127  2.2677 -0.8068
17345TIP3    H273527   1.549   3.106   4.765 -1.0279 -1.6325 -1.4147
17346TIP3   OH273528   5.300   3.933  15.662  0.0741  0.3269  0.9598
17346TIP3    H173529   5.210   3.945  15.631  0.4753  1.7790  0.2909
17346TIP3    H273530   5.354   3.944  15.584  0.9954  2.2027  1.7986
17347TIP3   OH273531   5.822   0.713  11.714  0.0370 -0.8025  0.3748
17347TIP3    H173532   5.773   0.654  11.772 -1.5964 -1.6000 -1.6960
17347TIP3    H273533   5.793   0.690  11.626  0.1250  2.3953 -0.6233
17348TIP3   OH273534   1.295   1.343  11.528 -0.2180  0.7177 -0.5022
17348TIP3    H173535   1.238   1.386  11.591 -1.0505 -1.2337  0.1532
17348TIP3    H273536   1.236   1.293  11.472  0.7385 -0.0944 -0.8127
17349TIP3   OH273537   2.730   1.789   4.990  0.3886 -0.1627  0.2596
17349TIP3    H173538   2.700   1.874   5.021 -0.9069 -0.9031  1.1398
17349TIP3    H273539   2.661   1.759   4.931  0.4136 -0.9524  0.6138
17350TIP3   OH273540   4.771   4.532  12.890  0.1996 -0.9174 -0.3840
17350TIP3    H173541   4.683   4.568  12.875  0.9063  1.0116 -0.1929
17350TIP3    H273542   4.771   4.505  12.982  0.1004  0.0132 -0.1015
17351TIP3   OH273543   4.698   0.428   3.098 -0.1408  0.4573  0.2271
17351TIP3    H173544   4.662   0.403   3.184 -0.5915 -0.6910 -0.2796
17351TIP3    H273545   4.641   0.385   3.035 -0.3231  1.9888 -0.6884
17352TIP3   OH273546   4.126   5.821  16.284 -0.6794 -0.4752  0.2527
17352TIP3    H173547   4.051   5.762  16.283  0.0780 -1.4607 -0.6903
17352TIP3    H273548   4.199   5.766  16.313  0.0214  0.0184 -0.5139
17353TIP3   OH273549   4.740   0.067  11.819 -0.3911 -1.2765  0.6996
17353TIP3    H173550   4.745   0.158  11.790 -0.6637 -1.2206  0.8211
17353TIP3    H273551   4.831   0.038  11.826 -0.3150 -1.2438 -0.0703
17354TIP3   OH273552   2.256   2.079  14.996  0.0186  0.4541 -0.3559
17354TIP3    H173553   2.232   2.124  14.915 -1.7234  1.0013  0.4004
17354TIP3    H273554   2.322   2.015  14.970 -0.9130  0.2135 -2.3204
17355TIP3   OH273555   2.545   5.876  13.336 -0.6827 -0.0381  0.1712
17355TIP3    H173556   2.516   5.793  13.300 -0.6446  0.3067 -0.6997
17355TIP3    H273557   2.467   5.915  13.375 -1.2429  0.5070 -1.4085
17356TIP3   OH273558   3.986   6.293   2.974 -0.1390  0.1406 -0.1575
17356TIP3    H173559   4.000   6.388   2.975 -0.0566  0.1272  0.1571
17356TIP3    H273560   3.986   6.270   2.882  0.9820  0.2787 -0.2036
17357TIP3   OH273561   3.540   2.911  15.364 -0.3712 -0.2450 -0.2601
17357TIP3    H173562   3.554   2.885  15.455 -0.5941 -0.1605 -0.2021
17357TIP3    H273563   3.450   2.885  15.344 -0.7883  0.9499 -0.0329
17358TIP3   OH273564   5.977   3.910  11.570 -0.1221 -0.2040  1.0772
17358TIP3    H173565   5.895   3.931  11.524  0.8933  1.8351  0.0376
17358TIP3    H273566   5.949   3.861  11.647 -1.9670 -3.4790 -1.3894
17359TIP3   OH273567   4.903   4.522   4.168 -0.1412 -0.0121  0.3189
17359TIP3    H173568   4.834   4.462   4.197 -0.9397  1.8271  2.5255
17359TIP3    H273569   4.983   4.490   4.211 -0.1658 -0.6023 -0.0747
17360TIP3   OH273570   3.092   4.633   5.266  0.3470  0.2129 -0.6042
17360TIP3    H173571   3.123   4.574   5.197  2.0696  2.0759 -1.5621
17360TIP3    H273572   3.170   4.652   5.318 -0.5711  0.1965  0.8416
17361TIP3   OH273573   5.188   5.161  12.592 -0.2921 -0.0442  0.1623
17361TIP3    H173574   5.137   5.088  12.557  0.6137 -0.9376  0.6295
17361TIP3    H273575   5.123   5.219  12.632 -0.9631 -1.0680  0.6069
17362TIP3   OH273576   5.408   5.228   5.029 -0.3361  0.0249  0.5998
17362TIP3    H173577   5.330   5.279   5.005 -1.1074 -1.2504  0.2915
17362TIP3    H273578   5.475   5.257   4.968 -1.4270 -0.9831 -1.1686
17363TIP3   OH273579   6.288   3.786   3.677  0.1408  0.0605  0.4171
17363TIP3    H173580   6.218   3.849   3.692 -0.2909 -0.8423  2.4011
17363TIP3    H273581   6.365   3.840   3.659 -0.7595  1.0829 -0.4974
17364TIP3   OH273582   1.783   4.940   4.429 -0.0293  0.0027  0.4242
17364TIP3    H173583   1.741   4.996   4.364  1.1620  1.6280  0.9728
17364TIP3    H273584   1.855   4.898   4.381 -0.3699 -0.3583  0.2262
17365TIP3   OH273585   4.270   1.399  10.753  0.3159 -0.1748 -0.0920
17365TIP3    H173586   4.339   1.343  10.786 -1.3131 -2.5048 -0.4114
17365TIP3    H273587   4.277   1.479  10.805  2.9031 -0.4930  0.1866
17366TIP3   OH273588   1.829   0.703  13.234 -0.1501  0.8015 -0.0714
17366TIP3    H173589   1.904   0.659  13.274  0.3785  0.9879 -0.8289
17366TIP3    H273590   1.844   0.696  13.140 -1.7587 -0.2941 -0.2829
17367TIP3   OH273591   5.831   6.061  15.867 -0.1930  0.0658  0.4992
17367TIP3    H173592   5.777   6.099  15.937 -0.6050 -1.1293  0.8505
17367TIP3    H273593   5.767   6.025  15.805  0.1799 -0.9427  0.6842
17368TIP3   OH273594   4.726   3.705  14.743 -0.0408  0.1874  0.3787
17368TIP3    H173595   4.661   3.758  14.698  0.3372  1.4968  1.3163
17368TIP3    H273596   4.800   3.764  14.756  1.8106 -1.5139 -1.5731
17369TIP3   OH273597   1.536   1.881  13.360 -0.3762  0.5260  0.3661
17369TIP3    H173598   1.536   1.821  13.285 -1.1905  1.1981 -0.2008
17369TIP3    H273599   1.627   1.883  13.389 -0.2093 -0.4163 -0.0660
17370TIP3   OH273600   6.522   2.902   3.312  0.0519  0.4654 -0.0815
17370TIP3    H173601   6.551   2.813   3.332  0.7752  0.0982 -2.4297
17370TIP3    H273602   6.450   2.890   3.250  0.3022  1.4928 -0.5865
17371TIP3   OH273603   0.444   3.833  16.078  0.2716  0.0770 -0.0201
17371TIP3    H173604   0.500   3.810  16.153 -0.3294 -0.4412  0.2758
17371TIP3    H273605   0.495   3.898  16.030 -0.2776  2.2453  2.1047
17372TIP3   OH273606   0.615   1.629   4.467 -0.7995 -0.5674 -0.0751
17372TIP3    H173607   0.634   1.637   4.560  0.7441 -1.5041 -0.2584
17372TIP3    H273608   0.577   1.713   4.442 -0.5557 -0.0411  1.2501
17373TIP3   OH273609   0.375   1.974  13.665 -0.1427  0.1728 -0.2598
17373TIP3    H173610   0.311   1.906  13.645 -1.0054  1.3054 -1.4997
17373TIP3    H273611   0.440   1.930  13.719 -1.5249 -1.2194  0.3482
17374TIP3   OH273612   0.346   3.904   4.835  0.1588  0.0875 -0.6473
17374TIP3    H173613   0.421   3.944   4.792  0.6068 -1.0027 -0.9326
17374TIP3    H273614   0.336   3.819   4.792 -0.6485 -0.1796  0.0293
17375TIP3   OH273615   0.677   0.033  14.154  0.4964 -0.2630  0.7157
17375TIP3    H173616   0.626   0.027  14.073  0.3998 -0.8078  0.8079
17375TIP3    H273617   0.635   0.102  14.205  0.8923  0.4666  0.0695
17376TIP3   OH273618   3.642   1.652   0.995 -0.0883 -0.2981 -0.3105
17376TIP3    H173619   3.608   1.567   0.965 -0.6302 -0.1889 -0.0119
17376TIP3    H273620   3.719   1.629   1.047  0.4315 -0.5348 -1.1464
17377TIP3   OH273621   5.852   4.197   4.014 -0.0390  0.2357  0.1507
17377TIP3    H173622   5.896   4.200   3.929 -0.6303  0.3394 -0.1512
17377TIP3    H273623   5.900   4.261   4.067  1.3662 -0.9764  0.4169
17378TIP3   OH273624   4.267   6.274   0.461  0.0155  0.2870  0.3139
17378TIP3    H173625   4.204   6.346   0.460  1.0236  1.2533  2.0056
17378TIP3    H273626   4.234   6.214   0.528  0.6898  0.6407  0.9781
17379TIP3   OH273627   3.222   1.482  14.609  0.6703 -0.5998 -0.7035
17379TIP3    H173628   3.237   1.511  14.699  0.2701 -3.2737  0.3260
17379TIP3    H273629   3.168   1.404  14.618 -1.3381  0.3436 -3.4494
17380TIP3   OH273630   6.710   0.134  17.112  0.1159 -0.1001  0.0597
17380TIP3    H173631   6.806   0.131  17.114  0.0949 -1.4862 -0.0769
17380TIP3    H273632   6.684   0.045  17.088 -1.2359 -0.0943  1.3841
17381TIP3   OH273633   0.582   5.434  11.864  0.4047  0.3953 -0.2485
17381TIP3    H173634   0.637   5.484  11.804 -0.2559  0.1088 -1.1053
17381TIP3    H273635   0.553   5.359  11.814 -0.0362  0.0633  0.4804
17382TIP3   OH273636   2.680   5.781  15.242  0.0622 -0.1089 -0.0703
17382TIP3    H173637   2.729   5.700  15.231  0.3738 -0.1630  1.5134
17382TIP3    H273638   2.681   5.798  15.336 -1.6537  0.7053 -0.1482
17383TIP3   OH273639   3.105   5.441   4.785 -0.1496  0.1839 -0.0722
17383TIP3    H173640   3.196   5.411   4.784  0.3141  1.5161  0.3714
17383TIP3    H273641   3.104   5.513   4.848 -1.9657 -1.1669  1.5375
17384TIP3   OH273642   5.856   1.287   2.023 -0.0248  0.5491 -0.1315
17384TIP3    H173643   5.864   1.379   1.998 -0.1251  0.5371 -0.2085
17384TIP3    H273644   5.945   1.252   2.013 -0.0424  0.5712 -0.3651
17385TIP3   OH273645   4.576   6.117  14.417 -0.3408  0.3151 -0.2853
17385TIP3    H173646   4.596   6.211  14.414  0.4596  0.2254  1.1680
17385TIP3    H273647   4.573   6.096  14.511  1.3346 -1.4643 -0.5586
17386TIP3   OH273648   4.215   1.482  15.371 -0.1954 -0.0741 -0.5765
17386TIP3    H173649   4.285   1.525  15.419 -0.8457 -0.5350  0.8577
17386TIP3    H273650   4.182   1.549  15.311  0.0316  0.8283  0.2866
17387TIP3   OH273651   2.602   6.466   3.663 -0.3559 -0.4319 -0.3564
17387TIP3    H173652   2.632   6.399   3.725  3.6546  1.3976  0.0106
17387TIP3    H273653   2.598   6.546   3.716 -0.8747  0.4280 -1.6600
17388TIP3   OH273654   2.074   6.137  12.287  0.2948 -0.1565 -0.4982
17388TIP3    H173655   1.990   6.121  12.243  1.2831 -2.9549 -1.6029
17388TIP3    H273656   2.078   6.232  12.297 -3.1664  0.0426 -0.0004
17389TIP3   OH273657   1.792   2.612   4.662  0.2935  0.8258  0.1946
17389TIP3    H173658   1.744   2.619   4.580 -1.0752  1.3973  1.0105
17389TIP3    H273659   1.826   2.700   4.677  0.5066  0.7318  0.2702
17390TIP3   OH273660   4.373   6.705   4.229  0.6114  0.1931  0.0077
17390TIP3    H173661   4.392   6.641   4.160 -0.2263 -2.9761  2.5125
17390TIP3    H273662   4.458   6.727   4.266  1.2531  3.0164 -2.6916
17391TIP3   OH273663   4.742   1.324  13.563  0.0996  0.1335 -0.2385
17391TIP3    H173664   4.803   1.260  13.599 -0.0486 -0.2398 -0.6419
17391TIP3    H273665   4.796   1.402  13.549 -0.2613  0.9962  2.6571
17392TIP3   OH273666   4.652   1.844  15.874  0.4678  0.1485 -0.3482
17392TIP3    H173667   4.652   1.855  15.969  1.5157 -0.4666 -0.2678
17392TIP3    H273668   4.685   1.927  15.841  4.3636 -1.0676  0.0710
17393TIP3   OH273669   2.114   0.177  15.415  0.6779 -0.1400  0.0781
17393TIP3    H173670   2.206   0.188  15.439  0.6977 -0.5009  0.1847
17393TIP3    H273671   2.078   0.124  15.486  0.3216  0.2282  0.1756
17394TIP3   OH273672   4.867   0.247   3.794 -0.2419  0.0205  0.2490
17394TIP3    H173673   4.874   0.343   3.796  1.3174 -0.0240 -0.8981
17394TIP3    H273674   4.791   0.230   3.738 -0.1480  0.6087 -0.0723
17395TIP3   OH273675   3.911   1.963   4.946  0.2272 -0.7284 -0.1135
17395TIP3    H173676   3.936   2.022   5.017 -1.7012  0.5132 -0.3878
17395TIP3    H273677   3.980   1.972   4.881  0.8050 -0.0502  0.5751
17396TIP3   OH273678   3.901   3.091   5.391 -0.4426 -0.3176  0.2083
17396TIP3    H173679   3.882   3.005   5.428 -0.5679 -0.1349  0.5764
17396TIP3    H273680   3.996   3.094   5.384 -0.5055 -1.2061 -1.5672
17397TIP3   OH273681   6.696   2.007  13.876  0.0428  0.1428 -0.2519
17397TIP3    H173682   6.670   1.918  13.850 -1.0619  0.9719 -2.1816
17397TIP3    H273683   6.778   2.023  13.829  0.9072 -0.2796  1.0770
17398TIP3   OH273684   3.418   5.240   1.638 -0.5233 -0.4448  0.0136
17398TIP3    H173685   3.435   5.278   1.724 -0.2774 -0.1705 -0.1556
17398TIP3    H273686   3.470   5.159   1.636 -0.6501 -0.5319  0.1787
17399TIP3   OH273687   2.804   3.121   5.809  0.5574  0.4447 -0.4923
17399TIP3    H173688   2.816   3.084   5.722  1.9308 -2.2300  0.7283
17399TIP3    H273689   2.765   3.207   5.793 -0.1302 -0.3246 -3.6692
17400TIP3   OH273690   3.593   2.276  14.630 -0.6518 -0.0849 -0.5216
17400TIP3    H173691   3.653   2.350  14.623 -0.2666 -0.3015  0.3034
17400TIP3    H273692   3.538   2.281  14.552 -1.2986  1.6462  0.0015
17401TIP3   OH273693   0.179   5.174   0.529  0.3274 -0.5148 -0.2595
17401TIP3    H173694   0.114   5.215   0.472  0.9244  2.7399  1.1546
17401TIP3    H273695   0.129   5.148   0.606  0.0803 -1.7610 -0.8258
17402TIP3   OH273696   1.631   3.841   4.678  0.5704  0.1956 -0.0954
17402TIP3    H173697   1.627   3.818   4.585  1.7549  1.4204 -0.4793
17402TIP3    H273698   1.723   3.862   4.694  0.5241 -0.7087  1.5506
17403TIP3   OH273699   2.303   0.681   2.053  0.5524 -0.5922 -0.0087
17403TIP3    H173700   2.330   0.742   1.984 -0.1941  0.1057  0.3003
17403TIP3    H273701   2.223   0.641   2.019 -0.2756  0.3485  0.7622
17404TIP3   OH273702   4.209   4.643   4.387  0.1159  0.6552 -0.3796
17404TIP3    H173703   4.293   4.618   4.346 -0.5815  0.7862 -1.9812
17404TIP3    H273704   4.229   4.725   4.433  0.7881  0.8996 -1.0755
17405TIP3   OH273705   4.512   3.751   1.997  0.0854 -0.1209 -0.1937
17405TIP3    H173706   4.447   3.821   2.007 -0.7141 -0.6129 -1.6981
17405TIP3    H273707   4.462   3.670   2.007  0.7632 -0.5055  0.1600
17406TIP3   OH273708   2.855   5.056   1.568  0.1938 -0.8349  0.4394
17406TIP3    H173709   2.792   4.998   1.612 -0.1169 -0.1888  0.8634
17406TIP3    H273710   2.890   5.003   1.496  0.1274 -1.6422  0.9873
17407TIP3   OH273711   6.051   2.223  10.748  0.0340 -0.3684 -0.8494
17407TIP3    H173712   6.025   2.295  10.691  0.0314 -1.0329 -1.6985
17407TIP3    H273713   6.143   2.207  10.725  0.5095  0.3656  0.4245
17408TIP3   OH273714   0.847   6.679   1.923  0.5308 -0.0433  0.3596
17408TIP3    H173715   0.875   6.607   1.867 -1.3032 -0.5621  0.0209
17408TIP3    H273716   0.805   6.741   1.864  0.6564  0.5349  0.8666
17409TIP3   OH273717   2.137   2.755   0.937  0.2978 -0.2030  0.0958
17409TIP3    H173718   2.078   2.807   0.991  0.5423 -1.4648  1.6209
17409TIP3    H273719   2.163   2.815   0.866 -2.2160  0.5956 -0.2309
17410TIP3   OH273720   3.971   0.646  12.299 -0.8094 -0.5332 -0.6126
17410TIP3    H173721   4.024   0.573  12.330 -1.0681 -0.8349 -0.8781
17410TIP3    H273722   4.029   0.696  12.242 -0.2925  0.0871  0.4143
17411TIP3   OH273723   6.205   0.260   3.372  0.3663 -0.4230  0.0059
17411TIP3    H173724   6.300   0.249   3.371  0.3803 -1.2223  2.4370
17411TIP3    H273725   6.188   0.328   3.307  2.9357  1.7971  1.4470
17412TIP3   OH273726   3.689   6.472  12.245 -0.1664  0.6889 -0.1678
17412TIP3    H173727   3.719   6.421  12.319 -1.5471  2.4988  1.7737
17412TIP3    H273728   3.593   6.464  12.248 -0.2344  0.3039 -2.1565
17413TIP3   OH273729   5.291   2.444  13.343  0.3626  0.5251 -0.4253
17413TIP3    H173730   5.236   2.403  13.277  0.9753  0.2640 -0.7905
17413TIP3    H273731   5.369   2.473  13.294  0.0191  1.9818 -0.1524
17414TIP3   OH273732   4.986   3.727   3.598  0.2533 -0.3412  0.0256
17414TIP3    H173733   5.040   3.690   3.528  0.7546 -2.3219  1.3661
17414TIP3    H273734   4.983   3.658   3.664 -2.0118  0.6176  1.0200
17415TIP3   OH273735   5.699   4.020  17.228  0.2628 -0.8937 -0.2110
17415TIP3    H173736   5.733   4.108  17.209 -0.3185 -0.5758  0.2111
17415TIP3    H273737   5.710   4.009  17.322 -0.8875 -0.7408 -0.0418
17416TIP3   OH273738   0.754   3.453  13.991  1.0031  0.1097 -0.6037
17416TIP3    H173739   0.734   3.410  14.074 -1.6857  1.8089 -0.2527
17416TIP3    H273740   0.826   3.512  14.011 -0.2139  1.1703  0.8096
17417TIP3   OH273741   6.177   2.439  14.082  0.1734 -0.3858 -0.4944
17417TIP3    H173742   6.172   2.525  14.122  0.4397 -0.0141 -1.2378
17417TIP3    H273743   6.117   2.443  14.008  0.6564 -0.6264 -0.9061
17418TIP3   OH273744   6.809   0.785   4.061  0.0421  0.2568 -0.1423
17418TIP3    H173745   6.893   0.746   4.038  0.0903 -0.0540  0.5401
17418TIP3    H273746   6.805   0.781   4.157 -1.8457 -2.0530 -0.2334
17419TIP3   OH273747   4.770   4.503   0.795  0.5276  0.6875 -0.1967
17419TIP3    H173748   4.800   4.559   0.724  0.5182 -1.2488 -1.8373
17419TIP3    H273749   4.701   4.449   0.755  0.2622 -0.1981  1.3835
17420TIP3   OH273750   5.044   1.104   3.148  0.1525 -0.0735  0.8952
17420TIP3    H173751   5.018   1.019   3.182 -3.5654  0.1853 -0.8066
17420TIP3    H273752   5.037   1.094   3.053 -0.6826  2.1888  0.6689
17421TIP3   OH273753   1.333   2.247  17.007  0.1999 -0.4105 -0.1192
17421TIP3    H173754   1.280   2.167  16.999  0.2020 -0.3137 -1.3517
17421TIP3    H273755   1.354   2.253  17.100 -1.4755 -0.7621  0.3137
17422TIP3   OH273756   3.412   1.243   0.463 -0.0145  0.1161  0.3113
17422TIP3    H173757   3.506   1.224   0.457 -0.3519 -1.9604  0.9507
17422TIP3    H273758   3.396   1.260   0.556  0.0630  2.7900 -0.0734
17423TIP3   OH273759   0.601   6.603   2.335  0.0314 -0.1677  0.3077
17423TIP3    H173760   0.607   6.551   2.415  1.1183  1.2114  1.1594
17423TIP3    H273761   0.515   6.645   2.340 -1.1162 -2.2294 -0.6718
17424TIP3   OH273762   6.381   1.171  13.890  0.0913 -0.0631 -0.1640
17424TIP3    H173763   6.363   1.255  13.849 -1.2839  0.7968  2.0686
17424TIP3    H273764   6.437   1.192  13.964 -0.5401 -1.0636  0.6146
17425TIP3   OH273765   1.842   0.225   0.643 -0.0847 -0.0154  0.5197
17425TIP3    H173766   1.899   0.186   0.709  1.8835  1.2715 -0.3224
17425TIP3    H273767   1.869   0.185   0.561  0.0458  1.0500  0.0219
17426TIP3   OH273768   6.656   3.849  14.966  0.3287 -0.2389  0.8428
17426TIP3    H173769   6.618   3.899  14.894  2.2507 -2.0252 -1.6225
17426TIP3    H273770   6.742   3.890  14.981 -0.6087  1.0363  3.2666
17427TIP3   OH273771   1.358   5.683   3.288  0.2005 -0.2071  0.0562
17427TIP3    H173772   1.282   5.733   3.318  1.4315  3.0641 -1.7171
17427TIP3    H273773   1.404   5.657   3.368  0.0716  2.6393  1.1612
17428TIP3   OH273774   5.043   3.159   1.325 -0.1304  0.1360  0.2266
17428TIP3    H173775   5.132   3.127   1.337  0.1032  1.1613  1.4826
17428TIP3    H273776   5.020   3.132   1.236  0.7485 -1.7003  0.5071
17429TIP3   OH273777   5.291   5.935   0.540 -0.0884  0.0922  0.1268
17429TIP3    H173778   5.248   5.963   0.621  0.6462  0.6427  0.3352
17429TIP3    H273779   5.379   5.910   0.567  0.2563  0.5668 -0.5476
17430TIP3   OH273780   2.372   4.043  14.060 -0.3292  0.1859  0.0304
17430TIP3    H173781   2.379   4.112  13.993  0.9064 -1.5547 -1.7496
17430TIP3    H273782   2.463   4.017  14.076 -0.8025 -1.4115  0.2298
17431TIP3   OH273783   1.307   2.104   3.919  0.4176 -0.1004  0.2592
17431TIP3    H173784   1.229   2.054   3.943  0.3659 -0.1918 -0.0873
17431TIP3    H273785   1.375   2.038   3.907  0.8174  0.0622  1.5674
17432TIP3   OH273786   5.985   6.534  12.110 -0.0922 -0.4400 -0.3201
17432TIP3    H173787   5.894   6.508  12.124 -0.7871  1.9666  0.2029
17432TIP3    H273788   6.036   6.471  12.161 -1.6794 -0.2284  1.6482
17433TIP3   OH273789   4.582   3.819  10.555  0.2155  0.3496 -0.0994
17433TIP3    H173790   4.515   3.884  10.579  0.1550  0.7308 -1.2401
17433TIP3    H273791   4.562   3.797  10.464 -0.4810 -2.1726  0.5846
17434TIP3   OH273792   5.342   2.259  14.254 -0.1618  0.1898  0.3956
17434TIP3    H173793   5.356   2.298  14.168 -0.2746 -1.0236 -0.1837
17434TIP3    H273794   5.367   2.329  14.316 -0.4510  1.2052 -0.5983
17435TIP3   OH273795   4.932   3.112  11.659  0.4399  0.5834  0.7619
17435TIP3    H173796   4.931   3.204  11.630  0.4614  0.4084  0.1963
17435TIP3    H273797   5.021   3.098  11.692  0.3370  0.8607  1.1644
17436TIP3   OH273798   0.509   0.340   6.612  0.2456  0.4198 -0.2953
17436TIP3    H173799   0.478   0.401   6.678  1.8650  0.0055  0.9263
17436TIP3    H273800   0.460   0.260   6.627 -0.5701  0.8357 -0.7003
17437TIP3   OH273801   1.579   3.242  13.277 -0.0697 -1.1125 -0.0185
17437TIP3    H173802   1.604   3.220  13.187  0.0217  2.9766 -1.2244
17437TIP3    H273803   1.661   3.238  13.326  0.6432  0.0787 -1.0331
17438TIP3   OH273804   6.092   3.595   4.458 -0.1877 -0.2902  0.2245
17438TIP3    H173805   6.121   3.635   4.376 -0.2580 -1.7130 -0.5421
17438TIP3    H273806   6.171   3.558   4.497 -0.4265 -1.3078 -0.2103
17439TIP3   OH273807   5.705   3.614  11.494 -0.4304 -0.2416 -0.0120
17439TIP3    H173808   5.786   3.651  11.459 -0.2174 -0.7057 -0.0130
17439TIP3    H273809   5.706   3.639  11.587  0.8620 -2.1821  0.5561
17440TIP3   OH273810   3.313   3.571  14.394  0.2300 -0.0952  0.1496
17440TIP3    H173811   3.271   3.657  14.390 -1.1945 -0.7450  0.3441
17440TIP3    H273812   3.248   3.512  14.356  0.9218 -1.1715  0.6087
17441TIP3   OH273813   3.307   4.674  12.536  0.1845 -0.6964  0.1709
17441TIP3    H173814   3.281   4.634  12.618  1.3835  0.1713  1.0037
17441TIP3    H273815   3.346   4.603  12.485 -1.3636 -1.4333 -0.0491
17442TIP3   OH273816   4.743   4.205  12.558  0.6468 -0.1358  0.0982
17442TIP3    H173817   4.760   4.269  12.627 -1.0846 -1.1381  1.5227
17442TIP3    H273818   4.799   4.130  12.580  0.4419 -0.2728  0.1589
17443TIP3   OH273819   4.553   6.675  16.222 -0.8043  0.0884 -0.0298
17443TIP3    H173820   4.503   6.595  16.240 -1.7148  0.7404  0.3730
17443TIP3    H273821   4.567   6.673  16.127 -1.4738 -0.1675 -0.1247
17444TIP3   OH273822   6.561   0.815  13.264  0.5311  0.0855 -0.2838
17444TIP3    H173823   6.653   0.802  13.289  0.0522  1.7176  2.8234
17444TIP3    H273824   6.512   0.755  13.320 -0.4254  0.9802 -0.1328
17445TIP3   OH273825   0.737   4.096   3.203  0.4774  0.3953 -0.0907
17445TIP3    H173826   0.832   4.110   3.212  0.5731  0.9179 -1.5495
17445TIP3    H273827   0.701   4.124   3.287  1.7055 -1.0254  0.9853
17446TIP3   OH273828   3.883   1.359  14.747 -0.2216  0.1456 -0.8326
17446TIP3    H173829   3.956   1.415  14.718  0.1293 -0.4742 -1.1743
17446TIP3    H273830   3.851   1.401  14.827  0.7452  0.2352 -0.4727
17447TIP3   OH273831   4.746   0.816   2.697 -0.0257 -0.4708  0.0528
17447TIP3    H173832   4.680   0.786   2.634  2.6387  0.0920 -3.3175
17447TIP3    H273833   4.769   0.738   2.747 -0.6685 -1.5233 -1.2162
17448TIP3   OH273834   0.524   3.948   0.134 -0.3964 -0.0834  0.3973
17448TIP3    H173835   0.485   4.035   0.140  0.2083  0.1043  2.5317
17448TIP3    H273836   0.458   3.889   0.170 -0.1652 -0.2811  0.5015
17449TIP3   OH273837   4.417   0.922  13.259 -0.1751  0.4261  0.0086
17449TIP3    H173838   4.373   0.996  13.302 -2.8897 -0.6948 -0.6284
17449TIP3    H273839   4.433   0.859  13.330 -3.7738 -1.0158 -0.2803
17450TIP3   OH273840   5.272   0.136   4.999  0.4608  0.5397 -0.6403
17450TIP3    H173841   5.270   0.056   4.947 -0.4616 -0.4635  0.8610
17450TIP3    H273842   5.214   0.118   5.073  0.4873  2.4897 -0.0965
17451TIP3   OH273843   3.419   5.565   2.422  0.2368  0.3049  0.7360
17451TIP3    H173844   3.508   5.551   2.390 -0.2842  0.9382 -1.1315
17451TIP3    H273845   3.429   5.576   2.517  2.0741 -0.1368  0.6316
17452TIP3   OH273846   0.160   4.090   1.900  0.0376  0.4803  0.3381
17452TIP3    H173847   0.104   4.016   1.876  1.5220 -0.3640 -0.6374
17452TIP3    H273848   0.111   4.167   1.870  0.3025 -0.3472 -2.4984
17453TIP3   OH273849   1.344   4.732  16.033 -0.3032 -0.3486  0.0575
17453TIP3    H173850   1.283   4.802  16.009 -0.4875 -0.7813 -0.7537
17453TIP3    H273851   1.345   4.673  15.958  1.7152  0.0537 -0.3067
17454TIP3   OH273852   0.523   3.894  14.083  0.2055 -0.4469  0.3862
17454TIP3    H173853   0.507   3.814  14.032 -0.6140  1.1954 -2.0626
17454TIP3    H273854   0.616   3.912  14.071  0.0214 -0.0758 -0.5906
17455TIP3   OH273855   6.458   5.564  13.157  0.4431 -0.4274  0.1820
17455TIP3    H173856   6.527   5.555  13.092  1.0317  0.5809  0.6387
17455TIP3    H273857   6.396   5.494  13.137  0.9132 -0.5009 -1.0813
17456TIP3   OH273858   2.646   1.085   3.652 -0.0231 -0.4305  0.0217
17456TIP3    H173859   2.562   1.126   3.671 -0.3810 -0.1056 -2.0270
17456TIP3    H273860   2.711   1.151   3.677 -0.2687 -0.9193  2.2105
17457TIP3   OH273861   2.667   5.292  11.371 -0.0363 -0.2650 -0.5038
17457TIP3    H173862   2.732   5.222  11.366 -1.8562 -2.1637  0.7108
17457TIP3    H273863   2.709   5.359  11.425  1.9700 -0.0691 -2.1606
17458TIP3   OH273864   0.917   1.471   1.657  0.3287  0.1297  0.3811
17458TIP3    H173865   0.982   1.534   1.626 -0.8265  1.7066  1.0670
17458TIP3    H273866   0.839   1.523   1.675 -1.1741 -1.7193 -0.4602
17459TIP3   OH273867   2.164   1.685   6.174 -0.3371 -0.6550  0.0450
17459TIP3    H173868   2.109   1.758   6.200 -0.3495 -0.2113 -1.1624
17459TIP3    H273869   2.234   1.682   6.240 -1.6468 -1.0923  1.4637
17460TIP3   OH273870   6.795   2.045   5.151 -0.4052  0.1998 -0.3009
17460TIP3    H173871   6.742   1.984   5.203  1.3670 -1.1958 -0.0496
17460TIP3    H273872   6.731   2.092   5.098 -2.0269 -0.3477  1.0642
17461TIP3   OH273873   3.444   1.673  13.442 -0.0067  0.9362 -0.3718
17461TIP3    H173874   3.377   1.699  13.379  1.1906  0.5526 -1.8662
17461TIP3    H273875   3.412   1.591  13.480 -1.1543  1.6317  0.2121
17462TIP3   OH273876   6.636   1.090   5.729 -0.0784 -0.2395  0.0562
17462TIP3    H173877   6.664   1.089   5.821  1.6753  3.0773 -0.3068
17462TIP3    H273878   6.546   1.122   5.731 -0.2794 -0.8154  0.6152
17463TIP3   OH273879   6.400   6.342  14.905  0.8677 -0.6137 -0.1151
17463TIP3    H173880   6.356   6.427  14.907 -0.4467 -1.2771 -0.0643
17463TIP3    H273881   6.484   6.360  14.863  0.0247  0.4548 -1.4143
17464TIP3   OH273882   2.139   4.520   1.749 -0.7477  0.2543 -0.4601
17464TIP3    H173883   2.061   4.492   1.703 -0.4084  0.4915 -1.1986
17464TIP3    H273884   2.148   4.459   1.822  0.2107 -1.8767 -2.2275
17465TIP3   OH273885   0.625   0.295  17.196  0.2166  0.4361  0.2916
17465TIP3    H173886   0.619   0.328  17.106  2.4395  0.8178  0.2293
17465TIP3    H273887   0.556   0.228  17.201 -0.1425  0.5875 -1.5988
17466TIP3   OH273888   6.718   6.306   2.876  0.0307 -0.3442 -0.5614
17466TIP3    H173889   6.720   6.284   2.969  2.6563 -1.0272 -0.7079
17466TIP3    H273890   6.708   6.222   2.832  0.1314 -0.1669 -0.9249
17467TIP3   OH273891   1.168   2.130  12.498  0.2205  0.0051 -0.2761
17467TIP3    H173892   1.137   2.048  12.460 -1.8659  0.9868 -0.8713
17467TIP3    H273893   1.251   2.149  12.454  0.2808 -1.3263 -0.7590
17468TIP3   OH273894   5.909   0.964  10.479  0.2083 -0.3942  0.2405
17468TIP3    H173895   5.885   0.914  10.557  0.4104  1.0920  1.3005
17468TIP3    H273896   5.885   1.055  10.500  1.8471  0.3180 -0.7329
17469TIP3   OH273897   3.283   3.989  15.621 -0.3098 -0.2016  0.5133
17469TIP3    H173898   3.216   3.926  15.646  0.1788 -0.5446  1.0038
17469TIP3    H273899   3.351   3.978  15.687 -0.3728  1.0987  0.8223
17470TIP3   OH273900   3.617   4.791  11.297  0.5853  0.2247  0.2168
17470TIP3    H173901   3.540   4.772  11.244  1.6713  2.6431 -2.4780
17470TIP3    H273902   3.604   4.881  11.327  2.4588  0.8615 -0.6759
17471TIP3   OH273903   3.776   6.136  15.557  0.1861 -0.4778  0.2944
17471TIP3    H173904   3.707   6.080  15.593  0.1760  0.2198  1.4304
17471TIP3    H273905   3.769   6.217  15.608  1.1584  0.0030 -0.3101
17472TIP3   OH273906   6.324   6.289   3.296 -0.5507  0.1191 -0.2437
17472TIP3    H173907   6.332   6.384   3.308 -0.9399  0.1338 -0.0613
17472TIP3    H273908   6.367   6.251   3.372 -1.5047  0.1797  0.3472
17473TIP3   OH273909   4.450   0.258  13.166  0.0075  0.6213  0.2636
17473TIP3    H173910   4.513   0.328  13.180  0.0336  0.9342 -1.2809
17473TIP3    H273911   4.370   0.287  13.211  0.3065  1.2120  0.4180
17474TIP3   OH273912   1.954   1.458  12.004  0.2984  0.0647 -0.7437
17474TIP3    H173913   1.950   1.541  11.958  0.8696  0.4632 -0.1091
17474TIP3    H273914   1.964   1.482  12.096  0.8107 -0.6992 -0.5843
17475TIP3   OH273915   0.261   5.635   0.984 -0.4865 -0.3795 -0.3159
17475TIP3    H173916   0.209   5.713   0.965 -2.1068 -1.0448  1.1574
17475TIP3    H273917   0.197   5.566   0.999  0.8842 -1.6945 -0.2195
17476TIP3   OH273918   3.720   2.927   6.035  0.3717  0.4352 -0.0434
17476TIP3    H173919   3.640   2.968   6.068  1.1046  0.9845  1.1268
17476TIP3    H273920   3.790   2.984   6.066  1.1521  0.7182 -2.2127
17477TIP3   OH273921   1.568   5.992   3.056 -0.4092  0.0201 -0.4132
17477TIP3    H173922   1.566   5.996   3.152 -1.1153  0.4435 -0.4412
17477TIP3    H273923   1.476   5.995   3.030 -0.2773 -1.0990 -1.0730
17478TIP3   OH273924   1.435   3.995  13.327  0.6516 -0.1118  0.9831
17478TIP3    H173925   1.416   3.954  13.411  0.5956  0.0112  1.0294
17478TIP3    H273926   1.351   4.031  13.298  0.7404  0.1362  1.0302
17479TIP3   OH273927   3.815   5.246  11.416 -0.4502  0.4407 -0.0644
17479TIP3    H173928   3.870   5.311  11.374 -0.9146  0.7125 -0.2559
17479TIP3    H273929   3.755   5.297  11.471  1.4026  0.0470  2.5411
17480TIP3   OH273930   3.411   4.595  16.577 -0.1899  0.0672  0.2420
17480TIP3    H173931   3.456   4.664  16.626 -0.7005  0.2099  0.5174
17480TIP3    H273932   3.366   4.544  16.644 -0.5216 -0.0114 -0.0385
17481TIP3   OH273933   6.320   5.375   2.127  0.1953  0.0508 -0.1417
17481TIP3    H173934   6.251   5.441   2.125 -2.4839 -2.5346 -0.6775
17481TIP3    H273935   6.369   5.388   2.046 -1.1926  0.5186 -0.9357
17482TIP3   OH273936   4.125   3.140   3.173  0.1870 -0.0388 -0.4242
17482TIP3    H173937   4.116   3.052   3.209  0.9068  0.2382  0.4715
17482TIP3    H273938   4.219   3.153   3.165  0.2886  1.8643  2.6343
17483TIP3   OH273939   2.415   4.773  14.237 -0.4793  0.3608 -0.0661
17483TIP3    H173940   2.378   4.792  14.323 -0.8479  1.2617 -0.4123
17483TIP3    H273941   2.484   4.709  14.254 -1.3132 -0.3574  0.7568
17484TIP3   OH273942   1.082   6.336   2.017 -0.2921  0.4273  0.1514
17484TIP3    H173943   1.111   6.314   2.106  0.6972 -0.5005 -0.3713
17484TIP3    H273944   1.080   6.432   2.015  1.5292  0.5214  0.6393
17485TIP3   OH273945   6.686   4.498  11.404 -0.1053 -0.1519 -0.2277
17485TIP3    H173946   6.750   4.432  11.377  0.0945 -1.0134  2.0889
17485TIP3    H273947   6.681   4.559  11.331  0.4906 -2.1635 -2.0235
17486TIP3   OH273948   6.203   4.148   1.170 -0.6098  0.4942  0.0904
17486TIP3    H173949   6.155   4.066   1.182  0.7355 -0.1130  1.8020
17486TIP3    H273950   6.229   4.173   1.259  3.2253  0.1247 -0.7274
17487TIP3   OH273951   4.492   4.577   1.765  0.6716  0.3987  0.7158
17487TIP3    H173952   4.570   4.581   1.710  0.8397 -0.6759  0.8665
17487TIP3    H273953   4.425   4.538   1.708  0.7020 -0.2225  1.1020
17488TIP3   OH273954   6.647   6.683  13.058 -0.0828  0.5377  0.2165
17488TIP3    H173955   6.742   6.687  13.048  0.2691 -1.5050  2.0368
17488TIP3    H273956   6.625   6.766  13.101  0.8743  1.0385 -0.2230
17489TIP3   OH273957   4.647   6.382  15.920  0.2115  0.1381  0.6951
17489TIP3    H173958   4.735   6.411  15.942  0.6457 -0.7554  0.2249
17489TIP3    H273959   4.650   6.366  15.825  0.0098 -1.3716  0.9144
17490TIP3   OH273960   5.499   6.493  12.334 -0.1742  0.5836 -0.3923
17490TIP3    H173961   5.583   6.459  12.303  1.2413  0.9047  2.6969
17490TIP3    H273962   5.519   6.579  12.370 -2.0031  1.0277 -0.3241
17491TIP3   OH273963   4.836   5.245   1.183  0.0526 -0.2890 -0.7086
17491TIP3    H173964   4.774   5.171   1.184  1.6994 -1.8522 -3.2754
17491TIP3    H273965   4.910   5.214   1.235  0.0573  0.2526 -0.3906
17492TIP3   OH273966   1.721   2.621   3.246 -0.3274 -0.7102 -0.0951
17492TIP3    H173967   1.731   2.629   3.151  0.2419  0.6339  0.0644
17492TIP3    H273968   1.793   2.565   3.273 -0.3558 -0.9068 -0.4168
17493TIP3   OH273969   5.888   5.080   2.436 -0.1708 -0.2068  0.2633
17493TIP3    H173970   5.966   5.039   2.472 -1.2531 -1.3790  1.3663
17493TIP3    H273971   5.847   5.124   2.510 -0.3606  0.7244 -0.3848
17494TIP3   OH273972   6.305   0.434   1.942  0.1367 -0.3967  0.2463
17494TIP3    H173973   6.300   0.359   1.883  2.4327 -1.5846  1.4201
17494TIP3    H273974   6.292   0.397   2.029 -2.0307  1.1493  0.6587
17495TIP3   OH273975   6.546   6.197  15.621  0.1045  0.1884  0.3650
17495TIP3    H173976   6.520   6.105  15.610 -1.6487  0.7809 -0.8006
17495TIP3    H273977   6.537   6.213  15.715  1.1127 -0.9939  0.6912
17496TIP3   OH273978   0.301   5.765  13.895 -0.0198  0.1230  0.1424
17496TIP3    H173979   0.268   5.796  13.810  0.5175  0.9255  0.2182
17496TIP3    H273980   0.230   5.711  13.930  0.0198 -0.7731 -1.1127
17497TIP3   OH273981   3.102   6.630  14.540 -0.1880  0.0708  0.0174
17497TIP3    H173982   3.132   6.675  14.462  2.1655  1.7487  1.7405
17497TIP3    H273983   3.150   6.547  14.540  0.4800  0.4565  0.1183
17498TIP3   OH273984   6.173   5.361   3.927  0.5669  0.4288  0.1601
17498TIP3    H173985   6.078   5.347   3.930  0.0639  3.2412 -0.0590
17498TIP3    H273986   6.185   5.433   3.866  2.9641 -0.3456 -0.3983
17499TIP3   OH273987   5.240   4.020  13.704 -0.1051  0.1995  0.1579
17499TIP3    H173988   5.325   4.002  13.664  0.1083 -0.9052  1.0360
17499TIP3    H273989   5.211   4.102  13.664 -0.4506 -1.3530 -3.0844
17500TIP3   OH273990   2.494   5.310   5.129  0.7907  0.0129 -0.1988
17500TIP3    H173991   2.432   5.382   5.130  1.8392  0.9358 -0.2547
17500TIP3    H273992   2.556   5.332   5.060  1.3091 -0.7853 -0.0055
17501TIP3   OH273993   5.917   2.986   5.118  0.4677 -0.1821 -0.0431
17501TIP3    H173994   5.934   3.080   5.106  1.9936 -0.5682 -1.3440
17501TIP3    H273995   5.864   2.962   5.043  1.6267 -0.6823 -0.7331
17502TIP3   OH273996   5.887   5.818  14.203  0.2034  0.2030 -0.3015
17502TIP3    H173997   5.838   5.774  14.134 -0.4975  0.5342 -0.0207
17502TIP3    H273998   5.954   5.869  14.156 -0.3213  0.4905 -0.7397
17503TIP3   OH273999   2.745   3.247  13.103 -0.6521 -0.3833  0.4244
17503TIP3    H174000   2.698   3.182  13.155 -0.9611 -0.5811 -0.0889
17503TIP3    H274001   2.807   3.196  13.051 -1.2047 -0.3220 -0.3081
17504TIP3   OH274002   0.604   6.624  10.593  0.3809  0.9901 -0.2886
17504TIP3    H174003   0.614   6.532  10.617  1.2726  0.9514 -0.7758
17504TIP3    H274004   0.652   6.634  10.512  0.2025  1.8709 -0.3063
17505TIP3   OH274005   6.768   0.478  15.008  0.4167 -0.3684  0.4160
17505TIP3    H174006   6.708   0.504  15.077  0.1298 -2.5800  1.0816
17505TIP3    H274007   6.713   0.466  14.931  0.3210 -0.3402  0.4797
17506TIP3   OH274008   5.137   6.068   6.785 -0.0471 -0.5060 -0.1954
17506TIP3    H174009   5.132   6.017   6.866  0.8763 -0.1786  0.0847
17506TIP3    H274010   5.101   6.011   6.718 -0.1696 -1.0517  0.3276
17507TIP3   OH274011   0.288   4.163  17.156 -0.9297  0.5724  0.0052
17507TIP3    H174012   0.355   4.168  17.224  0.1391  0.8212 -1.0359
17507TIP3    H274013   0.248   4.076  17.167 -0.9585  0.7113  1.0945
17508TIP3   OH274014   6.410   3.925  15.133  0.0029  0.2338  0.0397
17508TIP3    H174015   6.492   3.967  15.107  0.2359  0.4025  0.9848
17508TIP3    H274016   6.365   3.990  15.187 -1.5264  0.7401 -1.7548
17509TIP3   OH274017   3.664   4.297   2.928  0.0845  0.7434 -0.2671
17509TIP3    H174018   3.731   4.282   2.862  0.1760 -0.5113  0.0844
17509TIP3    H274019   3.676   4.388   2.955  0.3905  1.1043 -1.5789
17510TIP3   OH274020   0.572   4.697   0.725 -1.0103 -0.2860  0.1329
17510TIP3    H174021   0.597   4.731   0.640 -0.8986 -0.9725 -0.1187
17510TIP3    H274022   0.564   4.774   0.781  0.8032  0.0436  0.0047
17511TIP3   OH274023   3.882   5.750   2.843  0.4169 -0.1996 -0.2847
17511TIP3    H174024   3.935   5.825   2.866  1.8452 -0.7872 -1.4926
17511TIP3    H274025   3.887   5.692   2.919 -0.4545  0.7603  0.5307
17512TIP3   OH274026   1.720   6.044  16.073  0.3753 -0.2466  0.2563
17512TIP3    H174027   1.634   6.026  16.111  0.4966 -1.0784  0.1558
17512TIP3    H274028   1.778   6.052  16.149  0.2283  0.2282  0.3208
17513TIP3   OH274029   3.316   0.765   4.495  0.1954  0.5158 -0.2700
17513TIP3    H174030   3.393   0.713   4.516  0.1864  0.4101 -0.5007
17513TIP3    H274031   3.244   0.720   4.538  0.6704  2.3813  2.8060
17514TIP3   OH274032   5.437   0.060   1.670 -0.9237  0.0163 -0.4048
17514TIP3    H174033   5.378  -0.001   1.714  0.8407 -2.2273 -0.9669
17514TIP3    H274034   5.381   0.108   1.609 -2.3431 -1.2000 -0.1062
17515TIP3   OH274035   1.159   5.364  17.257 -0.1407 -0.4203 -0.2261
17515TIP3    H174036   1.246   5.383  17.220  0.2719  0.5952  1.1933
17515TIP3    H274037   1.147   5.270  17.239  1.4604 -0.7026 -0.0586
17516TIP3   OH274038   2.064   4.667  10.681 -0.1830 -0.0739  0.5245
17516TIP3    H174039   2.049   4.593  10.623  0.5152 -1.2648  1.8166
17516TIP3    H274040   1.995   4.730  10.657 -0.8685 -1.1669 -0.5079
17517TIP3   OH274041   4.236   1.472  11.704  0.1032  0.2807  0.0691
17517TIP3    H174042   4.199   1.385  11.689 -0.9712  0.8338 -0.6344
17517TIP3    H274043   4.282   1.492  11.622  0.4290  0.3382  0.2654
17518TIP3   OH274044   1.310   3.756   5.843 -0.3556 -0.0055  0.2131
17518TIP3    H174045   1.237   3.695   5.852 -0.4183  0.0395  0.0112
17518TIP3    H274046   1.306   3.785   5.752  1.2376 -1.6570 -0.4218
17519TIP3   OH274047   6.297   3.601   3.484 -0.1900  0.6320  0.2252
17519TIP3    H174048   6.386   3.624   3.458 -0.2637  0.5254 -0.1167
17519TIP3    H274049   6.278   3.661   3.557  0.1971  0.5837  0.3687
17520TIP3   OH274050   3.830   0.242  15.589  0.3984 -0.4499  0.0745
17520TIP3    H174051   3.767   0.183  15.548 -0.3431  0.6040 -0.3447
17520TIP3    H274052   3.866   0.293  15.516  0.6047  0.0091  0.4908
17521TIP3   OH274053   5.834   5.219  15.985 -0.2198  0.0907  0.0798
17521TIP3    H174054   5.813   5.134  15.947  0.3987  0.2524 -0.6243
17521TIP3    H274055   5.914   5.247  15.941 -0.8236  1.3853 -0.2579
17522TIP3   OH274056   3.455   5.318  12.948 -0.5991 -0.9455  0.0152
17522TIP3    H174057   3.459   5.406  12.911 -0.6663 -0.9804 -0.0771
17522TIP3    H274058   3.462   5.331  13.042 -0.0005 -0.8898 -0.0354
17523TIP3   OH274059   3.844   4.758   4.547 -0.3299  0.1406  0.3934
17523TIP3    H174060   3.869   4.850   4.554 -1.8028  0.6245 -0.2282
17523TIP3    H274061   3.773   4.757   4.482  1.3875 -1.8044 -1.6167
17524TIP3   OH274062   4.008   2.746   0.264  0.5467  0.2805 -0.6109
17524TIP3    H174063   4.066   2.703   0.201  1.3694  0.4074  0.0466
17524TIP3    H274064   3.957   2.808   0.211  0.6419 -0.1905 -1.2733
17525TIP3   OH274065   2.822   1.002  13.487  0.3552 -0.3832 -0.1418
17525TIP3    H174066   2.778   1.084  13.466 -1.3767 -1.2557 -0.1081
17525TIP3    H274067   2.800   0.943  13.415  2.1721 -0.6409 -0.5365
17526TIP3   OH274068   4.569   1.832  15.318  0.7257 -0.0683 -0.5575
17526TIP3    H174069   4.609   1.900  15.372  1.2076  0.8153 -1.9633
17526TIP3    H274070   4.637   1.766  15.308  1.4763  0.8562 -1.9329
17527TIP3   OH274071   1.103   6.223   2.624  0.3114  0.4332  0.3552
17527TIP3    H174072   1.193   6.245   2.601  0.8346 -1.6904  0.1598
17527TIP3    H274073   1.079   6.151   2.565 -1.1683  0.3064  1.0454
17528TIP3   OH274074   2.536   0.450   1.756  0.1476 -0.1812 -0.5328
17528TIP3    H174075   2.463   0.394   1.784  0.2101 -0.3955 -0.7929
17528TIP3    H274076   2.497   0.508   1.691 -0.4033  1.4528  1.1557
17529TIP3   OH274077   0.070   6.473   2.725  0.1427 -0.0716  0.7499
17529TIP3    H174078   0.051   6.567   2.716 -0.3984 -0.1459  1.0888
17529TIP3    H274079   0.001   6.440   2.782  0.4513 -0.6406  0.7985
17530TIP3   OH274080   3.431   2.833   0.970 -0.3166 -0.4246 -0.5234
17530TIP3    H174081   3.388   2.788   0.898 -0.0720 -0.4672 -0.6446
17530TIP3    H274082   3.425   2.926   0.948 -2.0323 -0.2810  0.3918
17531TIP3   OH274083   4.828   1.039  13.910 -0.0703 -0.5986  0.1307
17531TIP3    H174084   4.920   1.015  13.920  0.9621  0.7254 -4.0026
17531TIP3    H274085   4.781   0.955  13.912  1.2630 -1.3465  1.7092
17532TIP3   OH274086   0.230   5.057   6.491  0.9839  0.1381 -0.1724
17532TIP3    H174087   0.135   5.059   6.505  0.7635  0.9792 -1.6167
17532TIP3    H274088   0.250   4.964   6.479  0.4112 -0.0856  0.5123
17533TIP3   OH274089   4.759   4.170   6.166  0.2955  0.2359  0.8552
17533TIP3    H174090   4.804   4.097   6.125  1.3394  0.6556  1.2339
17533TIP3    H274091   4.667   4.142   6.171  0.2863 -0.1440 -0.9905
17534TIP3   OH274092   3.026   0.959  16.523 -0.1733 -0.5763  0.5470
17534TIP3    H174093   3.058   0.871  16.505 -0.1400 -0.6896  1.1558
17534TIP3    H274094   3.104   1.008  16.547 -0.2986 -0.5654  0.9272
17535TIP3   OH274095   1.984   3.480  13.017  0.4625 -0.3412  0.0636
17535TIP3    H174096   2.073   3.471  13.051  1.4607  0.7847 -2.0247
17535TIP3    H274097   1.979   3.416  12.946  1.5033  2.8342 -3.1729
17536TIP3   OH274098   5.248   1.526  12.963 -0.2570  0.0590  0.3789
17536TIP3    H174099   5.330   1.558  12.924 -0.5043 -1.9885 -2.1007
17536TIP3    H274100   5.233   1.441  12.921 -2.5428 -0.6464  2.3919
17537TIP3   OH274101   1.590   2.088  14.727 -0.6988  0.2937  0.5711
17537TIP3    H174102   1.580   2.000  14.689  0.0120  0.3425  0.2642
17537TIP3    H274103   1.587   2.074  14.822 -1.7930  0.0890  0.5240
17538TIP3   OH274104   2.731   6.405   4.721  0.1888 -0.6223 -0.1637
17538TIP3    H174105   2.729   6.325   4.774 -0.7768 -1.1580 -0.9649
17538TIP3    H274106   2.730   6.373   4.631 -0.6757  0.2910 -0.4911
17539TIP3   OH274107   2.000   4.890  16.337  0.6942  0.1616 -0.3912
17539TIP3    H174108   1.909   4.861  16.348  0.5637  0.2994 -1.0511
17539TIP3    H274109   2.023   4.928  16.421  0.3894 -0.5498  0.0243
17540TIP3   OH274110   0.826   2.574  11.364 -0.1889  0.4216  0.2465
17540TIP3    H174111   0.789   2.580  11.452  0.1295 -1.6446  0.5867
17540TIP3    H274112   0.919   2.557  11.378  0.1855  1.7312 -0.5307
17541TIP3   OH274113   0.001   6.660  16.183  0.0901  0.7757  0.7479
17541TIP3    H174114   0.028   6.739  16.136 -0.3158  0.5056  0.0582
17541TIP3    H274115  -0.084   6.684  16.221 -0.7599  0.1968 -0.7095
17542TIP3   OH274116   6.269   0.198  14.337  0.2575 -0.3112  0.6341
17542TIP3    H174117   6.281   0.219  14.430  0.3240  0.8723  0.3669
17542TIP3    H274118   6.341   0.137  14.317  1.7143  1.3049  0.7734
17543TIP3   OH274119   6.373   2.830   2.678 -0.2870 -0.3956 -0.0247
17543TIP3    H174120   6.416   2.876   2.605 -0.2428 -0.2478  0.0953
17543TIP3    H274121   6.415   2.744   2.679 -1.3324 -0.9550 -1.1378
17544TIP3   OH274122   1.375   2.746   2.840  0.0146  0.1697  0.5677
17544TIP3    H174123   1.383   2.673   2.902  0.3127 -0.1565  0.1482
17544TIP3    H274124   1.455   2.742   2.788 -1.3501 -1.1900 -1.5952
17545TIP3   OH274125   4.455   1.265  15.844 -0.2636 -0.6476 -0.2376
17545TIP3    H174126   4.382   1.257  15.783  0.0545 -1.1294 -0.5638
17545TIP3    H274127   4.452   1.185  15.896  0.5308 -1.0719 -0.8190
17546TIP3   OH274128   1.073   2.094   1.040  0.6648  0.0419  0.7536
17546TIP3    H174129   1.109   2.113   1.127  1.0960 -3.4562  1.5080
17546TIP3    H274130   1.057   1.999   1.041 -2.0811  0.3220 -2.0122
17547TIP3   OH274131   0.760   5.937  12.890 -0.4958 -0.0245 -0.3296
17547TIP3    H174132   0.812   6.013  12.866 -0.5663  0.6731  1.5484
17547TIP3    H274133   0.764   5.879  12.814 -1.0973  2.1660 -2.1093
17548TIP3   OH274134   5.636   5.940   2.884  0.2472 -0.6403  0.2199
17548TIP3    H174135   5.674   6.014   2.838 -1.8019  0.6630  0.4769
17548TIP3    H274136   5.555   5.974   2.922 -0.6908 -2.9719  0.5164
17549TIP3   OH274137   2.963   2.998  13.210  0.0640 -0.2793  0.1634
17549TIP3    H174138   3.033   3.056  13.181  0.3539 -0.1274  1.1269
17549TIP3    H274139   2.931   2.957  13.130 -0.3542  1.4270 -0.5837
17550TIP3   OH274140   2.692   2.318   3.665 -0.9073 -0.0152 -0.1532
17550TIP3    H174141   2.773   2.348   3.626 -0.3370 -0.3504  0.7355
17550TIP3    H274142   2.666   2.243   3.612 -0.7236  0.1970 -0.5424
17551TIP3   OH274143   6.063   0.953  16.272 -0.2247  0.1932  0.1233
17551TIP3    H174144   6.001   1.020  16.299 -0.1701 -0.4648  2.0338
17551TIP3    H274145   6.148   0.997  16.274 -0.4167  0.6540 -0.9115
17552TIP3   OH274146   5.983   4.166  16.623 -0.9632  0.2327 -0.0566
17552TIP3    H174147   5.905   4.211  16.654 -1.3540  0.0958 -0.8217
17552TIP3    H274148   6.001   4.204  16.537  0.1626  0.6820  0.3544
17553TIP3   OH274149   3.477   3.178   4.191 -0.3515 -0.7913  0.5701
17553TIP3    H174150   3.547   3.153   4.131  0.9106 -1.0569  2.0811
17553TIP3    H274151   3.417   3.230   4.138  0.8258 -0.8258 -0.8537
17554TIP3   OH274152   3.135   6.559   2.179 -0.6916 -0.4079  0.0847
17554TIP3    H174153   3.054   6.518   2.150  0.0291 -1.5059 -0.4696
17554TIP3    H274154   3.138   6.544   2.273 -0.0789 -2.3821 -0.2082
17555TIP3   OH274155   5.840   5.205   0.967  0.7604 -0.1721 -0.6476
17555TIP3    H174156   5.909   5.140   0.983 -1.1336 -2.6386 -1.8054
17555TIP3    H274157   5.863   5.244   0.883  1.9690  0.7834  0.0998
17556TIP3   OH274158   0.992   2.599   3.720  0.6466  0.1897 -0.4347
17556TIP3    H174159   1.087   2.601   3.735  0.6153 -0.8384  0.0002
17556TIP3    H274160   0.969   2.506   3.726 -0.1031  0.1909 -2.3918
17557TIP3   OH274161   1.094   1.067   3.210  0.2131  0.3237 -0.6835
17557TIP3    H174162   1.002   1.059   3.184  0.3662  0.7832 -1.3849
17557TIP3    H274163   1.136   1.114   3.138  1.4298 -1.6312 -1.3225
17558TIP3   OH274164   4.221   5.689  16.773 -0.3101 -0.8331 -0.0030
17558TIP3    H174165   4.208   5.769  16.722 -0.4534 -0.9544 -0.1648
17558TIP3    H274166   4.220   5.717  16.864  0.7544 -0.4963 -0.0806
17559TIP3   OH274167   1.326   2.534  11.548 -0.4307 -0.5637  0.2523
17559TIP3    H174168   1.343   2.450  11.590 -1.8745 -0.9147  0.1676
17559TIP3    H274169   1.395   2.591  11.581  0.4247 -1.7094  0.5003
17560TIP3   OH274170   5.976   4.317  11.535  0.3743 -0.1055 -0.2272
17560TIP3    H174171   5.901   4.365  11.499  0.5901  0.4810  0.0946
17560TIP3    H274172   6.047   4.335  11.473  0.2659 -0.6212 -0.5051
17561TIP3   OH274173   3.172   4.484   3.340 -0.2106 -0.0045 -0.5968
17561TIP3    H174174   3.251   4.529   3.369  1.8324 -1.9081 -2.8440
17561TIP3    H274175   3.116   4.483   3.417  2.3376  0.5303  1.4050
17562TIP3   OH274176   2.112   2.572  12.941 -0.7191 -0.0868 -0.1818
17562TIP3    H174177   2.081   2.651  12.897 -0.9320  1.3048  2.2777
17562TIP3    H274178   2.059   2.566  13.020  2.2145 -0.1112  1.9532
17563TIP3   OH274179   0.039   0.610  15.706  0.6531 -0.2208  0.2910
17563TIP3    H174180   0.022   0.574  15.619  1.5090 -1.4186  0.5897
17563TIP3    H274181   0.102   0.549  15.745  1.3970  1.0904  1.2079
17564TIP3   OH274182   4.857   1.837   3.374  0.4211 -0.6693 -0.1963
17564TIP3    H174183   4.792   1.766   3.372  2.3001 -2.4557 -0.7158
17564TIP3    H274184   4.933   1.798   3.417  1.8898  0.6945 -1.4617
17565TIP3   OH274185   4.141   3.878   0.297 -0.4210 -0.4570 -0.7580
17565TIP3    H174186   4.161   3.965   0.331  0.1521 -0.7579 -0.3096
17565TIP3    H274187   4.057   3.855   0.336  1.4327 -1.9342  2.8054
17566TIP3   OH274188   2.182   2.966   5.360 -0.2358 -0.1274  0.1307
17566TIP3    H174189   2.101   2.914   5.353  0.2614 -0.7608 -3.8075
17566TIP3    H274190   2.250   2.901   5.379 -0.0735 -0.4770 -1.4698
17567TIP3   OH274191   4.054   3.200  16.423 -0.0007  0.2768 -0.1054
17567TIP3    H174192   3.964   3.228  16.444 -0.0540 -1.0665  1.6700
17567TIP3    H274193   4.087   3.164  16.505  1.9829  0.2130 -0.8934
17568TIP3   OH274194   6.457   0.377   0.259  0.3372 -0.1244 -0.4021
17568TIP3    H174195   6.434   0.321   0.333 -2.6958  0.6609 -0.6108
17568TIP3    H274196   6.480   0.317   0.189  0.9567 -0.9444  0.4873
17569TIP3   OH274197   4.761   1.582   0.898  0.6771  0.2423  0.0751
17569TIP3    H174198   4.687   1.528   0.927  1.3947 -0.4055  0.7450
17569TIP3    H274199   4.742   1.599   0.806  0.3825 -1.1135 -0.1465
17570TIP3   OH274200   2.683   2.812  17.196  0.0048  0.4699 -0.5644
17570TIP3    H174201   2.759   2.794  17.251  0.8365 -2.8145 -2.5235
17570TIP3    H274202   2.717   2.864  17.124 -0.2442  1.3570 -0.0584
17571TIP3   OH274203   4.378   3.314  13.234  0.1833 -0.6969 -0.2402
17571TIP3    H174204   4.359   3.379  13.166 -0.7927 -0.5719  0.1389
17571TIP3    H274205   4.441   3.358  13.291 -1.3094  0.3766  0.6430
17572TIP3   OH274206   2.247   1.410   4.196  0.2102 -0.2867  0.8996
17572TIP3    H174207   2.252   1.467   4.274 -0.3615 -0.4182  1.0367
17572TIP3    H274208   2.338   1.400   4.169  0.3339  0.6449  0.9112
17573TIP3   OH274209   3.409   1.927  14.897 -0.3505  0.0314  0.8579
17573TIP3    H174210   3.438   1.957  14.810  1.1014 -0.9867  0.9461
17573TIP3    H274211   3.486   1.940  14.953 -1.5525  1.5345  2.2476
17574TIP3   OH274212   1.055   6.488  11.633  0.7739  0.1107  0.0531
17574TIP3    H174213   1.146   6.486  11.662  0.7706  3.5471  0.6764
17574TIP3    H274214   1.056   6.534  11.550 -0.3968  0.4351  0.1954
17575TIP3   OH274215   1.548   5.631   2.883  0.5096  0.5370  0.0200
17575TIP3    H174216   1.548   5.545   2.924 -1.2985  0.3562 -0.2630
17575TIP3    H274217   1.634   5.667   2.903  1.1185 -1.1200  0.5790
17576TIP3   OH274218   3.358   2.253  12.855 -0.1503 -0.4404 -0.3625
17576TIP3    H174219   3.275   2.255  12.904  0.3541 -1.6482  0.6140
17576TIP3    H274220   3.367   2.162  12.829  0.3765 -0.1046 -1.3710
17577TIP3   OH274221   5.788   2.777   0.803 -0.2594  0.7646 -0.4705
17577TIP3    H174222   5.853   2.764   0.872 -0.4023 -1.0160 -0.6402
17577TIP3    H274223   5.807   2.865   0.769  2.6440  0.0135 -1.1081
17578TIP3   OH274224   1.753   0.033   3.343 -0.1834 -0.2694  0.5739
17578TIP3    H174225   1.840   0.045   3.307 -0.6060  0.0281 -0.3945
17578TIP3    H274226   1.749  -0.061   3.364 -0.0799 -0.5688 -0.6472
17579TIP3   OH274227   3.833   0.192   3.530 -0.3637  0.5693  0.0408
17579TIP3    H174228   3.865   0.270   3.575 -0.3902  1.3790 -1.2903
17579TIP3    H274229   3.872   0.119   3.578 -1.6100  1.2873  2.3252
17580TIP3   OH274230   2.405   2.517  12.613  0.0512 -0.9840 -0.1552
17580TIP3    H174231   2.423   2.608  12.589 -1.8534 -0.9259 -1.6541
17580TIP3    H274232   2.443   2.466  12.541  0.3742 -1.3417  0.2608
17581TIP3   OH274233   2.763   5.858  14.699 -0.4605 -0.4536  0.4277
17581TIP3    H174234   2.791   5.807  14.775 -1.4759  0.1495  1.2249
17581TIP3    H274235   2.705   5.800  14.651  1.3262 -1.3788 -0.7392
17582TIP3   OH274236   6.172   6.266   5.301  0.3555 -0.1067 -0.4908
17582TIP3    H174237   6.260   6.297   5.322  0.5150 -1.0696  0.3494
17582TIP3    H274238   6.179   6.170   5.304 -0.8956 -0.1915  0.3388
17583TIP3   OH274239   6.362   5.788  16.932  0.3432 -0.5484  0.1131
17583TIP3    H174240   6.396   5.755  17.016  0.2237  0.6325  0.6493
17583TIP3    H274241   6.440   5.802  16.879  0.4931 -0.3667  0.3812
17584TIP3   OH274242   6.108   3.406   3.804 -0.2270  0.6229  0.4886
17584TIP3    H174243   6.188   3.400   3.751 -1.1060  1.1551 -0.9519
17584TIP3    H274244   6.138   3.440   3.888  0.8869  2.1613 -0.4764
17585TIP3   OH274245   6.294   5.373  13.791 -0.0646  0.2041  0.8670
17585TIP3    H174246   6.219   5.340  13.840 -0.3228 -0.7426 -0.1157
17585TIP3    H274247   6.370   5.339  13.837 -0.2634  0.2869  1.2611
17586TIP3   OH274248   1.172   2.260   0.451  0.1348  0.2074 -0.3594
17586TIP3    H174249   1.231   2.294   0.383 -0.8888  0.8518 -0.9525
17586TIP3    H274250   1.126   2.338   0.483 -0.2340 -0.2570  0.2536
17587TIP3   OH274251   2.194   2.401   4.609  0.3710 -0.4822 -0.1618
17587TIP3    H174252   2.159   2.336   4.670  1.7731 -0.6298  0.5100
17587TIP3    H274253   2.178   2.363   4.522  1.2014 -1.7630  0.2189
17588TIP3   OH274254   3.615   0.809   4.103  0.4092 -0.3448  0.3010
17588TIP3    H174255   3.688   0.845   4.052  0.8190 -1.1341  0.3167
17588TIP3    H274256   3.618   0.715   4.086 -0.3053 -0.4477  0.7008
17589TIP3   OH274257   1.807   5.779   3.267  0.1244 -0.1785  0.0163
17589TIP3    H174258   1.894   5.749   3.292  0.3543  0.9235  0.6321
17589TIP3    H274259   1.791   5.854   3.324 -0.3887  0.8674 -1.4392
17590TIP3   OH274260   1.658   3.129   3.144 -0.5723  0.3464  0.1671
17590TIP3    H174261   1.662   3.176   3.227 -2.3856 -1.1592  1.1791
17590TIP3    H274262   1.565   3.118   3.127 -0.2769 -2.5413 -0.1525
17591TIP3   OH274263   2.891   6.645  15.828 -0.0858  0.4439 -0.5613
17591TIP3    H174264   2.931   6.614  15.747 -0.6406 -1.5228 -0.1497
17591TIP3    H274265   2.965   6.659  15.887  0.2037 -0.5530 -0.6547
17592TIP3   OH274266   6.031   2.860   2.479 -0.4017  0.1290  0.3921
17592TIP3    H174267   5.982   2.903   2.410  0.2318 -0.2158 -0.2904
17592TIP3    H274268   6.029   2.767   2.455 -0.8690 -0.0979  1.2786
17593TIP3   OH274269   1.994   4.350  14.872  0.3103 -0.1765 -0.0223
17593TIP3    H174270   1.899   4.359  14.878  0.5143  2.2926  0.5938
17593TIP3    H274271   2.009   4.320  14.782 -1.0460 -0.6908 -0.0986
17594TIP3   OH274272   5.180   6.445  13.206 -0.2861  0.9833  0.2088
17594TIP3    H174273   5.270   6.454  13.174  0.3106  0.7850  1.7466
17594TIP3    H274274   5.127   6.434  13.126  1.1045  0.5893 -0.6931
17595TIP3   OH274275   2.430   3.660   2.372 -0.2742  0.4314  0.0653
17595TIP3    H174276   2.337   3.679   2.380 -0.7234 -1.3592 -0.4378
17595TIP3    H274277   2.468   3.692   2.454 -1.0299  2.5711 -0.3506
17596TIP3   OH274278   0.662   4.428  10.473 -0.2888 -0.2711  0.3828
17596TIP3    H174279   0.649   4.508  10.523  2.4877  0.2336  0.4454
17596TIP3    H274280   0.743   4.391  10.507 -0.5450 -2.1577 -0.8836
17597TIP3   OH274281   6.610   5.266  11.783 -0.0104 -0.3379  0.2939
17597TIP3    H174282   6.517   5.291  11.786  0.3971  1.2625  1.2794
17597TIP3    H274283   6.646   5.317  11.711  0.7298  1.6849  1.9928
17598TIP3   OH274284   0.349   4.695  14.391 -0.4101 -0.1372  0.3937
17598TIP3    H174285   0.317   4.630  14.453  0.0415 -1.8571 -1.0857
17598TIP3    H274286   0.302   4.775  14.414 -0.6386 -0.8121  2.5900
17599TIP3   OH274287   5.108   1.279  14.115  0.3388 -0.1828  0.0360
17599TIP3    H174288   5.140   1.357  14.069 -0.3975 -0.3207 -0.7475
17599TIP3    H274289   5.013   1.290  14.118  0.3530 -0.2554  1.4254
17600TIP3   OH274290   0.578   2.281  14.000 -0.0465  0.3898  0.1352
17600TIP3    H174291   0.528   2.320  13.928 -0.5023 -0.3991  0.0218
17600TIP3    H274292   0.634   2.215  13.959  1.9575  1.9881  0.0989
17601TIP3   OH274293   5.982   6.540   5.764 -0.8501  0.1911  0.1134
17601TIP3    H174294   6.050   6.536   5.831 -0.1142  1.7099 -0.4969
17601TIP3    H274295   6.018   6.490   5.690 -1.3222 -0.7960  0.5271
17602TIP3   OH274296   2.791   0.532   1.582  0.2100 -0.5802 -0.0776
17602TIP3    H174297   2.780   0.548   1.489 -0.4382  1.2186  0.2705
17602TIP3    H274298   2.703   0.533   1.618  0.5889  1.4324  0.9168
17603TIP3   OH274299   2.170   4.587  11.050  0.1078 -0.0439  0.2273
17603TIP3    H174300   2.184   4.659  10.988 -1.5923 -0.3867 -0.6136
17603TIP3    H274301   2.241   4.526  11.031 -0.9590 -0.6703 -2.2372
17604TIP3   OH274302   2.016   2.623  13.685 -0.2660 -0.4534  0.2132
17604TIP3    H174303   2.060   2.539  13.698 -0.8597 -1.0690 -1.4498
17604TIP3    H274304   2.066   2.664  13.614  0.4711  0.9659  1.4956
17605TIP3   OH274305   5.588   2.337  11.302  0.0430  0.5435  0.1520
17605TIP3    H174306   5.656   2.397  11.273  0.8212  0.1234  1.0467
17605TIP3    H274307   5.569   2.282  11.226  0.7998  0.5820 -0.0638
17606TIP3   OH274308   1.592   2.397  17.241 -0.0776 -0.1441  0.4227
17606TIP3    H174309   1.521   2.428  17.185 -0.6524  0.1008  1.2584
17606TIP3    H274310   1.627   2.321  17.196 -1.0170 -0.3974  0.0896
17607TIP3   OH274311   3.248   3.225   2.990 -0.3757  0.3768  0.4057
17607TIP3    H174312   3.218   3.240   3.080 -0.4457  0.4820  0.3642
17607TIP3    H274313   3.343   3.214   2.999 -0.6387 -2.1632  0.8291
17608TIP3   OH274314   0.635   0.790   3.691 -0.6049  0.1075 -0.4901
17608TIP3    H174315   0.665   0.763   3.604 -1.9035 -0.7265 -0.7150
17608TIP3    H274316   0.712   0.783   3.747 -0.1613 -1.0752 -1.2118
17609TIP3   OH274317   2.084   2.270  16.359 -0.2320  0.2141  0.2886
17609TIP3    H174318   2.135   2.302  16.432 -0.2273  2.2502 -0.5317
17609TIP3    H274319   1.994   2.298  16.378 -0.3923 -0.0768 -0.0185
17610TIP3   OH274320   4.960   3.076  12.754  0.4150 -0.5758  0.5593
17610TIP3    H174321   4.993   3.072  12.844 -1.1606 -0.9277  1.1450
17610TIP3    H274322   4.971   2.987  12.721  1.6932 -0.2793  0.1113
17611TIP3   OH274323   3.447   2.552   0.975  0.3278  0.1114  0.1713
17611TIP3    H174324   3.383   2.517   0.913  0.8909 -1.3986  0.3822
17611TIP3    H274325   3.417   2.640   0.994  0.3078  0.7733 -2.4978
17612TIP3   OH274326   3.377   1.988   5.857  0.3629 -0.0003  0.4162
17612TIP3    H174327   3.395   1.920   5.921  0.9371  1.5636  2.0056
17612TIP3    H274328   3.444   2.055   5.873 -0.1190  0.9177 -1.1357
17613TIP3   OH274329   2.519   1.938  14.566 -0.1907 -0.1088  0.6501
17613TIP3    H174330   2.529   1.860  14.619  0.6313 -0.5796 -0.1550
17613TIP3    H274331   2.451   1.989  14.610  0.1315 -0.6924  1.8651
17614TIP3   OH274332   3.642   6.541  15.399  0.1940 -0.2356 -0.5004
17614TIP3    H174333   3.572   6.493  15.355  0.4320 -0.8495 -0.2131
17614TIP3    H274334   3.704   6.474  15.426 -0.1818  0.0762  1.2245
17615TIP3   OH274335   0.424   4.691   2.204 -0.2922 -0.0517  0.4664
17615TIP3    H174336   0.512   4.721   2.227 -1.4029  2.4108  1.9367
17615TIP3    H274337   0.438   4.620   2.141  2.7158  0.2475  0.6709
17616TIP3   OH274338   0.294   1.543   4.993  0.4968 -1.1178  0.2598
17616TIP3    H174339   0.299   1.522   5.086  0.6024 -0.2003  0.4755
17616TIP3    H274340   0.227   1.485   4.958 -0.4817 -0.5711  1.1846
17617TIP3   OH274341   0.313   3.545   0.088 -0.7878 -0.0201  0.2260
17617TIP3    H174342   0.390   3.513   0.041 -0.7576  0.3577  0.0143
17617TIP3    H274343   0.298   3.480   0.157 -1.4257 -1.1137 -0.9071
17618TIP3   OH274344   1.932   5.953  10.733  0.5195 -0.4256 -0.2288
17618TIP3    H174345   2.024   5.930  10.728  1.1162  1.7860 -0.4523
17618TIP3    H274346   1.922   6.026  10.672 -1.7078 -1.5066 -1.2729
17619TIP3   OH274347   4.807   6.322   6.129 -0.0100  0.7293  0.2294
17619TIP3    H174348   4.782   6.235   6.158 -0.3482  0.9808  0.6938
17619TIP3    H274349   4.778   6.327   6.038 -1.5555  0.9729  0.7107
17620TIP3   OH274350   0.924   3.062   0.919 -0.2628  0.0425  0.1558
17620TIP3    H174351   0.994   3.064   0.984 -0.7005 -0.5405  0.6488
17620TIP3    H274352   0.850   3.107   0.961 -1.0459 -1.6628  0.6684
17621TIP3   OH274353   5.596   5.438   4.869 -0.1941 -0.2812 -0.3102
17621TIP3    H174354   5.671   5.381   4.885  0.1556  0.6297  1.5451
17621TIP3    H274355   5.590   5.444   4.774  1.9875 -0.5056 -0.4991
17622TIP3   OH274356   5.231   2.217   6.084  0.2088 -0.3670 -0.0135
17622TIP3    H174357   5.284   2.289   6.119 -1.1649 -0.2661  2.0365
17622TIP3    H274358   5.152   2.217   6.137 -1.4465 -1.1434 -2.3176
17623TIP3   OH274359   3.081   1.755  12.275 -0.3876 -0.1347 -0.1887
17623TIP3    H174360   2.995   1.713  12.283 -1.4110  1.4273 -2.1534
17623TIP3    H274361   3.118   1.719  12.195  0.2554  0.1436 -0.0227
17624TIP3   OH274362   2.124   0.660   1.270  0.3531 -0.1776 -0.9049
17624TIP3    H174363   2.120   0.733   1.332  0.2340 -0.3977 -0.6549
17624TIP3    H274364   2.054   0.601   1.297  1.5686 -1.2599  0.0028
17625TIP3   OH274365   5.865   1.581  14.832 -0.4688  0.3791 -0.4118
17625TIP3    H174366   5.850   1.566  14.738 -0.0658  3.1867 -1.0423
17625TIP3    H274367   5.955   1.614  14.836 -1.1172  2.1900  0.6360
17626TIP3   OH274368   1.161   4.370   1.635 -0.3276 -0.1585 -0.4891
17626TIP3    H174369   1.206   4.397   1.715 -0.8983 -0.1587 -0.1679
17626TIP3    H274370   1.145   4.452   1.588  1.2053 -0.2543 -1.2645
17627TIP3   OH274371   4.157   3.780   4.847  0.3839 -0.4174  0.3084
17627TIP3    H174372   4.228   3.841   4.865  0.0623  0.0093  0.1537
17627TIP3    H274373   4.194   3.720   4.782  0.6843 -0.3510  0.4146
17628TIP3   OH274374   3.874   4.205  11.493 -0.0638 -0.1241  0.0005
17628TIP3    H174375   3.914   4.287  11.524 -0.0273 -0.2933  0.4017
17628TIP3    H274376   3.827   4.231  11.414 -1.2033  0.5636  0.8794
17629TIP3   OH274377   5.476   6.625  16.723 -0.5422 -0.3440  0.1767
17629TIP3    H174378   5.514   6.710  16.748  1.6706 -0.8614 -1.1612
17629TIP3    H274379   5.397   6.648  16.675  0.4849  1.0675 -0.9399
17630TIP3   OH274380   5.060   5.971  16.695  0.0532 -0.2778 -0.1623
17630TIP3    H174381   5.142   5.948  16.738  0.0984 -0.8111 -0.5247
17630TIP3    H274382   4.997   5.905  16.726 -0.1218 -0.1560 -0.2535
17631TIP3   OH274383   5.758   4.465  14.981 -0.1634  0.3254 -0.0073
17631TIP3    H174384   5.738   4.424  14.897 -0.8871  1.5593 -0.4738
17631TIP3    H274385   5.674   4.502  15.009  0.7507  3.0577 -0.5361
17632TIP3   OH274386   0.195   0.899   5.015  0.4924  0.2738 -1.1580
17632TIP3    H174387   0.194   0.994   5.029  2.0063  0.4069 -1.7080
17632TIP3    H274388   0.255   0.887   4.941  1.2674 -1.1929 -0.3424
17633TIP3   OH274389   3.266   1.913   2.854 -0.2537  0.1880 -0.1226
17633TIP3    H174390   3.352   1.955   2.866 -1.4083  3.0959 -1.1708
17633TIP3    H274391   3.214   1.942   2.928 -0.3407 -1.7291  0.6173
17634TIP3   OH274392   1.851   4.192  12.372 -0.0791 -0.5305 -0.2888
17634TIP3    H174393   1.804   4.111  12.352 -0.6410 -0.4476  0.6425
17634TIP3    H274394   1.900   4.172  12.452 -0.5944  0.1799  0.2145
17635TIP3   OH274395   0.740   1.714  16.743  0.1838 -0.2030 -0.1521
17635TIP3    H174396   0.716   1.630  16.780 -1.6114 -0.0845 -0.9632
17635TIP3    H274397   0.777   1.693  16.657 -1.4263 -0.1247 -0.8923
17636TIP3   OH274398   1.040   1.159  14.761  0.6636 -0.0574 -0.1724
17636TIP3    H174399   1.123   1.151  14.808  0.7116  0.3643 -0.1816
17636TIP3    H274400   1.037   1.251  14.734  1.0128 -0.4787 -1.6982
17637TIP3   OH274401   2.675   1.230   5.192 -0.2291  0.0729 -0.1133
17637TIP3    H174402   2.653   1.232   5.099  0.5452  0.8318 -0.2871
17637TIP3    H274403   2.673   1.321   5.220  3.2203  0.3356 -0.3033
17638TIP3   OH274404   0.006   3.198  16.232 -0.0931  0.1943  0.2187
17638TIP3    H174405   0.091   3.220  16.269 -0.3418  0.3101  0.7357
17638TIP3    H274406  -0.056   3.215  16.303 -0.6865  1.2601 -0.5404
17639TIP3   OH274407   1.867   3.259  14.690 -0.3056 -0.0230 -0.0032
17639TIP3    H174408   1.949   3.236  14.734  0.4808  1.2604 -0.7422
17639TIP3    H274409   1.880   3.348  14.659 -1.3228 -0.4177 -1.7063
17640TIP3   OH274410   1.762   6.474  14.049 -0.1709 -0.1053  0.0783
17640TIP3    H174411   1.828   6.456  13.983  0.2909  0.1835  0.4537
17640TIP3    H274412   1.712   6.548  14.013  0.3432  0.3262  0.2296
17641TIP3   OH274413   4.094   5.633   5.485  0.1652  0.3873 -0.2740
17641TIP3    H174414   4.029   5.640   5.556 -0.9677 -1.8156 -1.0033
17641TIP3    H274415   4.074   5.549   5.443  2.6602  0.2863 -1.3956
17642TIP3   OH274416   2.342   3.358  13.599  0.2286  0.2822  0.4819
17642TIP3    H174417   2.287   3.283  13.579  0.8356 -0.7218  2.2925
17642TIP3    H274418   2.321   3.423  13.532 -0.2831 -1.5065 -1.1674
17643TIP3   OH274419   0.931   4.635   5.692  0.0877 -0.3880 -0.3955
17643TIP3    H174420   1.011   4.639   5.640  1.3682 -2.9318  1.1632
17643TIP3    H274421   0.954   4.674   5.776  0.0908 -2.1394  0.4537
17644TIP3   OH274422   1.377   4.925   5.387 -0.5175 -0.3275 -0.5071
17644TIP3    H174423   1.285   4.926   5.360 -1.0938 -0.9909  1.2753
17644TIP3    H274424   1.382   4.857   5.454  1.3358 -0.4582 -0.7135
17645TIP3   OH274425   0.705   2.964   3.402  0.3936 -0.8911  0.6356
17645TIP3    H174426   0.698   2.893   3.338  0.9153  0.2992 -0.8022
17645TIP3    H274427   0.674   3.042   3.355 -0.5436 -0.2074  2.2886
17646TIP3   OH274428   1.706   2.661  14.406 -0.0136 -0.2140 -0.7536
17646TIP3    H174429   1.694   2.641  14.313 -1.4628 -2.8603 -0.1149
17646TIP3    H274430   1.617   2.675  14.439  0.3943 -0.2662  0.4279
17647TIP3   OH274431   2.802   1.306   2.241 -0.2884  0.1382 -0.0037
17647TIP3    H174432   2.855   1.228   2.226 -0.6169 -0.1832  0.4724
17647TIP3    H274433   2.772   1.297   2.332  0.6662  1.4230  0.4674
17648TIP3   OH274434   0.372   1.640  14.695  0.3855  0.0453  0.2420
17648TIP3    H174435   0.426   1.640  14.615  1.3331  2.1453  0.8244
17648TIP3    H274436   0.431   1.672  14.764 -1.2663  1.3344  1.1249
17649TIP3   OH274437   3.532   0.910   5.006 -0.3041 -0.0891  0.0770
17649TIP3    H174438   3.451   0.926   4.957  1.0718  0.0847 -2.2680
17649TIP3    H274439   3.523   0.820   5.038 -1.4619 -0.0218  0.0007
17650TIP3   OH274440   3.486   6.692  13.108 -0.1146  0.5248 -0.2791
17650TIP3    H174441   3.551   6.627  13.136 -0.8755 -0.0400  0.2134
17650TIP3    H274442   3.402   6.650  13.123 -0.6753  2.0534  1.0834
17651TIP3   OH274443   0.476   0.407   4.600  0.1002  1.2056  0.3960
17651TIP3    H174444   0.421   0.473   4.558 -0.4896  1.1153  1.0130
17651TIP3    H274445   0.430   0.324   4.584  0.9260  0.8999 -0.5330
17652TIP3   OH274446   4.917   3.469  16.886  0.1080  0.3995  0.3947
17652TIP3    H174447   4.966   3.516  16.953  0.5043  1.5155 -0.6373
17652TIP3    H274448   4.911   3.531  16.813 -2.1278  0.0114  0.1748
17653TIP3   OH274449   2.563   2.921  15.341  0.5019  0.2392 -0.2653
17653TIP3    H174450   2.621   2.845  15.338 -0.1086 -0.2527  0.1640
17653TIP3    H274451   2.590   2.968  15.420 -0.0371 -0.2894  0.2468
17654TIP3   OH274452   3.297   2.948   1.746  0.0010  0.2667  0.4220
17654TIP3    H174453   3.304   2.889   1.820  0.3086  0.8331  0.8528
17654TIP3    H274454   3.325   3.033   1.780  0.4122  0.4789 -0.4079
17655TIP3   OH274455   3.455   6.788  12.161  0.3648  0.1947  0.1292
17655TIP3    H174456   3.426   6.697  12.150 -3.1937  1.3225 -1.0383
17655TIP3    H274457   3.416   6.816  12.243 -0.5290  1.2904 -0.6391
17656TIP3   OH274458   5.688   4.097  12.731 -0.1001  0.1088 -0.2445
17656TIP3    H174459   5.679   4.092  12.826 -1.7660 -0.7565 -0.4147
17656TIP3    H274460   5.748   4.025  12.710 -2.8389 -2.4053 -0.1343
17657TIP3   OH274461   5.846   6.786   4.335 -0.2168 -0.4585  0.0024
17657TIP3    H174462   5.760   6.767   4.373 -1.8419  2.0677 -2.0233
17657TIP3    H274463   5.905   6.788   4.410 -2.3011 -0.3138  1.7652
17658TIP3   OH274464   5.754   6.006   0.577  0.4394  0.4994 -0.1722
17658TIP3    H174465   5.715   6.063   0.643  0.1430  1.4129 -1.1034
17658TIP3    H274466   5.832   5.971   0.618  0.0823  0.7836  0.7797
17659TIP3   OH274467   2.706   3.455  16.244  0.2866 -0.6202 -0.3815
17659TIP3    H174468   2.762   3.385  16.277 -1.0769 -2.0713 -1.0584
17659TIP3    H274469   2.644   3.471  16.315  0.1990 -0.5249 -0.4812
17660TIP3   OH274470   1.733   1.402  14.723 -0.5197  0.8210 -0.5069
17660TIP3    H174471   1.711   1.481  14.772  0.6625  0.0659  1.3843
17660TIP3    H274472   1.799   1.429  14.660  0.0193  1.3204  0.2632
17661TIP3   OH274473   0.886   3.976   3.530 -0.3305  0.5215  0.2104
17661TIP3    H174474   0.858   3.916   3.460  2.5257 -0.7102 -0.0318
17661TIP3    H274475   0.899   3.918   3.606  0.8783  1.0912  0.4521
17662TIP3   OH274476   6.644   3.152  15.454 -0.1012 -0.0989 -0.5344
17662TIP3    H174477   6.582   3.178  15.522 -0.7209 -2.2930 -0.1735
17662TIP3    H274478   6.672   3.235  15.415 -1.0239  1.1373  1.2271
17663TIP3   OH274479   1.331   4.022   4.444  0.0701  0.0045 -0.4828
17663TIP3    H174480   1.250   4.035   4.492 -0.5936  0.1211 -1.6145
17663TIP3    H274481   1.398   4.062   4.499 -0.6593  0.1169  0.3496
17664TIP3   OH274482   5.125   0.525  16.257  0.4649  0.2682 -0.9484
17664TIP3    H174483   5.177   0.599  16.289  1.2757 -1.1596  1.2803
17664TIP3    H274484   5.038   0.562  16.242  0.6101  1.5455  0.9484
17665TIP3   OH274485   6.061   5.141   1.504 -0.3488  0.1945 -0.2492
17665TIP3    H174486   6.024   5.228   1.485  0.4321  0.7921  0.8818
17665TIP3    H274487   6.030   5.121   1.592  1.3064  0.3399  0.3982
17666TIP3   OH274488   0.495   2.430  13.764  0.2741 -0.1196  0.0445
17666TIP3    H174489   0.421   2.488  13.745  0.0795 -0.8125 -1.5174
17666TIP3    H274490   0.558   2.449  13.694  0.9656 -0.5419  0.5396
17667TIP3   OH274491   6.696   1.201   6.191 -0.2746 -0.2249 -0.0054
17667TIP3    H174492   6.696   1.187   6.286 -1.9062 -0.1048  0.0345
17667TIP3    H274493   6.704   1.295   6.180 -3.0480  0.1184  0.1575
17668TIP3   OH274494   1.387   6.715  15.443 -0.0841  0.0659 -0.0365
17668TIP3    H174495   1.393   6.717  15.347  1.4457  0.6299  0.0398
17668TIP3    H274496   1.476   6.695  15.472 -0.6615 -0.7347  1.2703
17669TIP3   OH274497   0.337   5.116   6.242  0.1585  0.2180  0.4182
17669TIP3    H174498   0.412   5.159   6.283  0.4081  1.1850 -0.9873
17669TIP3    H274499   0.277   5.098   6.315  2.0250 -1.2527  1.6790
17670TIP3   OH274500   2.004   2.522   4.435 -0.3234  0.2703 -0.3388
17670TIP3    H174501   2.032   2.447   4.383  0.1272  1.9079 -2.6044
17670TIP3    H274502   2.070   2.529   4.504  0.3771 -0.6124 -0.8942
17671TIP3   OH274503   2.349   4.686   4.706  0.2101  0.1931  0.1887
17671TIP3    H174504   2.400   4.683   4.787 -1.2653  0.7154  1.1785
17671TIP3    H274505   2.373   4.769   4.665  0.4365  0.2533  0.4424
17672TIP3   OH274506   1.821   0.074  15.421 -0.0294  0.5721  0.4076
17672TIP3    H174507   1.774   0.089  15.339  1.9711  0.4035 -0.8341
17672TIP3    H274508   1.831   0.161  15.459  2.7106  1.3476 -1.7253
17673TIP3   OH274509   3.969   1.112  12.323  0.4150  0.0199  0.2168
17673TIP3    H174510   3.984   1.088  12.414 -0.9445 -0.9438  0.2111
17673TIP3    H274511   4.040   1.174  12.302  1.9321 -1.2601  1.3182
17674TIP3   OH274512   6.333   5.999   1.912  0.2319  0.0473  0.0727
17674TIP3    H174513   6.429   5.998   1.914  0.2397 -0.0681 -0.2679
17674TIP3    H274514   6.309   6.081   1.956  0.4680 -0.2265  0.7241
17675TIP3   OH274515   3.644   2.141  16.421  0.8323 -1.1782 -0.3745
17675TIP3    H174516   3.698   2.220  16.432  0.5827 -1.1708  1.0448
17675TIP3    H274517   3.674   2.082  16.490  0.4759 -2.0191 -0.9273
17676TIP3   OH274518   5.747   1.285  13.263  0.7849  0.3877  0.2558
17676TIP3    H174519   5.756   1.302  13.169  0.8065  1.4999  0.4437
17676TIP3    H274520   5.671   1.228  13.269  0.5298  0.6349 -0.4134
17677TIP3   OH274521   3.586   4.203   3.764  0.2836  0.3868 -0.2503
17677TIP3    H174522   3.507   4.253   3.746  0.1980  0.2507 -0.2520
17677TIP3    H274523   3.555   4.120   3.798  0.4257  0.3330 -0.2510
17678TIP3   OH274524   2.934   4.308   0.981  0.1146  0.0834  0.5615
17678TIP3    H174525   3.019   4.310   1.024 -0.3500  0.7328  1.4933
17678TIP3    H274526   2.877   4.358   1.039 -1.0734 -0.9508  0.3401
17679TIP3   OH274527   2.908   6.086   1.168  0.0069  0.2927  0.4995
17679TIP3    H174528   2.923   5.993   1.152  0.9916  0.4113  0.6657
17679TIP3    H274529   2.830   6.089   1.222 -1.2850 -0.3060 -1.2436
17680TIP3   OH274530   4.341   6.068  12.918 -0.0394 -0.1015  0.1456
17680TIP3    H174531   4.336   6.023  13.003  0.6242  0.1884  0.3400
17680TIP3    H274532   4.401   6.015  12.866 -0.6148 -0.4009 -0.2281
17681TIP3   OH274533   6.679   0.697  11.644  0.0492 -0.4052 -0.3403
17681TIP3    H174534   6.742   0.639  11.600  0.7221 -0.0506  0.1362
17681TIP3    H274535   6.596   0.681  11.599  0.3999 -1.1482 -0.7425
17682TIP3   OH274536   5.983   1.860   3.364  0.0122 -0.1987 -0.4209
17682TIP3    H174537   5.952   1.795   3.301 -1.1960 -2.7217  2.5320
17682TIP3    H274538   6.066   1.824   3.397 -1.1126 -0.8353  1.8944
17683TIP3   OH274539   5.079   0.658   4.173 -0.5388  0.3869  0.1775
17683TIP3    H174540   5.080   0.747   4.209  1.5667  0.6855 -0.5018
17683TIP3    H274541   5.168   0.626   4.184 -0.2516 -0.2310 -2.9179
17684TIP3   OH274542   1.089   4.899   4.243  0.4981  0.0109  0.3714
17684TIP3    H174543   1.107   4.896   4.337  2.4038  0.5694  0.0808
17684TIP3    H274544   1.030   4.974   4.233 -0.8226 -0.8684  1.2307
17685TIP3   OH274545   5.109   2.673  13.747 -0.5431  0.1847  0.0318
17685TIP3    H174546   5.127   2.579  13.747 -3.4665 -0.4783 -1.9929
17685TIP3    H274547   5.114   2.699  13.655 -1.3498  1.6727  0.3823
17686TIP3   OH274548   3.155   3.171  13.826  0.5591  0.1222  0.1653
17686TIP3    H174549   3.212   3.108  13.871  0.8037  0.6552  0.6158
17686TIP3    H274550   3.071   3.163  13.870  0.4716 -0.1973 -0.0620
17687TIP3   OH274551   4.947   3.129  13.912 -0.1809 -0.4155  0.0247
17687TIP3    H174552   4.949   3.145  14.007 -0.9924 -0.9200  0.1362
17687TIP3    H274553   4.855   3.113  13.892  0.1510 -1.6441 -0.6196
17688TIP3   OH274554   1.886   4.734  16.061  0.0149 -0.3822 -0.0822
17688TIP3    H174555   1.969   4.773  16.035  0.6717 -2.0291 -0.6115
17688TIP3    H274556   1.820   4.801  16.040  1.0931  0.5232 -0.6896
17689TIP3   OH274557   5.983   3.191  17.261 -1.0532  0.2343 -0.0914
17689TIP3    H174558   5.972   3.118  17.200  1.6252  1.1227 -1.8467
17689TIP3    H274559   6.048   3.160  17.324  0.5128  1.1637 -1.1658
17690TIP3   OH274560   1.524   0.108   3.237  0.2050  0.3309  0.2633
17690TIP3    H174561   1.481   0.134   3.318  0.6199 -0.0678  0.6166
17690TIP3    H274562   1.612   0.081   3.264 -0.5842 -2.6852  0.1008
17691TIP3   OH274563   2.350   5.584  14.521 -0.7591  0.7135  0.5173
17691TIP3    H174564   2.302   5.505  14.498 -2.4824  1.4718  1.2803
17691TIP3    H274565   2.412   5.556  14.589  1.3704 -0.6644 -1.7999
17692TIP3   OH274566   1.146   4.071   2.624 -0.2728 -0.0279 -0.2065
17692TIP3    H174567   1.212   4.126   2.668  0.0158 -0.0434 -0.6133
17692TIP3    H274568   1.197   4.000   2.585 -0.5216 -0.0039 -0.5787
17693TIP3   OH274569   1.703   4.027  12.657  0.1013  0.6877 -0.3625
17693TIP3    H174570   1.720   4.052  12.747 -0.2199  0.0356 -0.1130
17693TIP3    H274571   1.789   4.001  12.623  0.1285  0.3652 -0.0571
17694TIP3   OH274572   1.700   6.370   5.036 -0.1560  0.2295  0.1804
17694TIP3    H174573   1.662   6.454   5.063  0.1321 -0.3892  2.7574
17694TIP3    H274574   1.663   6.306   5.097  1.0793 -1.2231 -0.5317
17695TIP3   OH274575   0.669   4.308  16.499  0.2541 -0.2249 -0.6171
17695TIP3    H174576   0.661   4.264  16.414 -1.0512 -0.6467 -0.2974
17695TIP3    H274577   0.592   4.280  16.548 -0.1127  1.6640 -0.0293
17696TIP3   OH274578   3.957   5.018   4.248 -0.1641  0.8502  0.1177
17696TIP3    H174579   3.875   5.030   4.296 -0.0607  1.4082  0.1662
17696TIP3    H274580   3.944   4.939   4.196 -1.1457  1.5352 -0.7165
17697TIP3   OH274581   0.969   5.217   4.255 -0.5156 -0.4112  0.2577
17697TIP3    H174582   1.003   5.217   4.345  0.3477  1.0639 -0.0455
17697TIP3    H274583   1.017   5.287   4.211 -1.9232 -0.1965 -0.9905
17698TIP3   OH274584   0.824   6.344   0.606  0.0152 -0.0931  0.0025
17698TIP3    H174585   0.853   6.378   0.521  1.3769 -0.3902  0.3274
17698TIP3    H274586   0.905   6.326   0.654 -0.7075  1.5101  1.9639
17699TIP3   OH274587   2.566   3.056   2.154  0.6492  0.1002  0.0135
17699TIP3    H174588   2.653   3.028   2.183  0.2572  0.5154  1.7262
17699TIP3    H274589   2.506   2.995   2.196  0.1157 -0.6237 -1.7232
17700TIP3   OH274590   6.409   0.206  16.031  0.3643 -0.5713 -0.2611
17700TIP3    H174591   6.433   0.114  16.042  1.1953 -0.1759  1.6934
17700TIP3    H274592   6.487   0.248  15.995 -0.2642 -0.7232 -1.8891
17701TIP3   OH274593   3.667   2.245   3.673  0.2310 -0.4064 -0.4597
17701TIP3    H174594   3.697   2.323   3.627  1.9288 -0.5010  0.4178
17701TIP3    H274595   3.596   2.276   3.729  0.2960  0.3315 -0.7758
17702TIP3   OH274596   2.647   1.967   2.839 -0.0306  0.7679  0.8207
17702TIP3    H174597   2.661   2.062   2.835 -0.9544  0.8813 -1.4230
17702TIP3    H274598   2.668   1.936   2.751  0.7803 -1.2403  1.6433
17703TIP3   OH274599   6.472   0.311   0.712 -0.1168  0.9248 -0.1735
17703TIP3    H174600   6.468   0.291   0.619 -0.3112  0.1936 -0.0158
17703TIP3    H274601   6.488   0.226   0.754 -2.2859  0.8346  0.6280
17704TIP3   OH274602   4.900   2.950   3.679  0.0780 -0.5760 -0.1886
17704TIP3    H174603   4.813   2.944   3.639  1.0094 -0.9078 -2.3089
17704TIP3    H274604   4.883   2.974   3.770 -2.1786  0.4516 -0.8112
17705TIP3   OH274605   3.591   4.777   4.427  0.6484 -0.2807 -0.5617
17705TIP3    H174606   3.549   4.832   4.361  0.2443  1.5886  1.1664
17705TIP3    H274607   3.537   4.698   4.431 -0.8196  0.6809 -0.6738
17706TIP3   OH274608   6.238   6.293   2.627 -0.3329 -0.7416 -0.1364
17706TIP3    H174609   6.257   6.208   2.587 -0.1074 -0.8781  0.2597
17706TIP3    H274610   6.145   6.290   2.648 -0.5247 -0.5523 -0.9249
17707TIP3   OH274611   5.204   5.542  11.973 -0.1079 -0.1362 -0.0943
17707TIP3    H174612   5.194   5.472  12.036 -2.6964  0.6280  0.4615
17707TIP3    H274613   5.172   5.506  11.890  0.5003 -0.2255 -0.2966
17708TIP3   OH274614   0.129   4.016   5.326 -0.2321  0.3390  0.2902
17708TIP3    H174615   0.046   3.984   5.291  0.9169 -1.1215 -1.2755
17708TIP3    H274616   0.184   4.028   5.249  1.0153  1.3641  1.2913
17709TIP3   OH274617   0.329   5.721   1.953 -0.4939 -0.1579  0.0437
17709TIP3    H174618   0.265   5.655   1.926  1.0151 -2.0416  0.8162
17709TIP3    H274619   0.378   5.741   1.874  2.3169 -3.8409  0.5974
17710TIP3   OH274620   5.336   5.169   1.500 -0.6223  0.4763 -0.2663
17710TIP3    H174621   5.343   5.184   1.594  2.8473 -0.1448 -0.2865
17710TIP3    H274622   5.369   5.249   1.460 -0.5896  0.1525 -0.9074
17711TIP3   OH274623   2.625   0.914   0.252  0.1588 -0.4333 -0.5631
17711TIP3    H174624   2.538   0.892   0.286 -0.2642  0.4254 -1.0375
17711TIP3    H274625   2.635   1.007   0.273  0.3364 -0.1504 -1.8263
17712TIP3   OH274626   5.474   5.796   5.054  0.0935 -0.2475 -0.2507
17712TIP3    H174627   5.434   5.874   5.016  0.4317 -0.1007 -0.3058
17712TIP3    H274628   5.503   5.824   5.141  0.2185 -0.3116 -0.2718
17713TIP3   OH274629   0.447   4.396   6.652  0.1657 -0.3641 -0.7454
17713TIP3    H174630   0.468   4.484   6.622 -2.7903 -0.3553 -3.3037
17713TIP3    H274631   0.383   4.410   6.722 -0.9172 -0.4056 -1.6927
17714TIP3   OH274632   1.512   5.196   2.213  0.1113  0.2842 -0.8290
17714TIP3    H174633   1.598   5.154   2.211 -1.0125 -2.6375  2.5883
17714TIP3    H274634   1.525   5.276   2.265  0.5552 -0.9966  1.1218
17715TIP3   OH274635   3.151   0.150  11.483  0.2646 -0.0562  0.0876
17715TIP3    H174636   3.088   0.078  11.474 -0.8065  0.8405  0.1514
17715TIP3    H274637   3.235   0.107  11.494 -0.1782 -1.2958 -1.0786
17716TIP3   OH274638   6.365   5.648  11.164  0.0685 -0.6831 -0.0076
17716TIP3    H174639   6.335   5.693  11.086 -1.3009 -0.0225  0.8687
17716TIP3    H274640   6.309   5.681  11.234  2.1640 -0.1874  1.5335
17717TIP3   OH274641   3.685   3.550  16.578 -0.3831 -0.5268 -0.6352
17717TIP3    H174642   3.665   3.506  16.660 -1.7279 -0.7921 -1.0881
17717TIP3    H274643   3.775   3.583  16.590 -0.3718 -0.9912  0.7318
17718TIP3   OH274644   4.142   1.583   5.775  0.5907  0.1658  0.1946
17718TIP3    H174645   4.198   1.538   5.838 -0.8957 -2.0870  0.0256
17718TIP3    H274646   4.105   1.656   5.825  2.1385  0.5510  0.8441
17719TIP3   OH274647   6.567   2.539   3.809  0.1388  0.0040 -0.1789
17719TIP3    H174648   6.645   2.589   3.833  1.1886 -1.4666 -0.3471
17719TIP3    H274649   6.579   2.519   3.716 -1.7526  1.9663 -0.9063
17720TIP3   OH274650   6.622   6.433   1.323  0.1608  0.4100  0.0578
17720TIP3    H174651   6.554   6.366   1.327  1.8725 -1.3578  1.6466
17720TIP3    H274652   6.574   6.515   1.306 -2.1795 -0.9326 -0.2087
17721TIP3   OH274653   4.401   5.741  14.924 -0.6835 -0.0973  0.1020
17721TIP3    H174654   4.435   5.775  14.841 -0.9463 -0.0297  0.0224
17721TIP3    H274655   4.455   5.783  14.991 -0.3355 -0.3084 -0.0438
17722TIP3   OH274656   1.461   0.619   5.348 -0.4163 -0.5900 -0.2840
17722TIP3    H174657   1.431   0.693   5.400 -0.1736 -1.0567  0.5254
17722TIP3    H274658   1.388   0.601   5.288 -1.3249 -1.0005  0.9048
17723TIP3   OH274659   5.769   5.843  14.705  0.7080 -0.9195  0.4167
17723TIP3    H174660   5.837   5.851  14.637  1.0008  0.2886  0.8368
17723TIP3    H274661   5.817   5.816  14.783  0.8254  0.5287  0.8716
17724TIP3   OH274662   1.835   3.215  13.431  0.0269 -0.0285 -0.3227
17724TIP3    H174663   1.910   3.217  13.491  0.0722  0.6348 -0.4029
17724TIP3    H274664   1.766   3.263  13.478 -0.7261 -1.5833  0.2430
17725TIP3   OH274665   4.309   2.529  15.706  0.2285 -0.0609 -0.4093
17725TIP3    H174666   4.347   2.569  15.627  1.8655 -0.1128  0.3199
17725TIP3    H274667   4.376   2.468  15.737 -0.0810  0.4973  1.4465
17726TIP3   OH274668   0.931   5.693  16.308 -0.3678  0.1546 -0.0363
17726TIP3    H174669   0.901   5.765  16.254 -2.0711 -1.4217 -1.3066
17726TIP3    H274670   0.858   5.675  16.367 -0.1503 -0.8044 -0.0414
17727TIP3   OH274671   6.344   2.967  12.151 -0.2620  0.0583 -0.1456
17727TIP3    H174672   6.335   3.062  12.157  0.6305  0.2309 -1.2177
17727TIP3    H274673   6.270   2.939  12.098 -0.3391  0.1988 -0.1115
17728TIP3   OH274674   1.182   0.559   4.489  0.4023  0.1984  0.0418
17728TIP3    H174675   1.252   0.500   4.461  0.4279 -0.6810  1.8221
17728TIP3    H274676   1.107   0.535   4.435  0.8587 -0.3662 -0.3604
17729TIP3   OH274677   6.356   0.521   2.311  0.6272 -0.3927  0.0666
17729TIP3    H174678   6.389   0.481   2.391 -0.2955 -0.5595  0.3765
17729TIP3    H274679   6.289   0.460   2.279 -1.4242  1.2571  1.0181
17730TIP3   OH274680   1.345   3.222  16.833  0.8495  0.3574 -0.0262
17730TIP3    H174681   1.261   3.242  16.874  1.3032 -1.2176  1.7864
17730TIP3    H274682   1.383   3.308  16.814 -0.3881  1.1079  0.7397
17731TIP3   OH274683   4.758   1.488  12.116  0.7812  0.2791 -0.1205
17731TIP3    H174684   4.841   1.510  12.157  1.8599 -2.9027 -0.3139
17731TIP3    H274685   4.779   1.473  12.024 -0.3990  1.2319 -0.5751
17732TIP3   OH274686   5.775   4.606  15.655  0.1714 -0.2486  0.6977
17732TIP3    H174687   5.824   4.548  15.713 -2.3049 -4.2888 -0.7804
17732TIP3    H274688   5.762   4.554  15.576 -2.8262  2.1418 -0.5651
17733TIP3   OH274689   0.515   4.227   5.294  0.6244 -0.0161 -0.1819
17733TIP3    H174690   0.609   4.243   5.282  0.8687 -0.2341  1.2713
17733TIP3    H274691   0.498   4.147   5.244  1.6485 -1.0807  1.1168
17734TIP3   OH274692   0.775   3.390  12.080 -0.6034  0.2243  0.4962
17734TIP3    H174693   0.734   3.399  11.994  0.0260  0.9182  0.2546
17734TIP3    H274694   0.768   3.477  12.119 -1.6289 -0.2869  1.5076
17735TIP3   OH274695   6.187   4.648  16.252  0.3670 -0.0596 -0.1369
17735TIP3    H174696   6.195   4.691  16.338 -0.3778 -0.5175  0.1704
17735TIP3    H274697   6.175   4.556  16.272  0.6980 -0.2442 -0.7596
17736TIP3   OH274698   3.902   0.140  15.091 -0.5028 -0.0432  0.1948
17736TIP3    H174699   3.831   0.184  15.043 -0.8291 -0.5213  0.2333
17736TIP3    H274700   3.977   0.199  15.083 -0.4481 -0.2604 -1.1932
17737TIP3   OH274701   1.822   6.288  13.721 -0.1028 -0.5299  0.1143
17737TIP3    H174702   1.890   6.293  13.788  0.3678  0.6135 -0.4003
17737TIP3    H274703   1.740   6.305  13.767  0.1715 -0.1671  0.4767
17738TIP3   OH274704   5.665   5.724   4.299  0.0408  0.8526 -0.2808
17738TIP3    H174705   5.572   5.726   4.319  0.4355  0.0916  1.9077
17738TIP3    H274706   5.675   5.650   4.239 -0.5113 -0.3987  1.1267
17739TIP3   OH274707   0.140   3.120   3.285  0.2354 -0.3074  0.3311
17739TIP3    H174708   0.124   3.090   3.375  0.2683 -0.1722  0.3820
17739TIP3    H274709   0.110   3.047   3.230  1.4476 -0.9387  0.4819
17740TIP3   OH274710   2.247   1.574   4.449  0.2998 -0.6182  0.3108
17740TIP3    H174711   2.190   1.597   4.522  1.5371 -0.7182  1.3363
17740TIP3    H274712   2.301   1.651   4.435  1.5695 -1.3459  0.9820
17741TIP3   OH274713   0.524   5.341   5.580  0.4383 -0.0375 -0.0075
17741TIP3    H174714   0.507   5.314   5.490 -1.9141  0.7704  0.1410
17741TIP3    H274715   0.597   5.403   5.574  1.0852 -0.8834 -1.1844
17742TIP3   OH274716   3.255   6.527  17.151  0.0734 -0.6329  0.0164
17742TIP3    H174717   3.276   6.613  17.188 -1.6410 -0.4933  0.7568
17742TIP3    H274718   3.326   6.510  17.089  0.9063  0.9243  0.4809
17743TIP3   OH274719   6.636   5.352   3.345 -0.3235  0.1660  0.2399
17743TIP3    H174720   6.612   5.270   3.388  0.1683  1.1563  2.5740
17743TIP3    H274721   6.561   5.410   3.359 -0.5487  0.2484 -1.1359
17744TIP3   OH274722   6.804   5.265   4.885  0.4874 -0.8401  0.7074
17744TIP3    H174723   6.883   5.243   4.934  1.0071 -0.2343  0.1498
17744TIP3    H274724   6.811   5.359   4.870 -0.4323 -0.7499  0.8089
17745TIP3   OH274725   6.239   2.160  12.986  0.5170 -0.1148  0.6973
17745TIP3    H174726   6.308   2.224  12.969 -0.8468  1.5730  1.2608
17745TIP3    H274727   6.278   2.097  13.046  1.9291  0.0914  0.0259
17746TIP3   OH274728   4.831   4.296   5.913  0.2664  0.0692 -0.6549
17746TIP3    H174729   4.760   4.314   5.851  0.8697  0.2507 -1.3059
17746TIP3    H274730   4.805   4.342   5.993 -0.1435  0.4924 -1.0245
17747TIP3   OH274731   1.084   4.680  16.987 -0.3141 -0.0263 -0.1034
17747TIP3    H174732   1.102   4.772  16.971 -4.5039  1.1247  0.5011
17747TIP3    H274733   1.077   4.641  16.900  1.9030  0.0078 -0.3611
17748TIP3   OH274734   0.065   4.276   6.612  0.6453  0.4077 -0.7074
17748TIP3    H174735   0.000   4.336   6.575 -0.2182  0.1923  0.3809
17748TIP3    H274736   0.043   4.272   6.706  1.9560 -0.0325 -0.3975
17749TIP3   OH274737   1.925   6.034  12.523 -0.1691  0.1599 -0.3976
17749TIP3    H174738   1.981   6.053  12.447  1.8283 -1.2643  0.6074
17749TIP3    H274739   1.933   6.112  12.578  2.6456 -0.7467  0.6766
17750TIP3   OH274740   5.013   5.613   5.172 -0.0621  0.3279 -0.1375
17750TIP3    H174741   5.032   5.639   5.082 -2.1238 -1.0958 -1.0592
17750TIP3    H274742   4.975   5.691   5.212 -0.3579  0.5774 -0.8986
17751TIP3   OH274743   0.914   3.549   3.220 -0.2588 -1.0387 -0.4623
17751TIP3    H174744   0.838   3.536   3.276  0.3530 -1.4831  0.2781
17751TIP3    H274745   0.921   3.644   3.210  0.3722 -0.8796  1.2656
17752TIP3   OH274746   1.513   0.714   5.691 -0.1511 -0.2220  0.3554
17752TIP3    H174747   1.428   0.758   5.696 -0.4542 -0.6912 -0.4529
17752TIP3    H274748   1.568   0.761   5.754 -1.0304  0.0298  0.9635
17753TIP3   OH274749   0.845   0.696  13.563 -0.0467 -0.0251 -0.3097
17753TIP3    H174750   0.760   0.652  13.566  0.3693 -0.8447 -0.1732
17753TIP3    H274751   0.824   0.788  13.548 -0.9427 -0.2615 -0.5668
17754TIP3   OH274752   6.641   6.661  16.760 -0.3219 -0.3357 -0.0874
17754TIP3    H174753   6.577   6.643  16.829  2.9260 -2.7266  2.6239
17754TIP3    H274754   6.669   6.751  16.777 -1.1337 -0.1401  0.2788
17755TIP3   OH274755   2.424   0.268   0.849 -0.1608  0.0328 -0.0099
17755TIP3    H174756   2.462   0.327   0.784 -1.3002  0.2642 -0.4951
17755TIP3    H274757   2.498   0.220   0.884  0.5120  0.1011 -1.2888
17756TIP3   OH274758   2.115   3.441   0.733  0.1407 -0.0127  0.2154
17756TIP3    H174759   2.209   3.421   0.739  0.0748 -0.2979  0.2724
17756TIP3    H274760   2.113   3.528   0.692  0.4491  0.2372  0.7174
17757TIP3   OH274761   0.933   3.689  15.163  0.5912  0.6198  0.3145
17757TIP3    H174762   0.875   3.721  15.094  2.7184  0.0137 -1.9017
17757TIP3    H274763   0.970   3.768  15.201  1.1444  0.9640 -0.8839
17758TIP3   OH274764   4.461   4.395   1.468  0.6435  0.0006 -0.1658
17758TIP3    H174765   4.396   4.444   1.518 -0.0492 -1.1077  0.0373
17758TIP3    H274766   4.541   4.448   1.474  0.1748  0.6174  0.8627
17759TIP3   OH274767   4.787   6.612   5.314  0.2618  0.1282  0.3166
17759TIP3    H174768   4.743   6.696   5.306 -0.1754  0.0193  1.3782
17759TIP3    H274769   4.772   6.585   5.405  0.0876 -1.2570 -0.0900
17760TIP3   OH274770   5.656   4.788   5.137  0.2804  0.5070 -0.4729
17760TIP3    H174771   5.750   4.773   5.126  0.2318  0.7841 -1.3910
17760TIP3    H274772   5.646   4.816   5.227  1.1355  0.8612 -0.4853
17761TIP3   OH274773   4.913   1.780  16.272  0.1785 -0.2908  0.2488
17761TIP3    H174774   4.977   1.712  16.294  1.4075  0.4478 -0.9144
17761TIP3    H274775   4.955   1.862  16.298 -1.4061  0.0703  1.9196
17762TIP3   OH274776   0.637   4.472   7.017 -0.2149  0.2380  0.6562
17762TIP3    H174777   0.682   4.528   6.954 -1.1313 -0.5029 -0.7107
17762TIP3    H274778   0.707   4.426   7.063  0.4826  1.0998  0.4776
17763TIP3   OH274779   2.096   1.841  14.030 -0.6494  0.5103 -0.3472
17763TIP3    H174780   2.045   1.761  14.042  0.2590 -0.2712 -1.4984
17763TIP3    H274781   2.065   1.878  13.947  0.7821 -0.1195 -1.2039
17764TIP3   OH274782   1.767   3.324   3.471  0.0180 -0.1481 -0.5362
17764TIP3    H174783   1.705   3.325   3.544 -0.2783 -0.0407 -0.7841
17764TIP3    H274784   1.794   3.233   3.463 -3.3652 -1.1646 -3.1130
17765TIP3   OH274785   5.573   2.023  14.797  0.2906  0.5623  0.2195
17765TIP3    H174786   5.491   1.983  14.829  0.1987  1.1578  0.7510
17765TIP3    H274787   5.642   1.969  14.836  0.2347  2.2024  2.8467
17766TIP3   OH274788   0.395   1.824  15.432  0.1384 -0.4763  0.5099
17766TIP3    H174789   0.299   1.829  15.435  0.0187 -2.2435  0.7396
17766TIP3    H274790   0.419   1.784  15.515  1.0967 -0.0517  0.4484
17767TIP3   OH274791   1.531   3.319   3.303 -0.2778  0.1289 -0.2585
17767TIP3    H174792   1.453   3.353   3.346 -0.3623  1.4530 -1.4112
17767TIP3    H274793   1.604   3.348   3.357 -0.5074 -5.4729  3.9855
17768TIP3   OH274794   0.466   2.128   5.710  0.6584 -0.0454  0.2022
17768TIP3    H174795   0.478   2.196   5.644 -0.9038 -0.0045 -0.0703
17768TIP3    H274796   0.508   2.163   5.788 -0.9850  1.7013  0.3476
17769TIP3   OH274797   5.187   1.698   5.287 -0.2302 -0.6227  0.2331
17769TIP3    H174798   5.265   1.747   5.261 -1.1245 -0.1366 -1.7418
17769TIP3    H274799   5.168   1.642   5.212 -0.5150 -2.4268  1.5766
17770TIP3   OH274800   5.050   0.124  13.081  0.3136  0.1504 -0.0660
17770TIP3    H174801   5.053   0.181  13.005  0.0403  1.4825  0.8917
17770TIP3    H274802   5.070   0.181  13.155 -0.2548 -0.9382  0.9663
17771TIP3   OH274803   1.579   5.131  14.798 -0.1342  0.6242  0.5485
17771TIP3    H174804   1.631   5.205  14.830  1.0631  0.0723 -0.0655
17771TIP3    H274805   1.644   5.063  14.781 -1.2727 -0.7756  1.6527
17772TIP3   OH274806   1.649   5.547   1.892  0.4021  0.2718 -0.2862
17772TIP3    H174807   1.610   5.599   1.963 -2.5405 -1.4460 -0.5130
17772TIP3    H274808   1.667   5.462   1.932  1.0840  0.0551 -1.0174
17773TIP3   OH274809   1.540   0.819  14.105  0.6121 -0.0763 -0.0944
17773TIP3    H174810   1.537   0.857  14.018  1.0938 -0.2808 -0.2080
17773TIP3    H274811   1.449   0.803  14.129  0.3434  1.6484  0.1863
17774TIP3   OH274812   1.225   0.007   3.567 -0.6436  0.2781 -0.0430
17774TIP3    H174813   1.220  -0.082   3.532  1.5918  0.4953 -1.0559
17774TIP3    H274814   1.256  -0.004   3.657  1.9162  0.0558 -0.8711
17775TIP3   OH274815   2.529   2.369  16.738  0.3044 -0.0881  0.4491
17775TIP3    H174816   2.523   2.434  16.668  2.8099 -0.4430 -0.1799
17775TIP3    H274817   2.498   2.415  16.817 -2.9715  0.1971 -0.8196
17776TIP3   OH274818   0.459   0.900   0.377 -0.3109  0.1666 -0.1377
17776TIP3    H174819   0.447   0.853   0.459 -0.8453  1.4267  0.5253
17776TIP3    H274820   0.376   0.945   0.362  0.0195  0.5260 -0.9904
17777TIP3   OH274821   2.846   3.237  16.308 -0.0966 -0.4649 -0.2044
17777TIP3    H174822   2.845   3.174  16.236  0.3185 -0.3772 -0.2877
17777TIP3    H274823   2.934   3.230  16.345 -0.2670 -0.4173  0.2153
17778TIP3   OH274824   4.155   1.948   6.000 -0.3355 -0.1048  0.6182
17778TIP3    H174825   4.188   1.995   5.923  0.5139  0.1658  1.1307
17778TIP3    H274826   4.228   1.891   6.026 -0.1898  0.6308  1.8841
17779TIP3   OH274827   1.377   4.931   0.847 -0.2926  0.0564 -0.2734
17779TIP3    H174828   1.441   4.953   0.779  0.0311  1.3411  0.4002
17779TIP3    H274829   1.306   4.888   0.801 -1.4144  3.3407 -1.9638
17780TIP3   OH274830   2.906   4.912  16.763  0.1007  1.5460 -0.5189
17780TIP3    H174831   2.884   5.003  16.785  1.0008  1.3290  1.5228
17780TIP3    H274832   2.911   4.911  16.668 -0.8441  3.4182 -0.6329
17781TIP3   OH274833   1.523   0.368   1.553  0.2111  0.6335  0.3109
17781TIP3    H174834   1.536   0.433   1.484 -0.0137  0.1763 -0.1670
17781TIP3    H274835   1.561   0.288   1.518 -2.0965 -0.2646 -0.3435
17782TIP3   OH274836   1.084   6.397  13.438 -1.0274 -0.2407 -0.7543
17782TIP3    H174837   1.152   6.457  13.408 -0.7237  0.3552  0.9781
17782TIP3    H274838   1.117   6.310  13.415 -0.5061  0.1350 -1.4662
17783TIP3   OH274839   1.652   3.570   2.580 -0.3678 -0.3533  0.0887
17783TIP3    H174840   1.562   3.601   2.584 -1.0048 -1.6391 -2.3606
17783TIP3    H274841   1.646   3.479   2.553  1.6715 -0.6418  0.4060
17784TIP3   OH274842   5.317   2.934   5.411  0.2611 -0.1023  0.4358
17784TIP3    H174843   5.374   2.862   5.384  0.5528  0.6965 -1.1990
17784TIP3    H274844   5.321   2.933   5.507  1.4555 -1.2963  0.4045
17785TIP3   OH274845   6.590   2.640  13.665 -0.1437  0.8723 -0.0759
17785TIP3    H174846   6.518   2.611  13.608 -0.6458  3.0875 -0.6702
17785TIP3    H274847   6.653   2.680  13.604  0.9411  0.2353  0.6005
17786TIP3   OH274848   3.395   4.794   4.871 -0.1814 -0.1261 -0.0593
17786TIP3    H174849   3.466   4.850   4.841 -0.5326 -0.3193 -1.2769
17786TIP3    H274850   3.426   4.759   4.955  0.0213  1.9044  0.7887
17787TIP3   OH274851   2.131   5.847  11.567  0.0571  1.1077  0.2329
17787TIP3    H174852   2.083   5.786  11.511  1.8541 -0.5798  0.4033
17787TIP3    H274853   2.064   5.885  11.624 -1.1975 -0.5677 -0.0367
17788TIP3   OH274854   5.798   1.186   4.001  0.0463 -0.2979  0.5750
17788TIP3    H174855   5.738   1.258   3.984 -0.8670 -0.6891  1.9528
17788TIP3    H274856   5.868   1.225   4.054 -0.0004 -0.2512  0.6022
17789TIP3   OH274857   4.616   5.004  14.469  0.5554  0.0573 -0.1639
17789TIP3    H174858   4.606   5.087  14.423  0.2657  0.2528  0.2465
17789TIP3    H274859   4.669   5.024  14.546 -2.1012  0.5632  1.6769
17790TIP3   OH274860   1.776   2.131   0.515 -0.1814 -0.7746  0.0791
17790TIP3    H174861   1.712   2.195   0.544 -0.8442 -1.3344 -0.1180
17790TIP3    H274862   1.785   2.147   0.421  0.6452 -0.1149  0.2600
17791TIP3   OH274863   0.926   6.159   1.567  0.4083  0.4014  0.7884
17791TIP3    H174864   0.914   6.072   1.530  1.2685  1.0135 -1.0543
17791TIP3    H274865   0.837   6.192   1.580  0.0453  0.1782 -0.8909
17792TIP3   OH274866   1.996   3.964   2.092 -0.6452  0.1943 -0.4078
17792TIP3    H174867   2.045   3.886   2.117 -1.3890  0.1642  1.0775
17792TIP3    H274868   1.905   3.935   2.088 -1.0214  1.0892  0.8486
17793TIP3   OH274869   6.594   3.298   4.088  0.1339  0.0604 -0.2916
17793TIP3    H174870   6.684   3.283   4.118  0.2923 -2.2006 -1.7176
17793TIP3    H274871   6.599   3.378   4.036  0.8768  1.0862  1.2876
17794TIP3   OH274872   0.206   6.311  15.785  0.6734 -0.5240  0.5242
17794TIP3    H174873   0.252   6.235  15.750  0.6802 -0.2104 -0.1704
17794TIP3    H274874   0.127   6.319  15.731  0.7934  0.0960  0.4248
17795TIP3   OH274875   2.126   2.583   5.955 -0.2984 -0.1059 -0.0194
17795TIP3    H174876   2.214   2.569   5.920 -0.6565 -0.5172 -0.7872
17795TIP3    H274877   2.137   2.649   6.023  0.2206  1.9352 -1.9446
17796TIP3   OH274878   6.382   3.232  12.700 -0.2095  0.0604 -0.2373
17796TIP3    H174879   6.404   3.172  12.629 -0.8287 -1.3307  0.7063
17796TIP3    H274880   6.423   3.193  12.777 -0.2509  1.1026  0.3267
17797TIP3   OH274881   2.158   1.975   5.818  0.5972 -0.0452 -0.0606
17797TIP3    H174882   2.154   1.882   5.793  3.8829 -0.4665  0.4539
17797TIP3    H274883   2.088   1.986   5.881 -0.8353 -1.7681 -1.2284
17798TIP3   OH274884   3.732   3.579  15.111 -0.2405  0.4505 -0.1906
17798TIP3    H174885   3.783   3.612  15.185  0.9981 -1.0550 -0.3372
17798TIP3    H274886   3.796   3.560  15.043 -0.9315 -1.6188 -0.3461
17799TIP3   OH274887   4.901   1.188  12.796  0.1147  0.1553 -0.6472
17799TIP3    H174888   4.873   1.098  12.780  1.1499 -0.1637 -0.7407
17799TIP3    H274889   4.995   1.188  12.777 -0.0988  1.5674 -1.9082
17800TIP3   OH274890   6.323   6.237   2.050 -0.4113  0.5463  0.3170
17800TIP3    H174891   6.347   6.273   2.136  1.5666 -0.2421  0.1486
17800TIP3    H274892   6.396   6.261   1.993 -2.1414  1.8849 -1.4340
17801TIP3   OH274893   0.335   1.343   2.603 -0.1579 -0.8580  0.0454
17801TIP3    H174894   0.401   1.400   2.564 -0.7220 -1.9860 -2.8136
17801TIP3    H274895   0.350   1.258   2.562 -1.1615 -2.0549  2.0191
17802TIP3   OH274896   1.461   4.625  11.653  0.4401 -0.4185  0.2892
17802TIP3    H174897   1.391   4.564  11.675  1.1471 -1.3830 -0.0608
17802TIP3    H274898   1.416   4.702  11.617 -0.5860  0.1087  2.5230
17803TIP3   OH274899   4.016   0.039   5.127  0.6245 -0.0212 -0.3016
17803TIP3    H174900   4.073  -0.008   5.189 -0.6484 -1.9266 -0.4979
17803TIP3    H274901   3.933   0.050   5.174  0.6011  1.2705 -0.6014
17804TIP3   OH274902   6.314   2.706  16.315  0.1330 -0.2826 -0.2087
17804TIP3    H174903   6.380   2.668  16.372  0.4621 -0.3309 -0.6168
17804TIP3    H274904   6.317   2.653  16.235 -0.5127 -0.3871 -0.1719
17805TIP3   OH274905   5.513   2.402  11.947  0.5450 -0.2414 -0.4040
17805TIP3    H174906   5.492   2.471  12.010  0.4544 -1.9758  1.5630
17805TIP3    H274907   5.579   2.349  11.991  1.0968 -1.0581 -2.1301
17806TIP3   OH274908   2.736   4.698   0.376  0.0639  0.5360 -0.4439
17806TIP3    H174909   2.795   4.711   0.302 -1.2880 -0.2805 -1.7214
17806TIP3    H274910   2.652   4.733   0.346 -0.1040  1.9225  1.4150
17807TIP3   OH274911   3.950   1.554  10.933  0.4207 -0.0346 -0.3778
17807TIP3    H174912   4.030   1.604  10.919 -0.8586  2.5532  0.8064
17807TIP3    H274913   3.896   1.572  10.857  0.5070 -0.8384 -0.6350
17808TIP3   OH274914   4.281   2.187  11.244  0.5288 -0.0760 -0.4024
17808TIP3    H174915   4.202   2.230  11.212  0.5214  0.7160  0.6368
17808TIP3    H274916   4.331   2.165  11.165 -1.6138 -2.4266 -1.2485
17809TIP3   OH274917   2.721   0.669   2.454 -0.1532 -0.5265 -0.3455
17809TIP3    H174918   2.737   0.654   2.361  0.3192 -0.3689 -0.2889
17809TIP3    H274919   2.662   0.598   2.480  0.6393 -1.2511 -0.4930
17810TIP3   OH274920   6.062   3.312   6.042 -0.3449 -0.2106 -0.7739
17810TIP3    H174921   6.076   3.406   6.036 -0.3308 -0.1426  0.1422
17810TIP3    H274922   6.124   3.283   6.109 -1.9157 -0.5065  0.6100
17811TIP3   OH274923   0.019   0.656   0.681 -0.7202  0.5722  0.2537
17811TIP3    H174924   0.071   0.635   0.604 -2.6773  1.9450 -1.5489
17811TIP3    H274925   0.084   0.681   0.747  1.0003 -0.4166 -0.9831
17812TIP3   OH274926   0.781   6.455   2.875  0.5348 -0.2623  0.1817
17812TIP3    H174927   0.821   6.375   2.842  0.4137  0.2926 -1.3616
17812TIP3    H274928   0.837   6.526   2.843  0.1543  0.3229  0.7899
17813TIP3   OH274929   3.453   4.144  13.951 -0.0478 -0.0115  0.5099
17813TIP3    H174930   3.541   4.178  13.968  0.3433 -1.6507  1.9693
17813TIP3    H274931   3.452   4.057  13.991 -1.9108 -0.5897 -0.6566
17814TIP3   OH274932   5.149   2.955   4.868  0.0863  0.2374  0.1031
17814TIP3    H174933   5.153   2.990   4.779  0.4201  1.1203  0.4540
17814TIP3    H274934   5.078   3.004   4.910  1.2063  1.2421  0.8983
17815TIP3   OH274935   6.083   0.598  14.270 -0.1000  0.0516  0.1033
17815TIP3    H174936   6.119   0.669  14.217  1.0820 -0.8817 -0.4017
17815TIP3    H274937   5.988   0.611  14.266  0.0718  1.3676 -0.2841
17816TIP3   OH274938   5.735   4.937  15.402  0.4631  0.1149  0.3425
17816TIP3    H174939   5.718   4.917  15.494 -1.9935  1.7588  0.3360
17816TIP3    H274940   5.773   5.025  15.403 -1.1763  0.8722 -0.2380
17817TIP3   OH274941   3.107   4.760   4.328  0.3992  0.1888  0.0338
17817TIP3    H174942   3.116   4.838   4.274 -0.0536  1.3544  1.5776
17817TIP3    H274943   3.013   4.742   4.328  0.4830 -0.2558 -0.1833
17818TIP3   OH274944   6.372   2.457   0.086 -0.1195 -0.1356  0.5154
17818TIP3    H174945   6.347   2.549   0.084 -0.7049 -0.2006  2.6399
17818TIP3    H274946   6.424   2.448   0.165  1.5307 -1.2887 -0.6318
17819TIP3   OH274947   4.898   2.429  14.895 -0.4009 -0.2787  0.3172
17819TIP3    H174948   4.926   2.432  14.803  1.4619  0.2690  0.8683
17819TIP3    H274949   4.885   2.520  14.920 -0.7662 -0.4191  0.6565
17820TIP3   OH274950   5.275   3.242   0.947 -0.7263 -1.0296  0.0297
17820TIP3    H174951   5.348   3.258   1.006 -0.6257  0.7598 -0.5099
17820TIP3    H274952   5.233   3.163   0.981  2.3795 -3.1126 -0.5994
17821TIP3   OH274953   3.876   3.128   5.824 -0.5318  0.2073 -0.0364
17821TIP3    H174954   3.890   3.133   5.919 -1.5193 -0.6092  0.1687
17821TIP3    H274955   3.926   3.050   5.797 -0.4709  0.2836 -0.1450
17822TIP3   OH274956   2.197   3.018   4.584 -0.1220 -0.0109 -0.1969
17822TIP3    H174957   2.189   3.075   4.661  0.4583 -0.7394  0.4225
17822TIP3    H274958   2.280   3.044   4.543 -0.4330  0.3793 -0.5809
17823TIP3   OH274959   1.514   0.008   5.391 -0.1636 -0.3105 -0.8059
17823TIP3    H174960   1.494   0.098   5.368  0.3029  0.0723  0.2201
17823TIP3    H274961   1.429  -0.035   5.400 -0.3922  0.1148 -0.9510
17824TIP3   OH274962   3.969   0.254  16.948  0.4754  0.4691 -0.3220
17824TIP3    H174963   3.969   0.277  16.855 -1.3497  1.2678 -0.1645
17824TIP3    H274964   3.906   0.182  16.954 -0.8130  1.6157  0.5243
17825TIP3   OH274965   4.494   2.430  16.062  0.6167  0.2624 -0.0599
17825TIP3    H174966   4.495   2.510  16.009  0.8566  1.6370  1.9011
17825TIP3    H274967   4.407   2.392  16.046  0.1409  1.4201 -0.3423
17826TIP3   OH274968   5.968   6.280   3.030  0.3675 -0.3566  0.2378
17826TIP3    H174969   5.957   6.186   3.048  3.2593 -0.8662 -0.1616
17826TIP3    H274970   5.983   6.319   3.116 -1.6923 -0.0473  0.5080
17827TIP3   OH274971   3.242   3.072  13.184 -0.2602  0.0493 -0.1864
17827TIP3    H174972   3.299   3.078  13.261  0.2379  0.8388 -0.6104
17827TIP3    H274973   3.259   3.152  13.135 -3.5382  1.5463  0.8710
17828TIP3   OH274974   4.949   1.460   1.812  0.1245  0.5969 -0.6066
17828TIP3    H174975   5.009   1.519   1.857 -2.0485  1.2154  1.7606
17828TIP3    H274976   4.970   1.373   1.846 -0.6323  0.8875  0.6639
17829TIP3   OH274977   1.163   2.279  11.674  0.3129  0.4453  0.2782
17829TIP3    H174978   1.128   2.354  11.722  1.1288  1.3100 -0.4297
17829TIP3    H274979   1.091   2.249  11.619 -0.0053  0.7567  0.5224
17830TIP3   OH274980   0.175   1.100   2.688 -0.1919 -0.0762  0.2655
17830TIP3    H174981   0.188   1.050   2.608 -0.4206  1.1413 -0.5497
17830TIP3    H274982   0.250   1.078   2.743  1.2421  0.8652 -1.2390
17831TIP3   OH274983   6.185   6.575   5.194 -0.1232  0.0536 -0.0139
17831TIP3    H174984   6.097   6.543   5.173  0.2963 -0.3808 -1.1963
17831TIP3    H274985   6.244   6.511   5.153  0.7437  0.5191  0.4803
17832TIP3   OH274986   3.708   1.265  17.288  0.3674  0.1693  0.0478
17832TIP3    H174987   3.622   1.294  17.257  0.3276  0.3780  0.3497
17832TIP3    H274988   3.694   1.242  17.380  0.6729  0.3683  0.1463
17833TIP3   OH274989   5.387   0.858   2.087 -0.4466 -0.2030 -0.1167
17833TIP3    H174990   5.347   0.902   2.011 -1.2627 -1.4708 -0.4434
17833TIP3    H274991   5.327   0.787   2.108  0.7463 -1.0552  0.5118
17834TIP3   OH274992   4.310   1.858  15.137 -0.3579  0.3988 -0.2974
17834TIP3    H174993   4.344   1.847  15.048  1.5621  1.3764  0.2586
17834TIP3    H274994   4.348   1.786  15.186 -3.2976 -1.5456 -0.6845
17835TIP3   OH274995   4.974   2.062  16.070 -0.4579  0.1152 -0.5334
17835TIP3    H174996   5.055   2.112  16.057  0.0007 -0.7982 -1.3075
17835TIP3    H274997   4.934   2.058  15.983 -1.0925  0.1445 -0.2449
17836TIP3   OH274998   4.592   2.943   1.933 -0.0746 -0.2582 -0.1278
17836TIP3    H174999   4.506   2.963   1.896 -0.9997  0.5792  2.2640
17836TIP3    H275000   4.581   2.858   1.976  0.9164 -1.1279 -1.5265
17837TIP3   OH275001   0.057   4.340   4.835  0.2447  0.0762 -0.0716
17837TIP3    H175002   0.075   4.431   4.810 -2.4160  0.1276 -2.2442
17837TIP3    H275003  -0.025   4.344   4.883  0.8045 -1.0736  1.0332
17838TIP3   OH275004   1.447   5.966  14.632 -0.4926 -0.1641  0.2894
17838TIP3    H175005   1.397   5.907  14.688  0.2657 -0.4620  0.6589
17838TIP3    H275006   1.452   6.047  14.682 -0.2983 -0.2477  0.4041
17839TIP3   OH275007   6.049   0.660   4.377  0.4037 -0.0194 -0.7869
17839TIP3    H175008   6.076   0.736   4.428  1.5345 -1.0927  0.2935
17839TIP3    H275009   5.992   0.610   4.436  1.2733 -0.9908 -0.7271
17840TIP3   OH275010   0.433   5.715  17.101 -0.1954 -0.4486  0.4915
17840TIP3    H175011   0.511   5.666  17.125  0.6054  0.2939 -0.4849
17840TIP3    H275012   0.421   5.696  17.008  0.7352  1.9008 -0.1878
17841TIP3   OH275013   2.341   2.257  14.073  0.5695  0.6842  0.5876
17841TIP3    H175014   2.323   2.237  13.981 -1.4802  1.0205  0.8690
17841TIP3    H275015   2.372   2.174  14.110  0.4078  0.2796 -0.1695
17842TIP3   OH275016   4.596   0.349  11.323  0.1382 -0.2261 -0.5000
17842TIP3    H175017   4.565   0.264  11.291 -0.4276 -0.2836  0.1862
17842TIP3    H275018   4.518   0.391  11.357  0.6951 -0.0821  0.6230
17843TIP3   OH275019   6.593   0.304  16.852  0.4566  0.0029  0.2177
17843TIP3    H175020   6.632   0.384  16.819  0.0402 -0.0603 -0.4425
17843TIP3    H275021   6.606   0.308  16.947  2.2425 -0.1262  0.0150
17844TIP3   OH275022   5.646   1.414  11.208  0.2829  0.2671 -0.2545
17844TIP3    H175023   5.609   1.333  11.245  0.6852  0.3615  0.3856
17844TIP3    H275024   5.615   1.483  11.267  4.4108 -0.0165  2.7040
17845TIP3   OH275025   6.629   4.769  14.599  0.3300  0.2795  0.2868
17845TIP3    H175026   6.566   4.807  14.661  1.6694 -0.1452  2.0096
17845TIP3    H275027   6.715   4.798  14.632  1.0770  1.2139 -2.2337
17846TIP3   OH275028   1.925   2.290   3.787  1.0681 -0.7653 -0.1522
17846TIP3    H175029   1.935   2.209   3.737 -1.5801 -2.4633  1.7737
17846TIP3    H275030   1.985   2.281   3.861  0.7715 -0.9717  0.0633
17847TIP3   OH275031   5.852   1.771  16.402  0.1608  0.2342 -0.3513
17847TIP3    H175032   5.863   1.865  16.421  0.6398 -0.0949  1.1071
17847TIP3    H275033   5.758   1.755  16.415  0.3340  0.2008  1.0208
17848TIP3   OH275034   3.649   6.343  16.117 -0.3460 -0.0749 -0.2254
17848TIP3    H175035   3.637   6.248  16.113 -2.2803  0.1656 -2.3082
17848TIP3    H275036   3.730   6.359  16.068 -0.5047 -0.5779 -0.6581
17849TIP3   OH275037   1.009   5.446   5.364 -0.1228 -0.0290 -0.6362
17849TIP3    H175038   0.996   5.533   5.402  0.8944 -0.5209  0.9553
17849TIP3    H275039   1.100   5.424   5.388  0.5550 -0.4387 -3.3121
17850TIP3   OH275040   4.032   0.141   6.339  0.1284 -0.1469 -0.3524
17850TIP3    H175041   4.019   0.146   6.433  3.2272 -0.8403  0.2314
17850TIP3    H275042   4.111   0.192   6.323  0.2580 -0.8953 -2.4173
17851TIP3   OH275043   5.616   3.341  16.677 -0.6920  0.4328  0.3868
17851TIP3    H175044   5.650   3.329  16.766 -0.7716 -1.2889  0.2186
17851TIP3    H275045   5.629   3.256  16.634 -0.0358  1.4173 -1.4797
17852TIP3   OH275046   0.649   4.797   5.591 -0.5883 -0.5535  0.9836
17852TIP3    H175047   0.680   4.714   5.556 -1.2016 -1.0726  1.6281
17852TIP3    H275048   0.691   4.864   5.537  0.8543 -1.2392  1.2245
17853TIP3   OH275049   0.311   3.228   5.850  0.0905 -0.4808  0.0584
17853TIP3    H175050   0.233   3.283   5.844  0.1291  0.0208  2.7696
17853TIP3    H275051   0.295   3.173   5.927  2.6948  0.2039  1.1977
17854TIP3   OH275052   3.856   2.538   5.703 -0.3822  0.0153  0.6898
17854TIP3    H175053   3.922   2.573   5.764  0.8746 -1.5288  0.2974
17854TIP3    H275054   3.795   2.610   5.690  2.0551  2.1238 -0.1044
17855TIP3   OH275055   1.236   0.692  17.202  0.1725  0.0973  0.0189
17855TIP3    H175056   1.196   0.747  17.269  0.0549 -0.0253  0.0506
17855TIP3    H275057   1.203   0.728  17.119 -0.8823 -0.6732  0.0824
17856TIP3   OH275058   2.074   1.633   3.480  0.1540 -0.2337  0.2952
17856TIP3    H175059   2.088   1.694   3.407  2.3098 -0.0007  0.8411
17856TIP3    H275060   2.065   1.690   3.557  0.6638 -0.5292  0.5816
17857TIP3   OH275061   6.634   1.876  12.074  0.6360 -0.0306  0.2263
17857TIP3    H175062   6.628   1.874  12.170 -0.3469  1.1855  0.2171
17857TIP3    H275063   6.652   1.968  12.053 -0.0916 -0.1039 -0.7905
17858TIP3   OH275064   6.461   2.726  16.007  0.0799  0.1198  0.1465
17858TIP3    H175065   6.443   2.808  15.960  0.4283 -1.3260 -2.7136
17858TIP3    H275066   6.381   2.675  15.997  0.5359 -0.6206  0.2317
17859TIP3   OH275067   4.945   3.322  11.415  0.1009  0.2642  0.3746
17859TIP3    H175068   4.957   3.406  11.372  0.5225 -0.3078 -0.6643
17859TIP3    H275069   5.034   3.286  11.423 -0.2311 -1.1254 -1.4055
17860TIP3   OH275070   2.564   4.017   4.589 -0.3126 -0.4727  0.2048
17860TIP3    H175071   2.597   4.033   4.500 -0.3396 -0.7604  0.1407
17860TIP3    H275072   2.599   4.088   4.641 -1.2208  0.3535 -0.2673
17861TIP3   OH275073   4.001   4.503   5.614  0.1535 -0.1002  0.2181
17861TIP3    H175074   3.959   4.484   5.698 -1.8187  0.8224 -0.4817
17861TIP3    H275075   4.083   4.547   5.637 -1.2330  1.8893  1.7121
17862TIP3   OH275076   1.039   0.062  10.621 -0.3557  0.6023  0.1594
17862TIP3    H175077   1.021  -0.032  10.610  1.2773  0.2232  0.4209
17862TIP3    H275078   1.022   0.078  10.714 -0.4374  0.5147  0.1597
17863TIP3   OH275079   3.206   2.173   3.325 -0.0735 -0.4646  0.4059
17863TIP3    H175080   3.292   2.205   3.301 -0.5362  0.6396  0.1628
17863TIP3    H275081   3.209   2.165   3.420  0.5353 -1.1763  0.3325
17864TIP3   OH275082   6.455   1.675   5.310  0.2426  0.3455  0.2617
17864TIP3    H175083   6.499   1.759   5.314  1.8275 -0.4399  0.1713
17864TIP3    H275084   6.404   1.670   5.391  0.7852  1.0511  0.6530
17865TIP3   OH275085   6.080   6.030  11.886 -0.4286 -1.1511  0.1581
17865TIP3    H175086   6.072   6.109  11.832 -1.4228 -0.0566  1.8318
17865TIP3    H275087   6.172   6.005  11.879  0.0138  0.4276 -0.0371
17866TIP3   OH275088   4.676   2.415   1.029 -0.1678 -0.3017  0.7476
17866TIP3    H175089   4.733   2.406   1.105  0.0638  0.5991  0.6886
17866TIP3    H275090   4.659   2.509   1.022  0.7977 -0.2162 -1.0271
17867TIP3   OH275091   6.063   6.310   3.911  0.2426 -0.2117 -0.1781
17867TIP3    H175092   6.000   6.240   3.927  1.8048 -1.8421 -0.8763
17867TIP3    H275093   6.034   6.352   3.830 -1.8240  1.3199  1.2659
17868TIP3   OH275094   2.345   1.718  15.877 -0.0096  0.6220  0.1399
17868TIP3    H175095   2.327   1.805  15.841  1.5556  1.1560  0.5981
17868TIP3    H275096   2.259   1.685  15.903 -0.7256  1.6948 -0.7726
17869TIP3   OH275097   1.298   5.938  13.761  0.1372  0.3750  0.0197
17869TIP3    H175098   1.215   5.938  13.808  0.1363 -2.2141  0.1436
17869TIP3    H275099   1.283   5.885  13.683  1.5517  0.2643 -0.2158
17870TIP3   OH275100   3.967   4.542  14.672 -0.2536 -0.1068 -0.1089
17870TIP3    H175101   3.889   4.488  14.678  0.0279 -0.4583  0.5570
17870TIP3    H275102   4.011   4.513  14.592 -0.8547  0.1757 -0.5468
17871TIP3   OH275103   0.912   6.733   5.999 -0.3438  0.3785 -0.0768
17871TIP3    H175104   0.995   6.778   5.986 -1.1098  2.1895  0.8651
17871TIP3    H275105   0.887   6.702   5.912  1.3556 -0.3201 -0.3466
17872TIP3   OH275106   0.586   5.079   0.295 -0.1811 -0.0426  0.2110
17872TIP3    H175107   0.497   5.050   0.313 -0.4732  0.4957 -0.3187
17872TIP3    H275108   0.594   5.074   0.199  0.2931  0.0887  0.2422
17873TIP3   OH275109   6.720   4.411  16.486 -0.2664 -0.5914 -0.1805
17873TIP3    H175110   6.693   4.319  16.494 -1.1144 -0.3825 -0.5005
17873TIP3    H275111   6.805   4.407  16.443 -0.6856 -1.1967 -0.9862
17874TIP3   OH275112   2.091   4.119  14.982  0.3982  0.1863  0.3168
17874TIP3    H175113   2.113   4.153  15.069  2.4356  1.0435 -0.4824
17874TIP3    H275114   2.043   4.190  14.940 -0.0196  0.0120  0.4853
17875TIP3   OH275115   2.572   5.296  16.682  0.1080 -0.1986 -0.5148
17875TIP3    H175116   2.630   5.351  16.629 -0.1277  1.2605  0.6310
17875TIP3    H275117   2.608   5.304  16.771 -0.1712 -1.6268 -0.2583
17876TIP3   OH275118   4.947   6.012   2.775 -0.3170  0.4727  0.0345
17876TIP3    H175119   5.042   6.013   2.763 -0.2933  4.1757 -0.5852
17876TIP3    H275120   4.912   6.035   2.689 -1.6912  0.5200  0.5812
17877TIP3   OH275121   5.712   6.630   5.784  0.2335 -0.2399 -0.0666
17877TIP3    H175122   5.695   6.604   5.874  1.9983  1.8005  0.9513
17877TIP3    H275123   5.805   6.609   5.770  0.3180  0.6351 -0.9460
17878TIP3   OH275124   0.557   1.570   4.114 -0.1605  0.4922  0.2768
17878TIP3    H175125   0.556   1.650   4.167  0.3278  0.2258  0.6971
17878TIP3    H275126   0.508   1.593   4.035  2.8117  2.3045 -1.2112
17879TIP3   OH275127   5.906   6.535   4.742  0.1565 -0.0451  0.1658
17879TIP3    H175128   5.912   6.586   4.822  0.7607  0.3334 -0.1086
17879TIP3    H275129   5.989   6.486   4.738 -0.4155 -1.0679  0.4306
17880TIP3   OH275130   2.836   5.883  12.723 -0.2110 -0.1447 -0.0288
17880TIP3    H175131   2.827   5.857  12.631 -0.5245 -1.7764  0.4450
17880TIP3    H275132   2.930   5.893  12.736 -0.1065 -0.7760 -0.2921
17881TIP3   OH275133   0.659   0.113  15.492 -0.7130  0.0766 -0.2088
17881TIP3    H175134   0.689   0.188  15.543 -1.3513  0.4589 -0.3849
17881TIP3    H275135   0.642   0.045  15.557 -0.7634  0.3040  0.0167
17882TIP3   OH275136   4.553   4.279  17.129 -0.0245 -1.3689  0.1320
17882TIP3    H175137   4.482   4.272  17.193 -0.9611 -0.5691 -0.7887
17882TIP3    H275138   4.509   4.287  17.044  1.1685 -1.2508 -0.5060
17883TIP3   OH275139   6.426   1.508  12.857 -0.1730 -0.7337 -0.3894
17883TIP3    H175140   6.467   1.462  12.784  2.5936  1.3667 -0.2972
17883TIP3    H275141   6.363   1.567  12.816  1.0069  0.0772 -1.0815
17884TIP3   OH275142   6.106   3.566  12.526 -0.0353  0.2560 -0.1620
17884TIP3    H175143   6.161   3.641  12.503  0.8998  0.1963  1.6918
17884TIP3    H275144   6.103   3.513  12.446  0.6421  1.4315 -1.0056
17885TIP3   OH275145   1.376   4.565  12.216  0.2151  0.0979  0.1312
17885TIP3    H175146   1.416   4.642  12.258  1.2783 -0.5526  0.3488
17885TIP3    H275147   1.314   4.602  12.153 -0.1563  1.1086  1.0691
17886TIP3   OH275148   0.673   6.756   5.602  0.4623  0.5279  0.1152
17886TIP3    H175149   0.659   6.842   5.643 -0.8191  0.0862  0.6565
17886TIP3    H275150   0.598   6.704   5.630  2.1126 -1.3656  1.3439
17887TIP3   OH275151   5.815   0.520  17.037 -0.4964 -0.1081  0.4580
17887TIP3    H175152   5.789   0.602  16.994  1.5162 -0.9404 -2.6880
17887TIP3    H275153   5.906   0.534  17.062  0.5766 -1.9298 -2.0344
17888TIP3   OH275154   1.503   6.482   5.416 -0.0417 -0.3214 -0.6091
17888TIP3    H175155   1.566   6.438   5.358  0.2739 -1.0149  0.2410
17888TIP3    H275156   1.541   6.474   5.504 -1.6645 -1.3854  0.0351
17889TIP3   OH275157   5.464   6.347  15.681 -0.2097 -0.8138  0.1002
17889TIP3    H175158   5.518   6.410  15.729  0.2978 -0.6680 -0.6379
17889TIP3    H275159   5.517   6.325  15.604 -0.1511 -2.5574  0.6087
17890TIP3   OH275160   1.157   3.523  15.581 -0.0470 -0.1672  0.1114
17890TIP3    H175161   1.211   3.600  15.601  0.5722 -0.5771  0.0449
17890TIP3    H275162   1.155   3.472  15.662 -2.3017  0.9755  0.8669
17891TIP3   OH275163   2.293   0.244   1.846 -0.1262  0.2671 -0.0146
17891TIP3    H175164   2.282   0.235   1.751  0.6166  0.8947 -0.1741
17891TIP3    H275165   2.204   0.246   1.880 -0.4722  1.9092 -0.9057
17892TIP3   OH275166   0.573   2.275   3.076  0.5283 -0.2815  0.6310
17892TIP3    H175167   0.593   2.346   3.016  0.0586 -1.3774 -0.8661
17892TIP3    H275168   0.480   2.257   3.062 -0.0443  0.4986  2.8817
17893TIP3   OH275169   3.653   2.372   1.215  0.0895 -0.1734  0.7569
17893TIP3    H175170   3.654   2.284   1.253 -1.5583  0.1022  1.5188
17893TIP3    H275171   3.650   2.357   1.120  1.8696 -0.8887  0.7735
17894TIP3   OH275172   5.477   4.690   4.508 -0.0854 -0.5029 -0.5052
17894TIP3    H175173   5.500   4.600   4.485 -1.6816 -0.6525 -1.6543
17894TIP3    H275174   5.534   4.744   4.454  0.1632 -0.8314 -0.5749
17895TIP3   OH275175   3.992   2.974  14.142  0.4288 -0.1219  0.0290
17895TIP3    H175176   4.057   3.029  14.099  1.7013 -1.2483  0.4372
17895TIP3    H275177   4.018   2.884  14.119 -0.8631 -0.6075  0.3865
17896TIP3   OH275178   5.342   4.698  17.294 -0.0064  0.1295 -0.1593
17896TIP3    H175179   5.327   4.649  17.213  1.0849  0.9633 -0.8982
17896TIP3    H275180   5.371   4.784  17.265 -0.7114  0.8329  1.1275
17897TIP3   OH275181   3.344   0.907  13.836  0.4336  0.2984  0.2950
17897TIP3    H175182   3.324   0.833  13.779  0.7628 -0.5490  1.2333
17897TIP3    H275183   3.409   0.958  13.788 -0.2424  0.3202 -0.6201
17898TIP3   OH275184   3.764   3.189   0.345 -0.5852  0.6714  0.4565
17898TIP3    H175185   3.679   3.166   0.306  0.2033  0.0522 -0.9883
17898TIP3    H275186   3.760   3.154   0.434 -1.9962  1.0390  0.5695
17899TIP3   OH275187   4.787   3.583  12.105  0.1103  0.0664  0.2687
17899TIP3    H175188   4.715   3.595  12.168 -0.4290 -0.3514 -0.2555
17899TIP3    H275189   4.785   3.490  12.084  1.1999 -0.0632  0.6968
17900TIP3   OH275190   1.270   0.482   3.878 -0.0715 -0.6534 -0.7702
17900TIP3    H175191   1.205   0.416   3.904 -0.8349  0.6614  0.8274
17900TIP3    H275192   1.228   0.529   3.806 -0.4005 -0.6153 -0.5600
17901TIP3   OH275193   1.264   5.368  14.233  0.5081  0.5537 -0.6499
17901TIP3    H175194   1.286   5.449  14.279  0.3769 -0.5223  1.4271
17901TIP3    H275195   1.188   5.334  14.279  0.0326 -0.3441 -2.0383
17902TIP3   OH275196   4.221   1.006   5.021  0.5718  0.1827 -0.1749
17902TIP3    H175197   4.174   0.974   4.944 -1.1908 -2.5677  1.8814
17902TIP3    H275198   4.171   0.973   5.095  3.7398  0.2835  2.1966
17903TIP3   OH275199   4.458   4.889   0.917  0.0853 -0.2741 -0.3340
17903TIP3    H175200   4.400   4.816   0.939  0.2146 -0.3679 -0.3062
17903TIP3    H275201   4.540   4.848   0.890 -0.0042 -0.1515 -0.7977
17904TIP3   OH275202   2.910   2.704  14.804  0.2967 -0.7854 -0.1527
17904TIP3    H175203   2.868   2.790  14.805  1.6677 -0.0796 -0.0481
17904TIP3    H275204   2.918   2.683  14.711 -1.1293 -1.3888 -0.1641
17905TIP3   OH275205   1.607   0.935  11.943 -0.4107 -0.1278  0.0053
17905TIP3    H175206   1.584   1.026  11.926  1.2246  0.2428 -0.3988
17905TIP3    H275207   1.692   0.923  11.901 -0.2967 -1.6666  0.5883
17906TIP3   OH275208   0.813   5.254   5.417 -0.0793 -0.3850 -0.0887
17906TIP3    H175209   0.869   5.330   5.403 -0.7974  0.4590  1.3025
17906TIP3    H275210   0.730   5.278   5.375 -0.9051  0.4358  1.8790
17907TIP3   OH275211   4.870   0.199   1.938 -0.3103  0.3210  0.3957
17907TIP3    H175212   4.839   0.279   1.981  0.3919  0.4599  0.6483
17907TIP3    H275213   4.869   0.133   2.008 -0.1257  0.3013  0.3783
17908TIP3   OH275214   5.817   0.727   4.183  0.2759 -0.2972  0.2573
17908TIP3    H175215   5.907   0.726   4.216  0.1379 -0.5470  0.6350
17908TIP3    H275216   5.786   0.816   4.200  1.2448  0.5482 -2.0976
17909TIP3   OH275217   4.790   0.843   3.641 -0.1460 -0.4087  0.3634
17909TIP3    H175218   4.862   0.905   3.624  2.5834 -3.6587 -1.0621
17909TIP3    H275219   4.785   0.838   3.736  1.9309 -0.4359  0.5232
17910TIP3   OH275220   2.329   0.982   1.322 -0.4819 -0.8473 -0.5272
17910TIP3    H175221   2.318   0.895   1.286  1.6687 -1.5517  0.3469
17910TIP3    H275222   2.400   1.021   1.269  0.1237 -0.4993  0.5153
17911TIP3   OH275223   2.957   5.007  11.801 -0.0193  0.3225  0.0655
17911TIP3    H175224   2.903   5.022  11.879  0.0346  0.2473  0.1168
17911TIP3    H275225   3.016   4.936  11.826  0.7242  1.0160  0.3232
17912TIP3   OH275226   4.257   6.711   6.659 -0.1928 -0.1124 -0.6009
17912TIP3    H175227   4.335   6.740   6.610 -0.0528 -2.6563 -2.0678
17912TIP3    H275228   4.191   6.777   6.639  1.3702  1.8105  0.2270
17913TIP3   OH275229   5.604   1.525   1.893  0.3262  0.0262  0.1396
17913TIP3    H175230   5.665   1.509   1.821  0.2186 -3.1733  0.6121
17913TIP3    H275231   5.517   1.524   1.853  0.3198 -0.8471  0.1554
17914TIP3   OH275232   4.485   2.448   0.782 -0.1239  0.2375 -0.7737
17914TIP3    H175233   4.580   2.456   0.788 -0.0394  0.4394 -2.1222
17914TIP3    H275234   4.468   2.424   0.691 -1.4831  2.3190 -1.1475
17915TIP3   OH275235   3.393   4.479  11.736 -0.0236  0.1495 -0.5555
17915TIP3    H175236   3.396   4.384  11.734 -1.1655  0.0977 -0.1521
17915TIP3    H275237   3.345   4.503  11.657  2.1419  0.5138 -1.8335
17916TIP3   OH275238   3.007   4.044   2.566  0.0804 -0.6069  0.0506
17916TIP3    H175239   3.006   4.117   2.504 -0.4290 -0.3270  0.3791
17916TIP3    H275240   3.097   4.012   2.564  0.2249 -0.1891 -0.3523
17917TIP3   OH275241   0.798   0.518  15.470 -0.8496  0.3700 -0.3939
17917TIP3    H175242   0.813   0.596  15.523 -2.6200  0.3007  0.2810
17917TIP3    H275243   0.705   0.522  15.448 -1.1593 -1.9088  0.2786
17918TIP3   OH275244   4.418   2.812   1.368 -0.0483  0.1235  0.0994
17918TIP3    H175245   4.508   2.783   1.353  0.1632  0.7533  0.1254
17918TIP3    H275246   4.373   2.734   1.402  1.1499  0.4501  2.7277
17919TIP3   OH275247   4.161   4.613   2.561 -0.4058  0.1062 -0.2349
17919TIP3    H175248   4.074   4.654   2.555 -0.3777 -0.0630 -2.5532
17919TIP3    H275249   4.172   4.596   2.655 -2.4039  1.1213  0.2528
17920TIP3   OH275250   6.755   5.931  12.088  0.0749  0.3562 -0.0729
17920TIP3    H175251   6.815   6.005  12.096  0.1768  0.2266  0.4142
17920TIP3    H275252   6.749   5.895  12.177 -0.8341  0.4566 -0.0802
17921TIP3   OH275253   6.000   2.863   1.660  0.1277 -0.0330 -0.7832
17921TIP3    H175254   6.014   2.951   1.693  1.8113 -0.7072  0.4489
17921TIP3    H275255   6.059   2.856   1.585 -0.1027 -0.0575 -0.9612
17922TIP3   OH275256   4.100   2.420   3.160 -1.1915 -0.1334  0.4112
17922TIP3    H175257   4.066   2.479   3.093  0.6902 -0.4052 -0.8656
17922TIP3    H275258   4.041   2.432   3.234 -2.5590  1.1864 -0.8052
17923TIP3   OH275259   5.386   1.154   1.236 -0.1842 -0.1767  0.3630
17923TIP3    H175260   5.480   1.154   1.248 -0.4718  2.4507  4.2458
17923TIP3    H275261   5.351   1.118   1.318 -2.4718  3.0978  1.0460
17924TIP3   OH275262   0.107   5.701  16.132  0.9395 -0.5823 -0.3153
17924TIP3    H175263   0.090   5.643  16.206  0.9857  0.3945  0.4791
17924TIP3    H275264   0.202   5.711  16.131  0.8033  1.9689  1.5738
17925TIP3   OH275265   2.101   2.663   3.185  0.2984  0.2639  0.2123
17925TIP3    H175266   2.122   2.623   3.269  1.3856 -5.3246 -2.2544
17925TIP3    H275267   2.182   2.707   3.159  2.0970 -2.8848 -0.0952
17926TIP3   OH275268   3.242   4.935   1.710  0.1256  0.3388  0.0008
17926TIP3    H175269   3.219   4.870   1.776  0.1296 -0.3436 -0.6696
17926TIP3    H275270   3.206   5.017   1.744  0.4297  0.0652  1.0231
17927TIP3   OH275271   5.753   2.623   3.996 -0.8554 -0.0173 -0.6449
17927TIP3    H175272   5.793   2.710   3.993 -0.2036 -0.3368 -1.5220
17927TIP3    H275273   5.669   2.638   4.040 -0.6910  1.0294 -0.6446
17928TIP3   OH275274   3.390   0.390   1.506 -0.0453  0.0145  0.2796
17928TIP3    H175275   3.361   0.330   1.437  0.6852  1.5525 -1.4613
17928TIP3    H275276   3.366   0.477   1.474 -0.0270  0.7564  2.1780
17929TIP3   OH275277   5.883   2.119  15.890  0.6242 -0.4909 -0.3837
17929TIP3    H175278   5.959   2.060  15.890 -0.3349 -1.7794 -0.7332
17929TIP3    H275279   5.808   2.060  15.882 -0.3537  0.8334 -1.2730
17930TIP3   OH275280   1.866   2.571  15.829 -0.1200 -0.1788  0.0668
17930TIP3    H175281   1.912   2.631  15.888 -0.3053 -0.0773  0.1087
17930TIP3    H275282   1.935   2.515  15.793  0.0020 -0.1906  0.3208
17931TIP3   OH275283   1.059   2.972  10.916 -0.3510 -0.3468 -0.1059
17931TIP3    H175284   1.036   2.944  10.827  0.9033  0.5896 -0.7719
17931TIP3    H275285   1.138   2.921  10.937  0.9575  1.3333 -0.6598
17932TIP3   OH275286   0.671   6.780   4.757  0.7460  0.3362 -0.1939
17932TIP3    H175287   0.669   6.730   4.675  0.0762  1.4824 -0.8964
17932TIP3    H275288   0.633   6.720   4.822 -0.1934 -0.0332 -1.0475
17933TIP3   OH275289   1.938   3.499  15.997 -0.1919 -0.7774 -0.1415
17933TIP3    H175290   2.033   3.495  15.991 -0.2759 -1.5744 -1.6473
17933TIP3    H275291   1.915   3.434  16.063  0.3541  0.4841  1.3463
17934TIP3   OH275292   0.476   4.305  15.604 -0.2089  0.1039 -0.1373
17934TIP3    H175293   0.503   4.234  15.546 -2.6424 -2.6549  1.8130
17934TIP3    H275294   0.393   4.335  15.568  0.4316  1.4933 -0.5085
17935TIP3   OH275295   0.085   2.707   2.384 -0.0520 -0.3329  0.0714
17935TIP3    H175296   0.127   2.624   2.403 -1.6477 -0.7858  1.8817
17935TIP3    H275297   0.077   2.750   2.469  0.3230  1.4831 -0.7643
17936TIP3   OH275298   3.640   5.853  15.436 -0.1733 -0.4281  0.2341
17936TIP3    H175299   3.573   5.922  15.437 -1.3161 -1.3895 -2.0244
17936TIP3    H275300   3.706   5.885  15.374 -0.8068 -1.3623 -0.9841
17937TIP3   OH275301   5.905   5.516   4.845  0.1742 -0.0313 -0.0663
17937TIP3    H175302   5.985   5.486   4.889 -0.0274 -0.8165 -0.2116
17937TIP3    H275303   5.845   5.539   4.916  0.3756  0.1344  0.0500
17938TIP3   OH275304   3.992   6.641  16.039  0.6438  0.0881 -0.7445
17938TIP3    H175305   4.066   6.587  16.067  1.1338  0.8747 -0.4850
17938TIP3    H275306   3.947   6.664  16.121 -0.9903 -1.8917 -1.0217
17939TIP3   OH275307   3.862   4.196  12.006  0.0996 -0.7791  0.3683
17939TIP3    H175308   3.931   4.260  11.986  1.1324 -1.7699  0.6426
17939TIP3    H275309   3.839   4.212  12.097  1.9357 -2.1671  1.1460
17940TIP3   OH275310   3.689   1.871   5.771  0.5421 -0.1021  0.1889
17940TIP3    H175311   3.739   1.793   5.747  0.4633 -0.0453 -0.1621
17940TIP3    H275312   3.637   1.844   5.846  0.1006 -0.5538 -0.2728
17941TIP3   OH275313   5.469   6.651   1.505  0.1045 -0.2337 -0.5026
17941TIP3    H175314   5.433   6.632   1.418 -2.8778 -1.2220  0.8310
17941TIP3    H275315   5.445   6.742   1.521 -1.5958 -0.7776  0.2277
17942TIP3   OH275316   1.352   2.808   0.306 -0.2230 -0.0218  0.1910
17942TIP3    H175317   1.280   2.753   0.337  0.2883 -0.2897  0.9425
17942TIP3    H275318   1.399   2.752   0.245  0.7430 -0.7280  1.5322
17943TIP3   OH275319   5.508   0.774  17.291  0.7200 -0.0229  0.2392
17943TIP3    H175320   5.432   0.741  17.340  0.4904 -0.1851 -0.2243
17943TIP3    H275321   5.533   0.702  17.233 -1.8232  1.6164 -3.2316
17944TIP3   OH275322   1.380   2.154  17.280  0.1171 -0.4792 -0.4110
17944TIP3    H175323   1.382   2.176  17.373  0.2059  1.3230 -0.7981
17944TIP3    H275324   1.441   2.080  17.271 -0.8530 -1.5103  1.1290
17945TIP3   OH275325   0.353   2.325  16.881  0.1761 -0.0615  0.5034
17945TIP3    H175326   0.439   2.368  16.886  0.2424  0.2652 -2.0696
17945TIP3    H275327   0.368   2.249  16.825 -1.1081 -0.3122  0.4711
17946TIP3   OH275328   3.379   3.845  17.146 -0.6069 -0.1640  0.0695
17946TIP3    H175329   3.289   3.866  17.121 -0.0331 -0.3614 -2.3785
17946TIP3    H275330   3.413   3.926  17.185 -2.0073 -0.3004  1.6867
17947TIP3   OH275331   2.959   1.085   2.177  0.2060  0.2338 -0.0878
17947TIP3    H175332   2.900   1.054   2.108 -0.0260 -1.0017  0.6379
17947TIP3    H275333   3.035   1.029   2.170 -0.0436 -0.2594  0.9960
17948TIP3   OH275334   2.286   5.275  13.790 -0.3446  0.3098  0.2272
17948TIP3    H175335   2.353   5.306  13.729  0.1433  2.4575  1.7277
17948TIP3    H275336   2.335   5.236  13.862 -0.8287 -0.3447  0.2111
17949TIP3   OH275337   4.638   4.312   3.993  0.3399  0.2277  0.4501
17949TIP3    H175338   4.674   4.373   4.057  0.9288  0.3008  0.0545
17949TIP3    H275339   4.544   4.327   3.996  0.4101  0.5779  0.9416
17950TIP3   OH275340   0.720   0.814  14.441 -0.4095 -0.1509  0.0813
17950TIP3    H175341   0.669   0.785  14.517 -1.0828 -0.8049 -0.6002
17950TIP3    H275342   0.767   0.892  14.471  0.1231 -0.9844  1.4587
17951TIP3   OH275343   3.952   0.609  12.845  0.3610  0.6314  0.0553
17951TIP3    H175344   4.026   0.572  12.893  0.5883  0.3907 -0.4642
17951TIP3    H275345   3.898   0.533  12.823  0.2609  0.7387 -0.0693
17952TIP3   OH275346   2.066   4.032   5.368 -0.1228  0.1719 -0.2588
17952TIP3    H175347   2.086   3.943   5.396 -1.5362  0.7600  3.0109
17952TIP3    H275348   2.022   4.021   5.284  0.7481 -2.0734 -0.4911
17953TIP3   OH275349   4.323   6.292  14.000  0.6590  0.3258 -0.1253
17953TIP3    H175350   4.349   6.234  13.928 -0.6483 -0.6128  0.1225
17953TIP3    H275351   4.229   6.306  13.986  0.7405  1.4992  0.4535
17954TIP3   OH275352   5.386   0.693  14.875  0.2678 -0.0433  0.3319
17954TIP3    H175353   5.366   0.599  14.874 -0.1133  0.0241  0.7661
17954TIP3    H275354   5.425   0.711  14.790 -2.1197 -0.0841 -0.8624
17955TIP3   OH275355   2.126   3.295   1.315 -0.8288 -0.2117  0.5803
17955TIP3    H175356   2.170   3.332   1.238  1.1963 -0.9036  1.3272
17955TIP3    H275357   2.128   3.366   1.379 -0.7201 -0.2664  0.6380
17956TIP3   OH275358   0.028   6.459   4.881 -0.1394 -0.3473  0.2772
17956TIP3    H175359  -0.040   6.471   4.947  1.2730 -0.8421  1.9023
17956TIP3    H275360   0.010   6.373   4.843 -1.2625  0.1625 -0.3653
17957TIP3   OH275361   0.591   6.302  13.806 -0.4351 -0.1768  0.8965
17957TIP3    H175362   0.569   6.297  13.713 -0.9508  0.4603  0.9745
17957TIP3    H275363   0.521   6.253  13.849 -1.8016  1.8877  1.1480
17958TIP3   OH275364   4.735   2.784   2.279  0.5812 -1.3498  0.6386
17958TIP3    H175365   4.664   2.835   2.319 -0.4232 -1.7745 -0.5382
17958TIP3    H275366   4.796   2.768   2.350 -0.0328 -0.1424  1.4681
17959TIP3   OH275367   6.461   0.139   1.416 -0.2380 -0.2200 -0.1016
17959TIP3    H175368   6.464   0.198   1.490  1.5755  0.4084 -0.6224
17959TIP3    H275369   6.400   0.070   1.442 -1.3145  1.1214  1.0645
17960TIP3   OH275370   6.779   4.516   0.470  0.0854  0.8524  0.4389
17960TIP3    H175371   6.687   4.537   0.455 -0.0363  0.1939  0.2170
17960TIP3    H275372   6.777   4.441   0.530  0.4554  0.4484 -0.0444
17961TIP3   OH275373   6.727   3.750   4.080  0.4476  0.2071  0.1788
17961TIP3    H175374   6.666   3.785   4.015 -0.8000  0.8957  1.6411
17961TIP3    H275375   6.758   3.668   4.042 -1.0214  0.0799 -0.8515
17962TIP3   OH275376   6.445   4.558  16.751 -0.2000 -0.0286  0.6982
17962TIP3    H175377   6.379   4.518  16.808 -0.6081 -1.5818 -0.7807
17962TIP3    H275378   6.505   4.602  16.811 -1.2129 -0.6550  2.2407
17963TIP3   OH275379   5.030   3.242  13.346  0.0343 -0.2823 -0.0221
17963TIP3    H175380   5.079   3.164  13.372 -0.7901 -0.8161 -0.0285
17963TIP3    H275381   4.938   3.217  13.358 -0.2270  0.8964  0.5572
17964TIP3   OH275382   0.869   6.276  14.614  0.4382 -0.2530 -0.6439
17964TIP3    H175383   0.964   6.274  14.600  0.3334 -0.4026 -1.3369
17964TIP3    H275384   0.836   6.334  14.546 -0.0188 -0.5696 -0.6951
17965TIP3   OH275385   0.909   5.274  16.087  0.4384  0.2938 -0.1966
17965TIP3    H175386   0.994   5.230  16.084  1.3274  1.8422  0.8258
17965TIP3    H275387   0.930   5.368  16.091 -1.3657  0.8822 -2.2293
17966TIP3   OH275388   4.827   4.123   0.904  0.5745  0.2381 -0.2183
17966TIP3    H175389   4.829   4.206   0.953  0.4214  0.0812  0.0557
17966TIP3    H275390   4.735   4.110   0.881  0.1162 -1.2119  2.0974
17967TIP3   OH275391   4.244   0.259  12.921  0.5178 -0.2473  0.4776
17967TIP3    H175392   4.332   0.266  12.958  1.3780 -0.4387 -1.4189
17967TIP3    H275393   4.207   0.347  12.930  0.8763 -0.1640  1.2831
17968TIP3   OH275394   5.421   1.474   3.749  0.8534 -0.2984  0.1319
17968TIP3    H175395   5.336   1.434   3.729  0.8015  0.7229 -2.0065
17968TIP3    H275396   5.426   1.551   3.692  2.4298  0.7633  1.5829
17969TIP3   OH275397   1.779   5.216  16.409 -0.2067 -0.7403  0.1799
17969TIP3    H175398   1.755   5.303  16.440 -0.7181 -0.6734 -0.3789
17969TIP3    H275399   1.854   5.231  16.352 -0.9220 -0.5222 -0.7343
17970TIP3   OH275400   2.525   2.508  13.776  0.1181 -0.1419 -0.1475
17970TIP3    H175401   2.612   2.470  13.789  0.5886  1.2366  1.0393
17970TIP3    H275402   2.487   2.513  13.864 -0.0805  1.6748 -0.2945
17971TIP3   OH275403   3.603   6.218  13.984 -0.3695  0.5960 -0.3327
17971TIP3    H175404   3.586   6.124  13.985  0.2566  0.4753 -0.5490
17971TIP3    H275405   3.570   6.250  14.068 -1.4067  0.3384 -0.6249
17972TIP3   OH275406   1.567   4.424   0.224  0.6609 -0.1902  0.4877
17972TIP3    H175407   1.580   4.493   0.290  2.6023 -0.0819  0.0701
17972TIP3    H275408   1.506   4.363   0.265 -2.0828  2.3011  0.4316
17973TIP3   OH275409   5.392   6.352  15.061 -0.3284  0.0254  0.0820
17973TIP3    H175410   5.388   6.289  14.989 -1.0563 -1.3275  1.2782
17973TIP3    H275411   5.480   6.390  15.054 -0.4874  0.1665 -1.7001
17974TIP3   OH275412   5.976   1.007   4.399 -0.2485 -0.2472  0.6416
17974TIP3    H175413   5.908   0.994   4.334  2.6927  0.2891 -2.8405
17974TIP3    H275414   5.979   1.102   4.412 -0.0807 -0.2605  0.7002
17975TIP3   OH275415   3.278   4.313  15.373  0.3665 -0.4698 -0.0718
17975TIP3    H175416   3.317   4.393  15.409 -0.5238  0.6879 -1.5818
17975TIP3    H275417   3.242   4.268  15.449  1.8594 -0.0127  0.9554
17976TIP3   OH275418   0.296   4.001   4.253  0.2831 -0.4532  0.1167
17976TIP3    H175419   0.234   4.057   4.299 -0.6090 -2.2907  1.2731
17976TIP3    H275420   0.315   4.047   4.171 -0.7720  1.2544  0.7987
17977TIP3   OH275421   2.480   3.688   1.620  0.4564  0.4598  0.2420
17977TIP3    H175422   2.560   3.700   1.570 -0.7411 -0.1848 -1.9974
17977TIP3    H275423   2.449   3.601   1.594 -0.3332  0.1611  2.0323
17978TIP3   OH275424   0.480   1.590  14.427  0.2314  0.5115  0.6468
17978TIP3    H175425   0.552   1.648  14.400  0.1503 -0.0606 -0.9025
17978TIP3    H275426   0.414   1.600  14.358  0.5134 -1.9511 -0.0737
17979TIP3   OH275427   2.394   1.629  16.838 -0.2843 -0.7389 -0.6162
17979TIP3    H175428   2.338   1.679  16.779  0.5949 -0.1007 -0.9416
17979TIP3    H275429   2.474   1.681  16.844 -0.0145 -1.2506  0.4281
17980TIP3   OH275430   4.425   2.111  17.228  0.0588  0.2601  1.2265
17980TIP3    H175431   4.508   2.159  17.230  0.8179 -0.8276 -0.7899
17980TIP3    H275432   4.358   2.180  17.224  0.9976  1.1724  0.5567
17981TIP3   OH275433   3.865   6.805   2.738  0.7442  0.3671 -0.1223
17981TIP3    H175434   3.790   6.759   2.701  0.0269  0.8851  0.6528
17981TIP3    H275435   3.829   6.857   2.810  2.1350 -0.8406  1.5371
17982TIP3   OH275436   0.192   5.973   0.088 -0.3248  0.0925 -0.0040
17982TIP3    H175437   0.236   5.963   0.173 -0.3839  0.4155  0.0665
17982TIP3    H275438   0.109   6.016   0.109  0.0774  1.0575 -0.3309
17983TIP3   OH275439   5.856   0.786  13.472  0.4844  0.4801 -0.3358
17983TIP3    H175440   5.932   0.809  13.525  1.1961  1.3121 -1.6677
17983TIP3    H275441   5.810   0.868  13.458 -1.0634 -0.0982  0.9770
17984TIP3   OH275442   6.476   6.270  15.888 -0.4039  0.7151  0.0449
17984TIP3    H175443   6.388   6.250  15.855 -0.2003 -0.8295  0.3629
17984TIP3    H275444   6.465   6.279  15.983 -0.1865  0.2982  0.1115
17985TIP3   OH275445   2.150   2.475  13.953  0.2018 -0.9465  0.2274
17985TIP3    H175446   2.228   2.479  14.008  0.8218 -0.9617 -0.6316
17985TIP3    H275447   2.177   2.426  13.875  0.0288  1.0429 -1.1719
17986TIP3   OH275448   4.776   4.664  13.470 -0.4262  0.2646 -0.3653
17986TIP3    H175449   4.834   4.702  13.404 -0.5452 -0.4075 -0.8700
17986TIP3    H275450   4.804   4.704  13.553  2.3173 -1.7135 -0.2072
17987TIP3   OH275451   0.680   2.661   1.734 -0.0361 -0.0176 -0.6331
17987TIP3    H175452   0.595   2.702   1.753 -0.4405 -1.0321 -0.1935
17987TIP3    H275453   0.679   2.647   1.639 -0.2576  0.1931 -0.6623
17988TIP3   OH275454   4.346   3.086   4.664  0.2338 -0.0223  0.0431
17988TIP3    H175455   4.323   3.132   4.744  1.3831 -1.7167  1.4305
17988TIP3    H275456   4.267   3.089   4.611 -0.8451  0.3999  1.6067
17989TIP3   OH275457   4.511   5.205   2.327 -0.2153 -0.3267 -0.1157
17989TIP3    H175458   4.495   5.294   2.359  3.3215 -0.0479  1.4158
17989TIP3    H275459   4.573   5.215   2.255 -1.2904 -1.5136 -1.2757
17990TIP3   OH275460   1.087   3.219  12.072  0.4345 -0.3783  0.2857
17990TIP3    H175461   1.003   3.178  12.091 -0.3393  1.1356  0.3099
17990TIP3    H275462   1.152   3.150  12.087 -0.7181 -1.2963  1.2334
17991TIP3   OH275463   3.209   6.634  10.852 -0.1921 -0.2009  0.0476
17991TIP3    H175464   3.137   6.609  10.909  0.2739 -0.6870  0.4295
17991TIP3    H275465   3.280   6.658  10.911  0.8000 -2.1507 -0.2907
17992TIP3   OH275466   4.664   5.236  12.563 -0.3244 -0.1238  0.1607
17992TIP3    H175467   4.574   5.261  12.584  0.2364  1.2148  1.0852
17992TIP3    H275468   4.676   5.152  12.607 -1.1536 -0.3648 -0.0602
17993TIP3   OH275469   3.283   5.619  16.306 -0.1754 -0.4763  0.3783
17993TIP3    H175470   3.284   5.707  16.344 -1.2538 -0.5536  0.6130
17993TIP3    H275471   3.194   5.608  16.273 -0.1552 -1.5988  0.6582
17994TIP3   OH275472   0.125   5.977   1.801 -0.1980 -0.5488  0.4687
17994TIP3    H175473   0.089   6.063   1.776 -0.5038 -0.5311  0.9623
17994TIP3    H275474   0.199   5.964   1.742  2.1015  1.6614  2.6189
17995TIP3   OH275475   0.808   5.845   3.143  0.0573  0.0758 -0.2159
17995TIP3    H175476   0.734   5.899   3.116 -1.5143 -1.7286  0.3021
17995TIP3    H275477   0.883   5.904   3.138 -1.0030  1.3407 -2.9835
17996TIP3   OH275478   1.728   3.959   2.083  0.3095  0.1709 -0.6722
17996TIP3    H175479   1.721   4.038   2.136  0.1182 -1.8981  2.6418
17996TIP3    H275480   1.638   3.926   2.075  0.5154 -0.3405 -0.9692
17997TIP3   OH275481   2.403   0.698   0.732 -0.4952 -0.6130  0.2101
17997TIP3    H175482   2.329   0.688   0.672  0.6313 -1.1213 -1.1244
17997TIP3    H275483   2.424   0.791   0.729 -1.0056 -0.4803  0.5335
17998TIP3   OH275484   4.341   0.485   0.084 -0.0900  0.2593 -0.3992
17998TIP3    H175485   4.339   0.451   0.173  1.2794 -0.2816 -0.5515
17998TIP3    H275486   4.293   0.420   0.032  3.0585 -1.9792 -0.8059
17999TIP3   OH275487   3.117   2.595   0.179 -0.3257  0.0969 -0.0737
17999TIP3    H175488   3.204   2.564   0.154 -0.3439 -1.4506  1.5810
17999TIP3    H275489   3.064   2.580   0.100  0.8021  0.7746 -0.9995
18000TIP3   OH275490   4.546   2.928   5.058  0.5507 -0.6405 -0.2690
18000TIP3    H175491   4.586   2.935   4.971  2.5509 -0.8531  0.5955
18000TIP3    H275492   4.578   2.845   5.093 -2.6216 -2.0844 -0.4271
18001TIP3   OH275493   4.463   3.024   2.779 -0.2783 -0.0741  0.5371
18001TIP3    H175494   4.372   3.000   2.794 -0.7524  1.9677  1.1665
18001TIP3    H275495   4.504   2.943   2.750 -2.2222 -1.1045  0.4913
18002TIP3   OH275496   1.720   0.603   4.106 -0.6565  0.3439 -0.3245
18002TIP3    H175497   1.764   0.688   4.105 -1.7738  0.9336 -0.6678
18002TIP3    H275498   1.647   0.612   4.045  0.0727 -1.3557 -1.5392
18003TIP3   OH275499   4.435   4.566  11.260 -0.0091  0.0229  0.4165
18003TIP3    H175500   4.511   4.610  11.223  0.9244 -1.4980  0.4301
18003TIP3    H275501   4.438   4.478  11.222 -2.2136  0.1546 -0.1920
18004TIP3   OH275502   0.538   0.885  16.995  0.2307 -0.1844  0.5485
18004TIP3    H175503   0.594   0.913  17.067  0.9404  0.0890 -0.1024
18004TIP3    H275504   0.586   0.910  16.916  0.3115 -2.0999 -0.0516
18005TIP3   OH275505   4.139   4.944   0.347 -0.1219  0.6343 -0.3432
18005TIP3    H175506   4.062   4.993   0.378 -0.5412  0.6758 -1.3971
18005TIP3    H275507   4.213   5.001   0.367 -0.2532  0.2363  1.4420
18006TIP3   OH275508   6.086   4.183  12.800  0.1073  0.7299  0.5037
18006TIP3    H175509   6.070   4.248  12.731  0.7905  1.3770  0.9344
18006TIP3    H275510   6.018   4.117  12.787  0.2656  0.7906 -0.8476
18007TIP3   OH275511   3.535   5.893  10.764 -1.0409 -0.0070  0.2598
18007TIP3    H175512   3.500   5.959  10.705 -1.4162  0.0318  0.5233
18007TIP3    H275513   3.477   5.818  10.754 -2.0411  0.5280  1.7085
18008TIP3   OH275514   3.103   5.743   3.656  0.3928  0.0080  0.3927
18008TIP3    H175515   3.046   5.816   3.634 -1.3423 -0.8918  1.6848
18008TIP3    H275516   3.176   5.783   3.703  0.6558  1.1241 -0.8856
18009TIP3   OH275517   1.080   3.507  12.715  0.2053 -0.4422 -0.2101
18009TIP3    H175518   1.013   3.551  12.767  1.4809 -0.6075  1.6817
18009TIP3    H275519   1.079   3.416  12.746  2.1197 -0.1701  0.8180
18010TIP3   OH275520   5.471   6.141   2.680 -0.4539 -0.2148  0.1887
18010TIP3    H175521   5.421   6.216   2.711  2.0030  2.1953 -1.2034
18010TIP3    H275522   5.557   6.152   2.721  0.7371 -0.7812 -2.0254
18011TIP3   OH275523   3.401   0.532  12.429  0.2806 -0.2755  0.0745
18011TIP3    H175524   3.472   0.591  12.454  1.5057 -0.4990 -2.5454
18011TIP3    H275525   3.321   0.584  12.438  1.1575  1.2232 -0.4818
18012TIP3   OH275526   2.666   4.424  13.729  0.0663  0.1615  0.4790
18012TIP3    H175527   2.710   4.399  13.648 -0.3279 -2.7380  1.0716
18012TIP3    H275528   2.586   4.467  13.701 -0.8493 -2.2117 -0.7630
18013TIP3   OH275529   4.188   1.379  16.612 -0.1927 -0.7776 -0.4403
18013TIP3    H175530   4.210   1.383  16.519  0.2812 -0.0394 -0.3072
18013TIP3    H275531   4.265   1.343  16.655  1.0086  2.1375  0.0675
18014TIP3   OH275532   6.604   3.852   4.303 -0.0860  0.0147 -0.4313
18014TIP3    H175533   6.674   3.898   4.350 -0.5052 -0.5209  0.7528
18014TIP3    H275534   6.643   3.828   4.220  0.5736  1.3082 -0.5264
18015TIP3   OH275535   4.495   0.332   2.900  0.0364  0.3942  0.3431
18015TIP3    H175536   4.491   0.250   2.949 -0.7190  0.1514 -0.1081
18015TIP3    H275537   4.404   0.354   2.882  0.2718 -0.6171 -2.6899
18016TIP3   OH275538   3.694   3.801   5.045 -0.2189 -0.2563  0.6805
18016TIP3    H175539   3.683   3.771   4.954 -1.9213  1.1539  0.3599
18016TIP3    H275540   3.759   3.871   5.039 -0.8658  0.3439  0.3818
18017TIP3   OH275541   6.262   6.269  13.415 -0.3109  0.0451 -0.4192
18017TIP3    H175542   6.193   6.295  13.353 -0.3494  1.5391  0.2262
18017TIP3    H275543   6.311   6.349  13.432  1.0043 -0.7946 -0.1143
18018TIP3   OH275544   1.672   2.536  11.910  0.0668 -0.6145  0.4702
18018TIP3    H175545   1.720   2.562  11.832 -0.7496 -0.7847 -0.1048
18018TIP3    H275546   1.739   2.529  11.978  0.5545  1.2124  0.2255
18019TIP3   OH275547   2.068   5.580   1.639  0.7127  0.1504  0.2901
18019TIP3    H175548   2.085   5.631   1.719  1.2781  2.0958 -1.0066
18019TIP3    H275549   2.099   5.492   1.660  1.2128  0.7088  2.0761
18020TIP3   OH275550   3.949   4.088   5.328  0.0941  0.4032  0.5481
18020TIP3    H175551   3.968   4.026   5.398  1.0762 -0.2144 -0.2263
18020TIP3    H275552   3.937   4.033   5.250 -0.1252  1.1230  0.0596
18021TIP3   OH275553   6.384   6.453  16.406 -0.3638 -0.0852  0.2812
18021TIP3    H175554   6.451   6.519  16.425  0.4928 -0.7444 -0.3769
18021TIP3    H275555   6.334   6.446  16.488  0.4954  0.2749  0.8567
18022TIP3   OH275556   2.905   3.675   0.554 -0.2411 -0.1475 -0.0357
18022TIP3    H175557   2.989   3.719   0.546  0.4365 -0.9496  2.1024
18022TIP3    H275558   2.888   3.640   0.467  1.8224 -0.3095 -0.4242
18023TIP3   OH275559   0.254   6.119  12.297 -0.6082  0.3544 -0.9029
18023TIP3    H175560   0.236   6.037  12.343  1.0816  0.3819 -0.0893
18023TIP3    H275561   0.303   6.092  12.219  0.1233  0.5890 -0.5325
18024TIP3   OH275562   2.420   3.107   4.442 -0.6712  0.2992  0.0436
18024TIP3    H175563   2.431   3.194   4.480  0.9218 -0.3817  1.2747
18024TIP3    H275564   2.496   3.057   4.474 -1.6622 -1.6044 -0.4164
18025TIP3   OH275565   0.094   3.586  11.141 -0.5206 -0.0591 -0.1739
18025TIP3    H175566   0.084   3.536  11.223  1.2541 -1.7014 -0.8665
18025TIP3    H275567   0.140   3.666  11.168 -1.0521 -0.0054  0.6053
18026TIP3   OH275568   1.569   6.304   1.266  0.4044  0.8181 -0.3767
18026TIP3    H175569   1.615   6.294   1.349  1.5389 -1.3136 -1.1845
18026TIP3    H275570   1.632   6.274   1.200 -1.0743  0.7859 -1.8372
18027TIP3   OH275571   1.218   1.139   1.634 -0.2885  0.4184 -0.0532
18027TIP3    H175572   1.147   1.136   1.570  0.0278 -0.1186 -0.3814
18027TIP3    H275573   1.228   1.232   1.653 -0.1618  0.6128 -1.0375
18028TIP3   OH275574   0.443   5.061  14.003  0.0446  0.4025  0.8262
18028TIP3    H175575   0.420   5.082  14.094 -1.5619 -0.6360  0.7105
18028TIP3    H275576   0.364   5.018  13.969  0.0337  2.1105 -1.5156
18029TIP3   OH275577   2.884   4.458   4.488  0.5980  0.0297  0.4921
18029TIP3    H175578   2.799   4.501   4.475  1.4399  1.4073 -0.8999
18029TIP3    H275579   2.918   4.495   4.569  0.6044  0.8169  0.1394
18030TIP3   OH275580   4.097   3.572   5.184  0.2703 -0.3287  0.2903
18030TIP3    H175581   4.191   3.553   5.185  0.6628  1.4090  1.2390
18030TIP3    H275582   4.067   3.539   5.100  1.7507 -0.8745 -0.0573
18031TIP3   OH275583   5.053   0.419  13.656 -0.2761 -0.2796  0.3119
18031TIP3    H175584   5.125   0.397  13.597  0.2783  1.7583  0.1681
18031TIP3    H275585   5.092   0.475  13.722 -1.5167 -0.0793  0.8972
18032TIP3   OH275586   6.771   0.409   5.279 -0.5258  0.2979  0.3656
18032TIP3    H175587   6.729   0.448   5.203  0.8151  0.1271 -0.4993
18032TIP3    H275588   6.762   0.314   5.266  0.1658  0.2545  0.1112
18033TIP3   OH275589   3.258   2.277   4.141 -0.2418  0.4543  0.3828
18033TIP3    H175590   3.245   2.192   4.182 -1.2964  1.3301  1.9535
18033TIP3    H275591   3.347   2.302   4.164  0.5992 -0.8025 -1.2893
18034TIP3   OH275592   4.110   6.493   0.344  0.1221 -0.0829 -0.5135
18034TIP3    H175593   4.148   6.577   0.319  1.4442 -0.6554 -0.5240
18034TIP3    H275594   4.114   6.440   0.264 -0.6281 -0.1835 -0.4894
18035TIP3   OH275595   0.160   1.215  17.226 -0.7623  0.3285 -0.1964
18035TIP3    H175596   0.087   1.152  17.230  0.0408 -0.6865 -1.0040
18035TIP3    H275597   0.143   1.275  17.299 -1.9665 -0.3691  0.1352
18036TIP3   OH275598   3.519   0.035   2.508  0.3374 -0.3375 -0.6619
18036TIP3    H175599   3.426   0.035   2.534  0.0854  0.3066 -1.5031
18036TIP3    H275600   3.533   0.123   2.473  0.7021 -1.0922 -2.4991
18037TIP3   OH275601   0.381   2.436   0.048  0.9694  0.2501  0.0237
18037TIP3    H175602   0.434   2.480   0.114 -1.0317  0.2673  1.7241
18037TIP3    H275603   0.369   2.500  -0.021 -0.1249  1.7136  1.4850
18038TIP3   OH275604   5.836   2.858   6.308 -0.3747  1.0358 -0.1342
18038TIP3    H175605   5.842   2.951   6.329  1.9272  0.9723 -0.1935
18038TIP3    H275606   5.926   2.832   6.289 -1.3035 -0.5959 -2.8846
18039TIP3   OH275607   6.659   1.701   4.997  0.2622  0.3365  0.1850
18039TIP3    H175608   6.715   1.742   5.063  0.6358  0.1701 -0.0260
18039TIP3    H275609   6.609   1.636   5.045 -0.4557  1.1430  0.5566
18040TIP3   OH275610   2.648   1.053  15.134  0.0047  0.3080 -0.7106
18040TIP3    H175611   2.630   1.029  15.044  4.0228 -1.1005 -1.3278
18040TIP3    H275612   2.564   1.043  15.179 -1.6300 -1.1714 -3.8052
18041TIP3   OH275613   5.690   0.110   0.224  0.3297  0.0979  0.2987
18041TIP3    H175614   5.615   0.066   0.263 -0.8119  2.1109  0.5308
18041TIP3    H275615   5.714   0.177   0.288  2.2822 -0.4325  0.1719
18042TIP3   OH275616   3.215   3.779   4.445  0.5713  0.3325 -0.4837
18042TIP3    H175617   3.134   3.830   4.456 -0.3164 -1.2772  0.8012
18042TIP3    H275618   3.269   3.804   4.520 -0.0919 -0.9763  0.4557
18043TIP3   OH275619   6.791   6.625  10.684 -0.2104  0.4440 -0.9232
18043TIP3    H175620   6.848   6.583  10.620 -0.4370 -2.9405  0.8891
18043TIP3    H275621   6.849   6.685  10.731  1.4634 -1.4110 -0.4702
18044TIP3   OH275622   5.054   0.965   5.418 -0.3117  0.5144  0.5950
18044TIP3    H175623   5.133   0.997   5.373  0.0453 -0.2053  0.6924
18044TIP3    H275624   5.022   0.895   5.361 -0.3718  0.2048  1.0097
18045TIP3   OH275625   4.910   5.265   2.195  0.2163 -0.2248 -0.6922
18045TIP3    H175626   4.839   5.226   2.145 -2.2385  3.3512 -0.3518
18045TIP3    H275627   4.934   5.343   2.146  0.4824  1.2693  1.6662
18046TIP3   OH275628   1.857   3.606   1.616  0.0546  0.2881  0.5355
18046TIP3    H175629   1.785   3.593   1.677 -0.4833 -0.1924 -0.1802
18046TIP3    H275630   1.840   3.692   1.576 -2.1581 -1.2802 -2.2158
18047TIP3   OH275631   1.864   2.373  16.481 -0.0153  0.3615  0.3908
18047TIP3    H175632   1.795   2.438  16.468  1.0187  1.2870 -0.5351
18047TIP3    H275633   1.820   2.302  16.529 -1.6167  0.9121 -0.2010
18048TIP3   OH275634   4.003   6.031   0.017 -0.2187 -0.6104  0.3017
18048TIP3    H175635   4.060   6.102  -0.015 -0.7662 -0.3514 -0.1429
18048TIP3    H275636   4.038   6.008   0.102 -0.9121  1.2556  1.1531
18049TIP3   OH275637   2.743   0.393  16.507 -0.5518  0.6017 -0.5849
18049TIP3    H175638   2.727   0.469  16.562 -0.4598  1.0712 -1.1956
18049TIP3    H275639   2.710   0.319  16.558 -0.6190  1.0447  0.0227
18050TIP3   OH275640   6.725   5.761   5.644  0.7083 -0.0567 -0.5525
18050TIP3    H175641   6.731   5.675   5.602 -3.0916 -1.5464  1.4914
18050TIP3    H275642   6.728   5.742   5.738 -2.4276  1.6540  0.0161
18051TIP3   OH275643   3.627   2.242   5.640  0.1691  0.0321  0.2254
18051TIP3    H175644   3.661   2.227   5.728  1.3127  0.0529 -0.2035
18051TIP3    H275645   3.666   2.173   5.587  0.0293  0.4287 -0.4012
18052TIP3   OH275646   1.963   5.372  17.108 -0.2175 -0.2598  0.3529
18052TIP3    H175647   1.970   5.416  17.193 -1.3220 -1.3973  1.0832
18052TIP3    H275648   2.051   5.374  17.073  0.0356  1.2633  0.9885
18053TIP3   OH275649   2.710   4.589  10.645  0.0106  0.6916  0.6625
18053TIP3    H175650   2.719   4.681  10.669 -0.8724  1.2810 -1.1221
18053TIP3    H275651   2.776   4.575  10.578  0.1006  0.0278  0.8814
18054TIP3   OH275652   4.099   0.766   3.122 -0.4087 -0.5706 -0.0577
18054TIP3    H175653   4.034   0.696   3.114 -1.7834  0.5330  1.0095
18054TIP3    H275654   4.181   0.724   3.097 -1.5200 -1.9726 -1.6456
18055TIP3   OH275655   3.069   0.825   2.551 -0.3066  0.0641 -0.3720
18055TIP3    H175656   3.004   0.789   2.611 -1.0751  0.5799 -0.8847
18055TIP3    H275657   3.022   0.891   2.502  1.3586  2.7764  1.4328
18056TIP3   OH275658   2.150   5.126  10.578  0.1618  0.0379  0.1001
18056TIP3    H175659   2.082   5.179  10.621  1.5952  2.0270  0.0530
18056TIP3    H275660   2.191   5.186  10.516  0.3417 -1.8505 -1.6928
18057TIP3   OH275661   6.818   4.956  12.749  0.3624 -0.3609 -0.0260
18057TIP3    H175662   6.856   4.874  12.780 -0.6512  0.0768  2.6204
18057TIP3    H275663   6.744   4.930  12.694 -0.1335 -1.2179  1.0303
18058TIP3   OH275664   2.305   2.369  12.161  0.5764  0.2057 -0.3504
18058TIP3    H175665   2.225   2.325  12.190 -0.0544  2.0926  1.0392
18058TIP3    H275666   2.369   2.349  12.230  0.4089  1.0638  0.0677
18059TIP3   OH275667   6.525   1.413   3.716  0.3842 -0.0079  0.0462
18059TIP3    H175668   6.547   1.353   3.788 -0.8375 -2.1376 -1.2490
18059TIP3    H275669   6.567   1.375   3.639  2.4134  2.7182 -0.3325
18060TIP3   OH275670   3.735   3.192   5.129  0.6620 -0.2084  0.1070
18060TIP3    H175671   3.773   3.157   5.209  1.4607  1.9361  0.7256
18060TIP3    H275672   3.758   3.285   5.130 -2.1034  0.5764 -0.9793
18061TIP3   OH275673   5.305   2.901  12.833  0.2683 -0.3266  0.6232
18061TIP3    H175674   5.249   2.847  12.889  0.5472 -0.7501  0.4978
18061TIP3    H275675   5.382   2.919  12.887  0.7005 -1.0384  0.2526
18062TIP3   OH275676   2.985   0.211   4.577 -0.4640  0.1621 -0.2334
18062TIP3    H175677   3.060   0.252   4.533 -1.7746  1.1500 -1.6439
18062TIP3    H275678   2.932   0.175   4.506 -0.9512 -1.2346  0.7884
18063TIP3   OH275679   2.733   5.042  15.390  0.1534 -0.1325 -0.1737
18063TIP3    H175680   2.705   5.128  15.359  1.5682 -0.1031 -1.5226
18063TIP3    H275681   2.654   4.988  15.387 -0.2564  0.4843 -1.7615
18064TIP3   OH275682   4.510   0.235   5.577 -0.1977  0.3758  0.5303
18064TIP3    H175683   4.415   0.229   5.587 -0.1825  1.2972  1.3874
18064TIP3    H275684   4.539   0.287   5.652  1.1454 -1.0414  1.0561
18065TIP3   OH275685   3.637   6.296  11.443  0.4540 -0.3623  0.2998
18065TIP3    H175686   3.550   6.259  11.429 -0.0918  0.6177  0.9949
18065TIP3    H275687   3.697   6.235  11.399 -0.6093 -0.8489 -0.4982
18066TIP3   OH275688   0.046   3.747   0.511 -0.0152 -0.0740  0.0476
18066TIP3    H175689  -0.037   3.733   0.465 -0.5423 -1.0829  1.2509
18066TIP3    H275690   0.083   3.825   0.470 -1.3838  0.1949 -0.7517
18067TIP3   OH275691   0.531   1.683   4.981 -0.2724 -0.2048  0.0446
18067TIP3    H175692   0.446   1.640   4.989 -0.3326 -0.2035 -0.5224
18067TIP3    H275693   0.523   1.763   5.033 -1.9290  1.7371 -2.9312
18068TIP3   OH275694   3.123   3.643  13.891 -0.1110 -1.0014  0.6090
18068TIP3    H175695   3.118   3.589  13.812 -2.0892 -0.1205  0.0732
18068TIP3    H275696   3.035   3.636  13.930 -0.5240  1.9233  0.4071
18069TIP3   OH275697   0.926   4.116   4.314  0.8728 -0.3724  0.3151
18069TIP3    H175698   0.861   4.051   4.339 -0.2126  0.8681  0.8416
18069TIP3    H275699   0.942   4.167   4.394  2.2322 -0.4154  0.1034
18070TIP3   OH275700   0.837   4.880   3.316 -0.9025 -0.9251 -0.3420
18070TIP3    H175701   0.931   4.877   3.298 -1.0561 -0.7078 -1.2360
18070TIP3    H275702   0.803   4.950   3.259 -1.3588  0.1578  1.2027
18071TIP3   OH275703   3.145   4.223   1.588  0.1461  1.1283 -0.0321
18071TIP3    H175704   3.196   4.289   1.635  0.0717 -0.0534  1.7913
18071TIP3    H275705   3.126   4.156   1.653 -0.8257 -0.1216 -1.5261
18072TIP3   OH275706   6.737   0.670  14.052  0.0744  0.0746  0.6172
18072TIP3    H175707   6.707   0.587  14.015  0.9730  0.1514 -0.3440
18072TIP3    H275708   6.662   0.704  14.101 -1.0727 -0.1737 -0.9040
18073TIP3   OH275709   5.063   5.671  13.613 -0.0356  0.4007 -0.4803
18073TIP3    H175710   5.094   5.597  13.559 -0.9482  0.9382 -1.7876
18073TIP3    H275711   5.139   5.730  13.618 -0.0802  0.5796 -1.6296
18074TIP3   OH275712   1.472   0.315  11.362  0.2141 -0.2611 -0.2613
18074TIP3    H175713   1.562   0.315  11.331  0.1788  0.1975 -0.3747
18074TIP3    H275714   1.467   0.241  11.422  0.8627  0.1697  0.3325
18075TIP3   OH275715   6.728   6.649  11.157 -0.9190  0.2140 -0.2213
18075TIP3    H175716   6.675   6.704  11.099  0.1040  0.7313 -0.6980
18075TIP3    H275717   6.737   6.566  11.109 -3.2742 -0.8224  0.9158
18076TIP3   OH275718   3.234   0.299  15.578 -0.6561  0.4333 -0.1460
18076TIP3    H175719   3.246   0.273  15.670  1.2998  2.8659  0.3982
18076TIP3    H275720   3.166   0.366  15.581  0.3940  1.5489 -0.1886
18077TIP3   OH275721   0.070   5.846  16.746  0.1364  0.5452 -0.1009
18077TIP3    H175722   0.075   5.893  16.663  1.7680  0.3000 -0.1623
18077TIP3    H275723   0.107   5.907  16.810  1.3124 -0.2260 -0.0088
18078TIP3   OH275724   2.660   6.135  14.779  0.2507  0.3416 -0.5381
18078TIP3    H175725   2.693   6.053  14.743 -1.1547 -0.1537 -0.7665
18078TIP3    H275726   2.686   6.133  14.871 -0.2737 -0.6538 -0.3957
18079TIP3   OH275727   2.309   0.094   5.609 -0.5833  0.3094 -0.2554
18079TIP3    H175728   2.337   0.106   5.700  2.3668 -0.3330 -0.9425
18079TIP3    H275729   2.291   0.182   5.577 -0.2350  0.6968  0.5951
18080TIP3   OH275730   1.775   2.842  14.626 -0.3407  0.3161  0.3542
18080TIP3    H175731   1.867   2.857  14.649 -0.4374 -0.8596  1.5967
18080TIP3    H275732   1.776   2.829  14.531  0.7427  0.5422  0.3251
18081TIP3   OH275733   4.614   5.635   3.162  0.0799  0.1257 -0.4924
18081TIP3    H175734   4.662   5.716   3.179 -0.0823  0.6573 -2.3580
18081TIP3    H275735   4.681   5.567   3.165 -0.0289  0.0392  2.7014
18082TIP3   OH275736   4.072   5.357  14.892  0.4700 -0.0308 -0.0922
18082TIP3    H175737   4.127   5.291  14.935  1.5967  1.0985  0.2401
18082TIP3    H275738   4.131   5.430  14.875 -0.2027  0.0023 -2.5877
18083TIP3   OH275739   3.514   1.553   0.509 -0.1076 -0.2839 -0.3828
18083TIP3    H175740   3.535   1.500   0.432  0.8510  0.4718 -0.6652
18083TIP3    H275741   3.539   1.642   0.484 -0.8341  0.1554  0.4105
18084TIP3   OH275742   6.295   5.486  16.382 -0.0000  0.0706 -0.4953
18084TIP3    H175743   6.276   5.428  16.308  0.5861 -1.6450  0.6164
18084TIP3    H275744   6.388   5.506  16.373  0.3069 -0.9172  0.2392
18085TIP3   OH275745   1.292   6.273  13.706  0.1014 -0.4546 -0.4224
18085TIP3    H175746   1.238   6.231  13.773  1.4084  0.8315  1.5346
18085TIP3    H275747   1.287   6.214  13.631 -1.3499 -2.0108  0.8185
18086TIP3   OH275748   3.542   0.961   0.834  0.7256 -0.1148 -0.1049
18086TIP3    H175749   3.476   0.915   0.885  0.2857  0.7681  0.1425
18086TIP3    H275750   3.513   1.053   0.835  3.5331  0.9144  2.6188
18087TIP3   OH275751   3.931   1.288  14.056  0.1169  0.2437 -0.4807
18087TIP3    H175752   3.882   1.207  14.045 -0.3475  0.4606 -0.0777
18087TIP3    H275753   3.871   1.357  14.028  0.2963  0.4908 -0.2642
18088TIP3   OH275754   0.573   2.468  12.463 -0.1965  0.0046  0.7707
18088TIP3    H175755   0.513   2.506  12.527  0.1559  0.4007  0.8700
18088TIP3    H275756   0.553   2.375  12.465  0.1860 -0.0703  1.8588
18089TIP3   OH275757   2.906   4.080  16.121 -0.4550  0.0280 -0.0563
18089TIP3    H175758   2.912   4.173  16.142  1.6978 -0.3631  1.4024
18089TIP3    H275759   2.964   4.067  16.046  2.5087 -0.6693  2.1696
18090TIP3   OH275760   3.521   6.399   2.130  0.1748  0.5775  0.3008
18090TIP3    H175761   3.527   6.493   2.150  0.5707  0.4064  1.0249
18090TIP3    H275762   3.431   6.387   2.099 -0.2421  1.0109  1.2743
18091TIP3   OH275763   4.638   0.326   2.672  0.0561  0.1316 -0.1674
18091TIP3    H175764   4.701   0.398   2.679 -0.6759  0.6614  2.2541
18091TIP3    H275765   4.606   0.315   2.762 -1.4405 -1.7964 -0.8800
18092TIP3   OH275766   0.073   0.113   5.557 -0.0762 -0.3722 -0.0683
18092TIP3    H175767   0.064   0.020   5.535  1.2149 -0.1686 -1.5826
18092TIP3    H275768  -0.001   0.155   5.514  1.5697 -0.1966 -2.9873
18093TIP3   OH275769   5.812   4.739  11.877 -0.7109 -0.4180  0.2624
18093TIP3    H175770   5.769   4.717  11.959 -0.9728 -1.3795 -0.1213
18093TIP3    H275771   5.748   4.791  11.829 -0.8199 -0.4440  0.3809
18094TIP3   OH275772   0.466   6.381  14.488  0.3593 -0.7872  0.4507
18094TIP3    H175773   0.506   6.464  14.462 -1.3991  0.5792  1.8755
18094TIP3    H275774   0.476   6.325  14.410  0.0334  1.3240 -1.2137
18095TIP3   OH275775   0.496   2.216  15.220  0.2987  0.0385 -0.1572
18095TIP3    H175776   0.512   2.152  15.151 -0.1613 -0.3441  0.0868
18095TIP3    H275777   0.493   2.165  15.300  1.0028  0.5004  0.1801
18096TIP3   OH275778   0.372   4.699   2.646  0.2397  0.1192 -0.4330
18096TIP3    H175779   0.379   4.792   2.626 -5.0662  0.8488 -0.3564
18096TIP3    H275780   0.391   4.694   2.740  1.3456  0.8980 -0.5841
18097TIP3   OH275781   5.065   6.421  12.973 -0.5755  0.2679  0.0773
18097TIP3    H175782   4.973   6.397  12.969 -0.9655  1.5766  0.5489
18097TIP3    H275783   5.078   6.480  12.899 -0.7404  1.9668  1.3457
18098TIP3   OH275784   6.496   0.298   3.079  0.3027  0.0256  0.0313
18098TIP3    H175785   6.428   0.248   3.034  0.0887 -0.2933  0.6940
18098TIP3    H275786   6.544   0.342   3.009  0.0129 -0.5038 -0.5080
18099TIP3   OH275787   5.543   3.366   1.456  0.6097 -0.8176  0.3530
18099TIP3    H175788   5.630   3.351   1.492  1.1180 -0.9787 -0.8941
18099TIP3    H275789   5.483   3.336   1.525  1.5381 -1.4119  0.9244
18100TIP3   OH275790   6.743   3.383  15.847 -0.0681  0.3354 -0.1081
18100TIP3    H175791   6.705   3.395  15.759  1.2388 -1.1491 -0.9332
18100TIP3    H275792   6.687   3.317  15.888  0.9868 -1.1452 -0.9652
18101TIP3   OH275793   6.124   0.795  16.026 -0.0564  0.7591  0.7065
18101TIP3    H175794   6.114   0.856  16.099  2.9625  2.0148  0.2196
18101TIP3    H275795   6.094   0.844  15.950 -0.1528  0.6241  0.6564
18102TIP3   OH275796   4.484   0.991   6.044 -0.0365  0.7554  0.3722
18102TIP3    H175797   4.546   0.969   5.974 -0.0642 -0.6126  0.7581
18102TIP3    H275798   4.403   0.948   6.018 -0.1222  0.4552  1.1080
18103TIP3   OH275799   5.135   0.995  12.134  0.1697 -0.1770 -0.0161
18103TIP3    H175800   5.180   0.928  12.186  0.3357 -1.7114 -1.9919
18103TIP3    H275801   5.044   0.989  12.162  0.0795 -1.6563 -0.5098
18104TIP3   OH275802   5.517   4.146  11.878  0.1944 -0.1800  0.0050
18104TIP3    H175803   5.577   4.129  11.806  0.9271 -0.0077  0.5567
18104TIP3    H275804   5.556   4.100  11.953 -0.2800  0.0580  0.4076
18105TIP3   OH275805   2.892   3.422  15.848  0.2575  0.3162  0.1226
18105TIP3    H175806   2.843   3.489  15.801 -0.2177  0.1549  0.3786
18105TIP3    H275807   2.907   3.459  15.935 -1.0482 -0.3639  0.6628
18106TIP3   OH275808   3.830   1.968  14.112  0.4814 -0.3544  0.2954
18106TIP3    H175809   3.853   1.944  14.202  0.6954  0.3769  0.4409
18106TIP3    H275810   3.882   1.910  14.057 -0.2165 -1.3268  0.6400
18107TIP3   OH275811   6.229   6.381   0.660  0.4625  0.2082 -0.0083
18107TIP3    H175812   6.309   6.398   0.708  1.0249 -1.3190 -0.3472
18107TIP3    H275813   6.224   6.286   0.653  1.4304  0.2682 -4.5411
18108TIP3   OH275814   4.045   4.084   5.039  0.7987  0.3787 -0.5341
18108TIP3    H175815   4.005   4.004   5.074  1.7275 -0.1928 -0.7272
18108TIP3    H275816   4.021   4.084   4.947  0.1482  0.7401 -0.3675
18109TIP3   OH275817   0.523   3.382   6.206 -0.2693 -0.6573 -0.0891
18109TIP3    H175818   0.517   3.458   6.265  0.0861 -1.1948  0.6571
18109TIP3    H275819   0.543   3.420   6.121  0.6467  0.0608  0.4152
18110TIP3   OH275820   6.023   4.941  12.942 -0.0876  0.0140  0.3305
18110TIP3    H175821   6.029   4.932  12.847  0.2275  0.1698  0.3348
18110TIP3    H275822   6.037   4.852  12.975 -0.0106 -0.0079  0.2398
18111TIP3   OH275823   6.807   3.658   4.767 -0.0775  0.0878 -0.2228
18111TIP3    H175824   6.797   3.602   4.844 -1.0305  1.2007  0.4769
18111TIP3    H275825   6.818   3.746   4.802  0.5532  0.4749 -1.3382
18112TIP3   OH275826   4.503   2.571  11.864 -0.3941  0.1070 -0.2079
18112TIP3    H175827   4.499   2.659  11.825  0.5268 -0.0367 -0.6315
18112TIP3    H275828   4.442   2.520  11.811 -0.5559  0.3666 -0.2784
18113TIP3   OH275829   2.840   4.072  14.646  0.3237 -0.1679  0.2629
18113TIP3    H175830   2.747   4.053  14.653  0.0578  0.3546 -1.4269
18113TIP3    H275831   2.883   3.996  14.685 -0.7981 -1.0272 -0.1047
18114TIP3   OH275832   0.560   3.768  16.302 -0.3559 -0.5690 -0.6324
18114TIP3    H175833   0.544   3.809  16.387  0.4734  2.2260 -1.6912
18114TIP3    H275834   0.569   3.675  16.321 -1.8192 -0.2628  2.0809
18115TIP3   OH275835   3.216   0.779   0.290 -0.1682  0.6727  0.0005
18115TIP3    H175836   3.283   0.764   0.223 -1.5074  0.6836 -1.4141
18115TIP3    H275837   3.250   0.852   0.341  1.1341  0.3374 -0.3328
18116TIP3   OH275838   2.145   5.383  11.126 -0.5584  0.1411 -0.2668
18116TIP3    H175839   2.128   5.477  11.131  0.0775  0.2886 -0.8034
18116TIP3    H275840   2.096   5.353  11.049  0.1464  0.2460 -0.7652
18117TIP3   OH275841   0.805   2.247   0.629 -0.1620 -0.4644  0.6908
18117TIP3    H175842   0.710   2.233   0.630 -0.1802 -0.3377  0.8258
18117TIP3    H275843   0.829   2.253   0.722 -0.7359  4.2039  0.8107
18118TIP3   OH275844   3.225   1.860  12.991 -0.1420  0.2357  0.3936
18118TIP3    H175845   3.205   1.768  12.972 -0.1815  0.2659  0.2887
18118TIP3    H275846   3.312   1.874  12.953 -1.8452  1.4555 -3.7003
18119TIP3   OH275847   2.240   5.888   4.593 -0.3443 -0.8611 -0.2476
18119TIP3    H175848   2.287   5.848   4.520  0.7509  1.5949 -0.9913
18119TIP3    H275849   2.296   5.871   4.669  0.0361 -0.8461 -0.5209
18120TIP3   OH275850   2.785   0.443   1.957  0.3953  0.4726  0.0214
18120TIP3    H175851   2.729   0.480   1.889 -1.0883 -0.4528  0.6884
18120TIP3    H275852   2.725   0.417   2.027  1.3556 -2.5778 -0.1338
18121TIP3   OH275853   1.428   4.521   3.744  0.0534 -0.1743  0.7656
18121TIP3    H175854   1.467   4.436   3.725 -2.2341 -0.8736 -1.3178
18121TIP3    H275855   1.376   4.507   3.823 -0.7460 -0.9148  0.1300
18122TIP3   OH275856   1.262   1.681   0.007  0.4919  0.0414  0.0735
18122TIP3    H175857   1.269   1.587   0.024  0.2210  0.3458  2.0931
18122TIP3    H275858   1.339   1.718   0.050  1.3078  0.6527 -1.8196
18123TIP3   OH275859   0.716   5.516  13.031 -0.0120 -0.0197  0.2326
18123TIP3    H175860   0.638   5.468  13.001  0.6997 -0.1880 -1.4745
18123TIP3    H275861   0.690   5.554  13.115 -1.9484 -0.0432 -0.3091
18124TIP3   OH275862   5.446   2.237   2.426 -0.4146  0.3244  0.8782
18124TIP3    H175863   5.474   2.145   2.420  1.7915  0.9561  0.5410
18124TIP3    H275864   5.482   2.278   2.348 -0.5864  1.6639  1.4698
18125TIP3   OH275865   2.774   4.958  14.101  0.2747 -0.2044 -0.2785
18125TIP3    H175866   2.767   4.887  14.037 -2.1164  0.3213 -0.6794
18125TIP3    H275867   2.781   5.038  14.048  1.4376  0.0195  0.1708
18126TIP3   OH275868   4.538   1.652  14.696 -0.0647  0.5957  0.4963
18126TIP3    H175869   4.562   1.600  14.773  1.5791  2.1967  1.1554
18126TIP3    H275870   4.615   1.647  14.639  0.4658  2.8466  0.9231
18127TIP3   OH275871   1.554   2.730   1.675  0.5607 -0.6331 -0.3707
18127TIP3    H175872   1.646   2.702   1.682  0.2773 -1.7783 -1.0717
18127TIP3    H275873   1.558   2.809   1.621  1.1971 -0.2961  0.1512
18128TIP3   OH275874   2.620   4.518  12.492 -0.3542  0.3963  0.6539
18128TIP3    H175875   2.704   4.562  12.477 -1.1302  2.1758  1.2119
18128TIP3    H275876   2.631   4.473  12.576  0.0217  0.6935  0.7695
18129TIP3   OH275877   0.306   3.675   1.505  0.3528  0.1287 -0.2641
18129TIP3    H175878   0.300   3.718   1.590 -0.9948  0.4156 -0.4771
18129TIP3    H275879   0.315   3.582   1.526  0.4559  0.2398  0.1895
18130TIP3   OH275880   2.117   3.964  16.274  0.0014  0.0813  0.1212
18130TIP3    H175881   2.161   4.042  16.239 -0.8364 -0.0132 -1.2368
18130TIP3    H275882   2.079   3.922  16.197 -1.5922 -0.3867  1.1108
18131TIP3   OH275883   1.373   1.174   3.004  0.4713  0.7245  0.3799
18131TIP3    H175884   1.425   1.094   3.016  0.0724  0.3965 -0.0143
18131TIP3    H275885   1.427   1.244   3.041  1.6854  0.5662 -1.0337
18132TIP3   OH275886   5.443   6.427   3.027  0.2331 -0.4103 -0.2100
18132TIP3    H175887   5.509   6.364   3.056 -0.5501  0.2744  3.4945
18132TIP3    H275888   5.381   6.433   3.099 -1.9852  1.6360 -2.0774
18133TIP3   OH275889   2.635   4.091  16.703  0.1331  0.0536 -0.3820
18133TIP3    H175890   2.570   4.027  16.732  0.5101  0.0302  0.4452
18133TIP3    H275891   2.599   4.176  16.729  0.5937  0.0135  0.4172
18134TIP3   OH275892   3.756   0.377   0.495 -0.9376 -0.5846 -0.6785
18134TIP3    H175893   3.792   0.464   0.514 -1.8969 -0.2696 -0.2482
18134TIP3    H275894   3.783   0.359   0.405 -0.7839  0.1813 -0.7890
18135TIP3   OH275895   2.187   2.645   2.215  0.0154  0.9979 -0.2026
18135TIP3    H175896   2.236   2.706   2.159 -2.2961  2.2658 -0.9755
18135TIP3    H275897   2.176   2.692   2.298  0.2664  0.6196  0.0523
18136TIP3   OH275898   3.556   0.719  13.232 -0.5880  0.1710 -0.5083
18136TIP3    H175899   3.512   0.635  13.218  0.8367 -0.7222  0.1837
18136TIP3    H275900   3.532   0.743  13.322 -1.7976  1.0424 -1.0258
18137TIP3   OH275901   0.533   5.551  13.252  0.5721 -0.1400  0.2896
18137TIP3    H175902   0.538   5.507  13.337 -0.0746  0.4202  0.6245
18137TIP3    H275903   0.511   5.481  13.190 -0.4392 -0.3117  0.8124
18138TIP3   OH275904   3.681   3.084   4.763 -0.2571  0.3814 -0.1814
18138TIP3    H175905   3.714   3.137   4.835  0.1121 -1.6674  1.2722
18138TIP3    H275906   3.601   3.128   4.734  0.6790  2.3551  0.0677
18139TIP3   OH275907   3.513   4.113  16.463 -0.5366 -0.7708 -0.3484
18139TIP3    H175908   3.418   4.110  16.455 -0.4497 -0.4933 -1.5988
18139TIP3    H275909   3.529   4.173  16.536 -1.3259 -1.7600  0.6888
18140TIP3   OH275910   0.849   2.292  14.400 -0.2923  0.0881  0.2138
18140TIP3    H175911   0.784   2.246  14.452 -0.5701 -1.0993 -1.1282
18140TIP3    H275912   0.868   2.233  14.327  1.9883  0.5704  0.3348
18141TIP3   OH275913   4.467   3.560  13.109  0.3755 -0.7621 -0.2555
18141TIP3    H175914   4.466   3.588  13.018 -0.0916  1.0079  0.2463
18141TIP3    H275915   4.559   3.548  13.131  0.5121 -0.7621 -0.8340
18142TIP3   OH275916   3.332   2.335  16.833 -0.4759  0.4163 -0.0672
18142TIP3    H175917   3.316   2.406  16.895 -2.1727 -0.1513  0.1863
18142TIP3    H275918   3.366   2.264  16.887  0.1326  0.6376 -0.1477
18143TIP3   OH275919   6.377   3.985  10.987  0.1037 -0.2791  0.2807
18143TIP3    H175920   6.334   4.069  10.998  3.2937  1.5049  0.2213
18143TIP3    H275921   6.373   3.968  10.893  1.5872  1.1155 -0.0678
18144TIP3   OH275922   0.792   5.227  11.680 -0.2358 -0.0503 -0.5275
18144TIP3    H175923   0.850   5.152  11.695 -0.3071  0.0619  0.3864
18144TIP3    H275924   0.819   5.292  11.746 -0.0130  0.8275 -1.4617
18145TIP3   OH275925   4.562   6.406  12.837  0.2544  0.1122 -0.1061
18145TIP3    H175926   4.547   6.474  12.771  0.8199  1.7182  1.3237
18145TIP3    H275927   4.635   6.439  12.889 -0.0937 -1.1380  1.2569
18146TIP3   OH275928   4.145   5.222   2.069 -0.7366 -0.2143  0.4122
18146TIP3    H175929   4.116   5.152   2.128 -1.3441  0.5475  1.0372
18146TIP3    H275930   4.241   5.219   2.073 -0.7705 -0.5149  1.0302
18147TIP3   OH275931   2.041   2.585  16.872  0.2157 -0.1458 -0.6543
18147TIP3    H175932   2.031   2.557  16.781  0.7810 -1.3199 -0.3662
18147TIP3    H275933   2.120   2.639  16.872  0.2954 -0.2633 -0.8255
18148TIP3   OH275934   0.633   3.485   4.786 -0.0054  0.0345  0.2685
18148TIP3    H175935   0.591   3.552   4.733 -0.3099 -0.0601  0.3920
18148TIP3    H275936   0.707   3.455   4.733 -1.6871 -1.7782 -1.1768
18149TIP3   OH275937   2.105   0.699   2.368 -0.4189  0.0534  0.0306
18149TIP3    H175938   2.043   0.650   2.423  0.1361  0.1065  0.7201
18149TIP3    H275939   2.103   0.654   2.284 -1.9795  0.5307 -0.2118
18150TIP3   OH275940   2.069   0.241   3.706 -0.1837  0.1494 -0.5595
18150TIP3    H175941   1.980   0.237   3.670 -0.0260 -1.5399 -0.8207
18150TIP3    H275942   2.119   0.288   3.640 -0.6282  0.0724 -0.9580
18151TIP3   OH275943   4.534   6.421   4.789  0.4362  0.0610 -0.7062
18151TIP3    H175944   4.517   6.500   4.842  0.0601 -0.0970 -0.5878
18151TIP3    H275945   4.522   6.349   4.850  0.9192 -0.0836 -0.7819
18152TIP3   OH275946   2.176   4.848  14.955 -0.2403  0.4025 -0.2925
18152TIP3    H175947   2.174   4.753  14.940 -0.5658  0.6467 -2.1016
18152TIP3    H275948   2.097   4.866  15.005  0.9049 -0.5177  1.9586
18153TIP3   OH275949   1.131   3.216  13.672 -0.1751 -0.5453 -0.2251
18153TIP3    H175950   1.207   3.262  13.640 -0.6761  0.1138 -0.4834
18153TIP3    H275951   1.159   3.124  13.678 -0.0975 -0.7286 -2.6496
18154TIP3   OH275952   0.104   5.548   0.617 -0.0346 -0.4776 -0.5537
18154TIP3    H175953   0.159   5.564   0.540  2.0805 -2.2756  0.4456
18154TIP3    H275954   0.062   5.465   0.599  0.4709 -0.9063  0.1924
18155TIP3   OH275955   5.877   5.180   5.319  0.1599 -0.7166 -0.0780
18155TIP3    H175956   5.781   5.175   5.319 -0.0231  1.4330  1.5479
18155TIP3    H275957   5.902   5.152   5.407  0.7820  1.1706  0.3915
18156TIP3   OH275958   5.508   5.200   5.563  0.0823 -0.1287 -0.4023
18156TIP3    H175959   5.542   5.214   5.475 -1.2107 -0.0009 -0.8901
18156TIP3    H275960   5.557   5.262   5.618  1.2296 -0.5343 -0.9279
18157TIP3   OH275961   3.526   1.335   6.360  0.0100  0.3064 -0.0589
18157TIP3    H175962   3.530   1.250   6.402  0.1202  0.2540 -0.1766
18157TIP3    H275963   3.499   1.395   6.430 -1.2718 -0.0165 -0.2437
18158TIP3   OH275964   1.362   0.476  12.709 -0.3187  0.4975  0.5167
18158TIP3    H175965   1.349   0.469  12.615  2.4335 -3.0588  0.1753
18158TIP3    H275966   1.415   0.555  12.720 -0.1520  0.6283 -1.0146
18159TIP3   OH275967   3.016   0.514  15.011  0.1795  0.3634  0.4812
18159TIP3    H175968   3.067   0.445  14.967 -2.0600 -0.5276 -0.8651
18159TIP3    H275969   3.011   0.486  15.102 -0.1961 -0.9868  0.0700
18160TIP3   OH275970   4.886   2.020  11.645 -0.1659 -0.3006 -0.2602
18160TIP3    H175971   4.930   2.104  11.634 -1.4928  0.3706 -0.6986
18160TIP3    H275972   4.824   2.016  11.572 -0.6890 -1.3014  0.2133
18161TIP3   OH275973   1.097   2.550   1.634  0.3646 -0.3596  0.1572
18161TIP3    H175974   1.106   2.521   1.725  0.4252 -1.0658 -0.0641
18161TIP3    H275975   1.058   2.637   1.640 -1.8102 -1.3121  0.7857
18162TIP3   OH275976   5.112   1.105   4.440 -0.1858  0.1520  0.3804
18162TIP3    H175977   5.113   1.010   4.441 -2.5556 -0.0825 -2.9226
18162TIP3    H275978   5.032   1.129   4.487 -0.2973  0.4327  0.0483
18163TIP3   OH275979   1.020   6.660   0.250 -0.1852  0.2569  0.0248
18163TIP3    H175980   1.116   6.657   0.250 -0.1905 -1.8756  0.2913
18163TIP3    H275981   0.998   6.734   0.305  1.3063  1.1645 -0.5501
18164TIP3   OH275982   5.366   2.717   2.005 -0.0114  0.0570  0.3535
18164TIP3    H175983   5.446   2.761   2.033  1.4970 -1.5527 -1.1342
18164TIP3    H275984   5.336   2.767   1.928  0.4442 -0.2088 -0.0013
18165TIP3   OH275985   0.075   2.070  16.758 -0.2297  0.1503 -0.1944
18165TIP3    H175986   0.060   2.136  16.826  1.1706 -0.6878  1.0006
18165TIP3    H275987   0.148   2.104  16.707  0.1148 -0.1983  0.0618
18166TIP3   OH275988   4.778   4.269   4.912 -0.7341  0.5232  0.1646
18166TIP3    H175989   4.730   4.345   4.879  0.5142  1.8472  1.2957
18166TIP3    H275990   4.800   4.219   4.833  0.6329  2.6785 -0.9019
18167TIP3   OH275991   0.765   6.255  15.851 -0.0273 -0.4193  0.3347
18167TIP3    H175992   0.700   6.313  15.891  1.7840  3.3726 -1.7293
18167TIP3    H275993   0.828   6.236  15.921 -0.6083  0.1769  1.0269
18168TIP3   OH275994   4.560   4.205  12.086 -0.3233  0.5799  0.1039
18168TIP3    H175995   4.638   4.149  12.078  0.0722  1.2871 -1.4294
18168TIP3    H275996   4.507   4.162  12.152  1.7273  0.5127  1.8257
18169TIP3   OH275997   4.934   4.282   2.920  0.2768 -0.0885  0.2913
18169TIP3    H175998   4.846   4.317   2.913  0.7937  1.3354  0.5846
18169TIP3    H275999   4.949   4.273   3.014  0.5968  0.0832  0.2581
18170TIP3   OH276000   3.765   1.328  10.596 -0.5280 -0.0963 -0.5487
18170TIP3    H176001   3.683   1.326  10.645  0.6011  0.3533  1.5098
18170TIP3    H276002   3.770   1.242  10.553 -2.8991  0.5463 -2.3105
18171TIP3   OH276003   4.436   3.000   3.173 -0.0300  0.2183 -0.3326
18171TIP3    H176004   4.478   3.018   3.257  0.6676 -2.1434 -0.1067
18171TIP3    H276005   4.475   3.064   3.113  2.3825 -0.4924  0.3548
18172TIP3   OH276006   2.304   2.348   2.760 -0.2800  0.3680 -0.3200
18172TIP3    H176007   2.232   2.410   2.772 -2.2225 -1.9132  0.2980
18172TIP3    H276008   2.266   2.276   2.710  1.6505 -0.7986 -0.1940
18173TIP3   OH276009   6.785   1.933  17.136  0.5866 -0.0423  0.2556
18173TIP3    H176010   6.776   1.844  17.170  0.3819 -0.5957 -1.1557
18173TIP3    H276011   6.876   1.956  17.154  1.0728 -1.1226 -0.6134
18174TIP3   OH276012   1.235   0.782  12.287 -0.2845  0.0785 -0.6320
18174TIP3    H176013   1.270   0.796  12.200  0.2527  1.0942 -0.2740
18174TIP3    H276014   1.262   0.694  12.311  0.2631  0.0943 -1.1735
18175TIP3   OH276015   3.725   1.732   1.767 -0.1680  0.4158 -0.1394
18175TIP3    H176016   3.801   1.792   1.768 -1.1541  1.7447 -0.9210
18175TIP3    H276017   3.757   1.653   1.810  1.1874  1.5106  0.9975
18176TIP3   OH276018   5.454   4.169  14.092 -0.4017 -0.0575  0.4617
18176TIP3    H176019   5.409   4.086  14.074 -1.0562  0.0787  1.3923
18176TIP3    H276020   5.547   4.147  14.088 -0.5475 -0.5651 -0.5080
18177TIP3   OH276021   6.052   3.574   4.028 -0.1961  0.4913 -0.4611
18177TIP3    H176022   6.117   3.516   4.068  1.3534  2.4889  0.1270
18177TIP3    H276023   5.993   3.597   4.100  1.6776  2.8509  0.4808
18178TIP3   OH276024   3.332   3.519  15.093 -0.1528  0.4842 -0.3523
18178TIP3    H176025   3.385   3.571  15.154  0.2102  0.0435 -0.2861
18178TIP3    H276026   3.284   3.458  15.149 -0.8646  0.9851 -0.3981
18179TIP3   OH276027   5.940   5.726  16.156  0.1495  0.1471  0.5389
18179TIP3    H176028   5.947   5.691  16.245 -1.3738  0.2237  0.7074
18179TIP3    H276029   5.864   5.682  16.118  0.1863  0.8432 -0.3910
18180TIP3   OH276030   3.587   3.818   4.019  0.0878  0.2077  0.5615
18180TIP3    H176031   3.679   3.794   4.013 -0.1165 -0.5048  0.0955
18180TIP3    H276032   3.568   3.860   3.935 -0.8731 -2.8895 -0.9439
18181TIP3   OH276033   2.941   2.545   4.574 -0.1193  0.1859  0.1970
18181TIP3    H176034   3.004   2.476   4.551 -0.1423 -0.1242  1.0184
18181TIP3    H276035   2.960   2.566   4.665 -0.9775  0.3325  0.3581
18182TIP3   OH276036   1.243   2.518  11.027  0.2314 -0.1115  0.3925
18182TIP3    H176037   1.208   2.432  11.007  0.1226  0.2947 -1.2596
18182TIP3    H276038   1.245   2.564  10.943 -0.9724  1.9743  1.4247
18183TIP3   OH276039   1.726   2.931   0.155 -0.2041 -0.3662  0.5826
18183TIP3    H176040   1.646   2.960   0.112  0.3055  0.1124 -0.0684
18183TIP3    H276041   1.732   2.987   0.233 -0.2196 -0.0329  0.3456
18184TIP3   OH276042   3.481   6.585   1.860 -0.5404 -0.1254 -0.6755
18184TIP3    H176043   3.471   6.491   1.845  1.9715 -0.5371 -0.1170
18184TIP3    H276044   3.567   6.595   1.899 -0.8609  2.4074 -0.4212
18185TIP3   OH276045   5.097   2.634   5.381 -0.6126  0.4186  0.3777
18185TIP3    H176046   5.091   2.540   5.395  2.0718  0.0284 -0.5206
18185TIP3    H276047   5.082   2.645   5.287 -2.7192  1.1590  0.7457
18186TIP3   OH276048   2.269   4.729   2.793  0.6655 -0.0885  0.4607
18186TIP3    H176049   2.277   4.779   2.874  0.3284 -1.0555  1.1046
18186TIP3    H276050   2.176   4.731   2.772  0.4485 -1.4170  1.1524
18187TIP3   OH276051   5.682   0.318  16.846 -0.0875  0.3770  0.4063
18187TIP3    H176052   5.736   0.382  16.891 -0.3230  0.0874  1.1260
18187TIP3    H276053   5.698   0.236  16.893  0.5158 -0.1932 -0.7499
18188TIP3   OH276054   1.974   2.780   5.368  0.2481  0.0434  0.1093
18188TIP3    H176055   1.980   2.780   5.463 -0.3185  4.0103  0.2941
18188TIP3    H276056   1.885   2.750   5.349  0.3958 -0.8545  0.7595
18189TIP3   OH276057   4.081   0.831  15.630 -0.3462  0.3839  0.3299
18189TIP3    H176058   4.087   0.873  15.544 -0.9059  0.3311  0.2617
18189TIP3    H276059   4.168   0.841  15.668 -0.4352  1.4711  0.2596
18190TIP3   OH276060   3.794   2.055   3.474  0.1232  0.0601 -0.5228
18190TIP3    H176061   3.776   1.982   3.533 -2.4008  0.0173 -1.2332
18190TIP3    H276062   3.734   2.124   3.502  2.7111  2.0974  0.3752
18191TIP3   OH276063   5.056   3.311  13.093 -0.3071  0.0416 -0.4322
18191TIP3    H176064   5.049   3.276  13.181 -0.5730 -0.7654 -0.7654
18191TIP3    H276065   5.060   3.234  13.036 -0.0731  0.5462 -1.1200
18192TIP3   OH276066   3.290   2.607  11.694  0.0025  0.0093 -0.6858
18192TIP3    H176067   3.311   2.670  11.763 -2.0589 -0.1533  0.1653
18192TIP3    H276068   3.243   2.658  11.628 -1.0094 -0.4623 -0.3504
18193TIP3   OH276069   4.559   6.349  16.394  0.0544 -0.4260  0.0573
18193TIP3    H176070   4.571   6.441  16.418 -1.7535 -0.2783  0.4765
18193TIP3    H276071   4.477   6.323  16.435 -1.5894 -1.0927 -3.2846
18194TIP3   OH276072   5.682   2.775  12.885  0.2399  0.3715  0.3510
18194TIP3    H176073   5.635   2.754  12.965 -0.7594  1.1810 -0.0007
18194TIP3    H276074   5.706   2.867  12.894 -0.1844  0.5661 -0.4164
18195TIP3   OH276075   0.870   2.921   3.103  0.4815 -0.3304  0.3172
18195TIP3    H176076   0.874   3.014   3.077 -2.3843 -0.3638 -0.5539
18195TIP3    H276077   0.912   2.918   3.189 -0.9687  2.1316  1.1987
18196TIP3   OH276078   4.952   3.423   6.218 -0.1362  0.4066  0.4107
18196TIP3    H176079   4.979   3.499   6.167  0.4518 -0.2860 -0.3220
18196TIP3    H276080   5.014   3.419   6.291 -0.7266  1.1513  0.9748
18197TIP3   OH276081   6.632   3.695   0.345 -0.1279  0.0639 -0.1054
18197TIP3    H176082   6.560   3.751   0.317  0.1210  0.9330  0.8870
18197TIP3    H276083   6.641   3.629   0.276 -2.2092 -0.3992  0.0274
18198TIP3   OH276084   0.737   5.125  15.320 -0.1050 -0.1277 -0.3915
18198TIP3    H176085   0.659   5.069  15.322 -0.4761  0.2641 -2.0740
18198TIP3    H276086   0.726   5.184  15.394 -1.5650  0.0848 -0.7463
18199TIP3   OH276087   5.609   6.072   4.402  0.4621 -0.5861 -0.1147
18199TIP3    H176088   5.609   5.978   4.383 -1.3174 -0.2771 -2.0193
18199TIP3    H276089   5.589   6.077   4.495 -1.2061 -2.1114 -0.3306
18200TIP3   OH276090   1.398   6.773  12.121  0.4949  0.7904 -0.0596
18200TIP3    H176091   1.392   6.715  12.197  1.1756  0.6044 -0.1334
18200TIP3    H276092   1.342   6.732  12.055  0.8471  0.2835 -0.0574
18201TIP3   OH276093   3.552   4.816  12.057  0.4840  0.1735 -0.3734
18201TIP3    H176094   3.495   4.738  12.049  0.3088 -0.0826  2.3953
18201TIP3    H276095   3.492   4.886  12.083  1.2802 -0.1050  2.6172
18202TIP3   OH276096   5.096   1.847  15.913 -0.8198 -0.6269 -0.0701
18202TIP3    H176097   5.057   1.874  15.830 -2.6472  1.0002  1.2136
18202TIP3    H276098   5.060   1.908  15.977  1.8270 -0.7619  1.6978
18203TIP3   OH276099   6.409   3.641   4.948 -0.2624 -0.6611 -0.6739
18203TIP3    H176100   6.395   3.651   5.042  0.9597 -1.1878 -0.4033
18203TIP3    H276101   6.493   3.595   4.942  1.7602  2.8179 -2.0671
18204TIP3   OH276102   3.626   5.018  10.949  0.9341  0.2324 -0.0421
18204TIP3    H176103   3.625   5.034  10.855  0.3273 -0.3264 -0.1380
18204TIP3    H276104   3.667   5.096  10.986 -2.2688  2.2993 -0.4407
18205TIP3   OH276105   5.271   1.680  13.538 -0.3215  0.3292  0.8730
18205TIP3    H176106   5.244   1.653  13.626  0.9131  0.4980  1.3223
18205TIP3    H276107   5.194   1.724  13.502 -1.1798 -0.6193  1.4841
18206TIP3   OH276108   0.892   3.597   5.359 -0.3193 -0.0716  0.1530
18206TIP3    H176109   0.834   3.583   5.434 -1.1956  0.5246 -0.4017
18206TIP3    H276110   0.881   3.519   5.305 -0.8771  0.1927 -0.1219
18207TIP3   OH276111   4.854   5.601   6.219  0.0739 -0.0947 -0.4858
18207TIP3    H176112   4.900   5.681   6.244 -0.6584  1.0111 -2.4880
18207TIP3    H276113   4.790   5.587   6.288  1.1177  0.2399  0.5905
18208TIP3   OH276114   0.098   6.545   4.190 -0.1909  0.1383 -0.0517
18208TIP3    H176115   0.072   6.600   4.116 -1.2639  0.4756  0.5590
18208TIP3    H276116   0.164   6.486   4.154 -0.1091  0.8321 -1.0785
18209TIP3   OH276117   3.953   1.428  13.652 -0.4070 -0.2272  0.1193
18209TIP3    H176118   4.009   1.436  13.575  0.1189  0.9645  0.6011
18209TIP3    H276119   4.014   1.416  13.724 -0.9273 -2.0899  0.2855
18210TIP3   OH276120   4.958   5.723   1.570 -0.0483 -0.2979  0.1817
18210TIP3    H176121   5.047   5.752   1.552  0.3492 -0.7959  1.2950
18210TIP3    H276122   4.937   5.665   1.496  1.1381 -1.4168  0.6684
18211TIP3   OH276123   3.301   1.617   2.381  0.0870  0.3225  0.1492
18211TIP3    H176124   3.218   1.625   2.429 -0.2144 -0.2116 -0.2735
18211TIP3    H276125   3.335   1.707   2.377 -2.4005  1.3435 -3.0327
18212TIP3   OH276126   5.536   4.707  12.955 -0.0562  0.0160 -0.3826
18212TIP3    H176127   5.452   4.752  12.968 -0.6994 -0.5417 -2.2505
18212TIP3    H276128   5.511   4.618  12.929  1.1699 -0.8260  1.1521
18213TIP3   OH276129   2.378   0.233   3.217 -0.0105  0.1862  0.0221
18213TIP3    H176130   2.313   0.259   3.152 -0.8888  0.0903  0.8507
18213TIP3    H276131   2.358   0.141   3.236 -0.4632  0.5233  1.2334
18214TIP3   OH276132   5.639   1.459  17.113  0.3728  0.4168  0.8469
18214TIP3    H176133   5.554   1.428  17.144  0.0988  0.3902  0.1130
18214TIP3    H276134   5.656   1.538  17.165  0.4138 -0.1726  1.7448
18215TIP3   OH276135   2.218   4.921   5.302  0.4932  0.1489  0.2961
18215TIP3    H176136   2.256   4.838   5.274 -1.7296 -1.2116  1.0375
18215TIP3    H276137   2.293   4.974   5.329  1.9997 -1.4890 -0.4689
18216TIP3   OH276138   4.990   6.570  12.242  0.2735 -0.3434  0.6881
18216TIP3    H176139   4.954   6.490  12.279  2.5067 -2.0435 -0.4926
18216TIP3    H276140   4.920   6.605  12.188 -0.9395 -1.2033  1.6390
18217TIP3   OH276141   1.211   1.873   1.476 -0.2525 -0.3846 -0.1311
18217TIP3    H176142   1.245   1.878   1.387 -0.9560 -0.0503 -0.3936
18217TIP3    H276143   1.136   1.813   1.470  0.1085 -0.8948  0.3738
18218TIP3   OH276144   0.561   0.729  15.448 -0.2202 -0.3501 -0.0497
18218TIP3    H176145   0.577   0.716  15.354  1.4536 -1.1993  0.3132
18218TIP3    H276146   0.581   0.821  15.463 -1.6228  0.0929 -0.7035
18219TIP3   OH276147   6.779   5.825   4.848 -0.0417  0.1047  0.3468
18219TIP3    H176148   6.867   5.842   4.813 -0.2726  1.4171  0.3212
18219TIP3    H276149   6.765   5.895   4.912 -2.3143  2.0433 -2.0225
18220TIP3   OH276150   0.822   3.751   1.443 -0.6831 -1.0145 -0.3813
18220TIP3    H176151   0.845   3.834   1.401 -3.9022  1.1724  1.6206
18220TIP3    H276152   0.793   3.695   1.371  0.7070 -0.0953 -1.7166
18221TIP3   OH276153   3.574   3.216  13.491 -0.0582 -0.2762  0.5608
18221TIP3    H176154   3.644   3.151  13.483 -0.2089 -0.2153 -1.9266
18221TIP3    H276155   3.494   3.169  13.467 -0.1155  0.8181 -1.6962
18222TIP3   OH276156   5.206   4.596   2.910 -0.9150 -0.1223 -0.5758
18222TIP3    H176157   5.187   4.513   2.866 -1.9327 -1.2432  1.8119
18222TIP3    H276158   5.120   4.631   2.933 -0.4380  0.8059 -0.1610
18223TIP3   OH276159   5.528   1.248  13.709 -0.1947 -0.2417  0.1810
18223TIP3    H176160   5.604   1.217  13.759 -0.6154  0.1849  1.1096
18223TIP3    H276161   5.566   1.302  13.640  0.3299  0.2574  0.8452
18224TIP3   OH276162   3.040   4.312   4.859  0.1899 -0.3971  0.4193
18224TIP3    H176163   3.012   4.243   4.920 -0.8999 -2.6082 -2.3568
18224TIP3    H276164   2.977   4.382   4.871 -0.6910 -1.2690  1.0639
18225TIP3   OH276165   1.877   5.087  15.900  0.1275 -0.0324  0.0703
18225TIP3    H176166   1.933   5.039  15.960  0.3991  0.5068  0.2560
18225TIP3    H276167   1.904   5.057  15.813  1.2048  0.7304  0.1194
18226TIP3   OH276168   2.855   6.819   2.300  0.3964 -0.7450  0.1995
18226TIP3    H176169   2.878   6.732   2.266  1.8947 -0.1355 -0.3891
18226TIP3    H276170   2.780   6.846   2.246  1.1262 -0.8805 -0.9173
18227TIP3   OH276171   6.030   2.678  13.460 -0.1551  0.1830 -0.2218
18227TIP3    H176172   6.121   2.708  13.460 -0.3563  0.8122  0.2569
18227TIP3    H276173   5.982   2.747  13.506 -0.7491 -0.5180  0.2383
18228TIP3   OH276174   3.209   5.250  14.572  0.2002 -0.1117 -0.1731
18228TIP3    H176175   3.144   5.310  14.535  0.5812 -0.1956 -0.9967
18228TIP3    H276176   3.269   5.231  14.500 -0.0688 -1.7125 -0.0069
18229TIP3   OH276177   6.817   3.882   1.779  0.3889  0.0816 -0.3289
18229TIP3    H176178   6.781   3.851   1.695 -0.7945  0.0925  0.1513
18229TIP3    H276179   6.890   3.823   1.797  0.1133 -0.4601 -0.9501
18230TIP3   OH276180   4.128   2.280  11.037 -0.1911  0.2396  0.2831
18230TIP3    H176181   4.125   2.215  10.967  1.4484 -0.4638  0.8133
18230TIP3    H276182   4.194   2.343  11.009 -0.8116  0.9567  0.3964
18231TIP3   OH276183   4.889   4.068  13.342 -0.1690  0.7020  0.4935
18231TIP3    H176184   4.859   4.144  13.391  0.6113  0.2001  1.7836
18231TIP3    H276185   4.891   3.997  13.406 -0.2592 -0.2626 -0.5396
18232TIP3   OH276186   1.588   3.563  16.445 -0.1188 -0.3039 -0.4104
18232TIP3    H176187   1.556   3.593  16.360  0.7569  0.2094 -0.5798
18232TIP3    H276188   1.535   3.487  16.466  0.2017 -0.9385 -1.8171
18233TIP3   OH276189   2.770   3.039   5.171  0.1117 -0.1171 -0.4655
18233TIP3    H176190   2.729   2.966   5.125  0.6397 -0.7327  0.0046
18233TIP3    H276191   2.725   3.043   5.255 -0.2770  0.4514 -0.6985
18234TIP3   OH276192   4.921   5.182   3.069  0.4538 -0.1717 -0.3212
18234TIP3    H176193   4.832   5.148   3.074  0.1232  0.8294  1.4411
18234TIP3    H276194   4.972   5.125   3.126  0.7432 -0.1557 -0.5588
18235TIP3   OH276195   5.935   0.640   0.683  0.4760 -0.2951  0.0241
18235TIP3    H176196   5.905   0.687   0.606  2.3076  1.7172  0.4484
18235TIP3    H276197   5.870   0.660   0.751  0.9136  1.1792  0.0318
18236TIP3   OH276198   6.700   3.945   5.213 -0.0877 -0.1451  0.1689
18236TIP3    H176199   6.644   3.996   5.154 -0.6274 -1.0715 -0.1268
18236TIP3    H276200   6.652   3.943   5.295  0.6156  1.0551  0.6332
18237TIP3   OH276201   2.293   4.063   1.453  0.3407  0.2948  0.0288
18237TIP3    H176202   2.348   4.029   1.524 -0.8419 -1.5406  0.1391
18237TIP3    H276203   2.323   4.015   1.375 -1.7390 -1.5918  0.2901
18238TIP3   OH276204   2.920   1.016  10.771  0.1383  0.4097 -0.3153
18238TIP3    H176205   2.857   1.088  10.778  1.9148  2.1853 -1.4260
18238TIP3    H276206   2.934   1.005  10.677 -0.4466 -1.7810 -0.1966
18239TIP3   OH276207   4.039   5.969   2.920  0.2383  0.2720  0.1183
18239TIP3    H176208   4.060   6.023   2.996  1.9461  2.1109 -1.5534
18239TIP3    H276209   4.122   5.959   2.874 -1.1168  1.1818 -2.7030
18240TIP3   OH276210   2.295   0.432  16.526  0.7296 -0.3024  0.9583
18240TIP3    H176211   2.353   0.356  16.518  0.8502 -0.0236 -1.9534
18240TIP3    H276212   2.240   0.413  16.602  3.3223 -1.4376  2.7153
18241TIP3   OH276213   4.066   4.476   0.907 -0.3976 -0.0182 -0.4042
18241TIP3    H176214   4.053   4.567   0.882 -1.4796  0.1663  0.7127
18241TIP3    H276215   4.041   4.473   0.999  1.3623 -1.0829  0.0846
18242TIP3   OH276216   2.786   0.965   6.107  0.0017  0.3566  0.4618
18242TIP3    H176217   2.880   0.975   6.094  0.0899 -1.1316 -0.2683
18242TIP3    H276218   2.748   1.044   6.070  1.0333  1.9034  2.4872
18243TIP3   OH276219   3.646   6.250  10.895  0.2643  0.1263  0.3986
18243TIP3    H176220   3.608   6.174  10.940  0.0855  1.2276  2.2269
18243TIP3    H276221   3.738   6.250  10.922 -0.1930  1.7057  2.2090
18244TIP3   OH276222   5.526   3.282   4.990 -0.6723 -0.2161 -0.8860
18244TIP3    H176223   5.589   3.241   4.930 -1.0585  0.3923 -1.7344
18244TIP3    H276224   5.473   3.209   5.022  0.6115 -0.7739  0.0586
18245TIP3   OH276225   5.319   5.088  11.856 -0.5648 -0.0283 -0.7669
18245TIP3    H176226   5.368   5.007  11.875 -1.0534 -0.0086  0.7140
18245TIP3    H276227   5.385   5.157  11.856 -0.4225 -0.1533  0.1138
18246TIP3   OH276228   3.476   2.348  11.148  0.4148  0.1708  0.1418
18246TIP3    H176229   3.518   2.320  11.067  0.1515 -1.2304  0.4545
18246TIP3    H276230   3.389   2.308  11.145 -1.1036  3.2224 -0.6282
18247TIP3   OH276231   1.459   3.384   0.007 -0.2162 -0.6211  0.3690
18247TIP3    H176232   1.532   3.422  -0.042  0.9953 -0.5245  2.1408
18247TIP3    H276233   1.438   3.449   0.074 -0.0643 -1.7876  1.6064
18248TIP3   OH276234   6.222   0.225  15.284 -0.0920 -0.3713 -0.0267
18248TIP3    H176235   6.178   0.303  15.250 -0.0748 -1.1415 -1.9440
18248TIP3    H276236   6.203   0.226  15.378  1.0277  2.6221  0.2702
18249TIP3   OH276237   2.638   4.323  16.913  0.3390  0.0077 -0.5004
18249TIP3    H176238   2.723   4.335  16.956  0.7547  0.8392 -1.4983
18249TIP3    H276239   2.624   4.406  16.867 -1.1171 -0.0466 -0.1844
18250TIP3   OH276240   0.302   0.557   1.431 -0.1933 -0.0279  0.1301
18250TIP3    H176241   0.279   0.613   1.356 -0.4158  0.0981  0.2936
18250TIP3    H276242   0.232   0.570   1.494  0.4818  0.6201  0.7736
18251TIP3   OH276243   3.038   3.278  11.331  0.5315 -0.2498 -0.0156
18251TIP3    H176244   3.125   3.304  11.361  0.5158 -1.6345  1.3485
18251TIP3    H276245   2.994   3.247  11.410 -0.3426 -1.8623 -1.0829
18252TIP3   OH276246   0.609   1.467   5.320 -0.6091 -0.1743  0.1834
18252TIP3    H176247   0.540   1.532   5.310 -2.3499 -2.0016 -0.2554
18252TIP3    H276248   0.641   1.480   5.409 -1.6752  0.5637  0.4852
18253TIP3   OH276249   2.430   2.985   0.847  0.1922  0.3448 -0.1258
18253TIP3    H176250   2.337   2.963   0.842  0.2528 -0.8778  2.5788
18253TIP3    H276251   2.472   2.920   0.790 -0.3344 -1.7836  1.7437
18254TIP3   OH276252   4.347   0.926   1.614  0.6409  0.1503 -0.1174
18254TIP3    H176253   4.266   0.884   1.586  0.4852 -0.8604  1.6530
18254TIP3    H276254   4.354   1.005   1.560  0.1183 -1.3306 -2.4530
18255TIP3   OH276255   3.097   4.760  15.426  0.9565 -0.3907  0.1692
18255TIP3    H176256   3.099   4.695  15.497  1.6055 -0.9833 -0.3793
18255TIP3    H276257   3.018   4.740  15.377  0.8245 -0.3616  0.3657
18256TIP3   OH276258   1.896   5.820   1.627  0.1409 -0.6297 -0.0260
18256TIP3    H176259   1.814   5.772   1.635  0.2665 -0.9423 -0.5489
18256TIP3    H276260   1.964   5.752   1.628  0.4196 -0.3507  0.7312
18257TIP3   OH276261   2.635   5.161  14.987 -0.8780  0.5810  0.1007
18257TIP3    H176262   2.630   5.233  15.050  0.5403 -0.4927  1.5310
18257TIP3    H276263   2.544   5.143  14.963 -1.3191  2.1870  0.4560
18258TIP3   OH276264   0.131   1.786  13.632 -0.9075  0.8465 -0.2478
18258TIP3    H176265   0.088   1.810  13.550  0.4867 -0.2635 -1.3622
18258TIP3    H276266   0.100   1.697  13.651  0.3941  0.2599 -0.7559
18259TIP3   OH276267   1.097   1.486  15.428 -0.7006 -0.0121 -0.1340
18259TIP3    H176268   1.182   1.524  15.449 -1.8376  1.5786  2.0294
18259TIP3    H276269   1.067   1.534  15.351 -0.7018  1.2344  0.6226
18260TIP3   OH276270   1.415   5.675   3.934  0.2386 -0.1313  0.1652
18260TIP3    H176271   1.424   5.754   3.988 -2.4418 -0.0072  0.5873
18260TIP3    H276272   1.348   5.699   3.870  0.4270 -1.6199 -0.6096
18261TIP3   OH276273   2.852   1.137   1.673  0.6880 -0.1526  0.1237
18261TIP3    H176274   2.931   1.133   1.728  2.8363  0.9166 -2.6302
18261TIP3    H276275   2.856   1.058   1.620  0.1568  0.1453 -0.3632
18262TIP3   OH276276   6.192   2.896   5.029  0.6102  0.0760  0.0943
18262TIP3    H176277   6.217   2.884   4.938 -0.5605 -1.7558 -0.0171
18262TIP3    H276278   6.123   2.962   5.026 -0.4777 -1.0618 -0.5363
18263TIP3   OH276279   6.142   4.240   1.663 -0.6761  0.3728  0.6575
18263TIP3    H176280   6.073   4.301   1.636  1.5596  2.0848 -1.7353
18263TIP3    H276281   6.203   4.294   1.713  0.2830 -0.3903  0.3425
18264TIP3   OH276282   4.266   1.050   1.952 -0.3623 -0.0268 -0.1969
18264TIP3    H176283   4.299   1.041   1.863  2.7328 -2.1061  0.9934
18264TIP3    H276284   4.189   0.994   1.955 -0.2017 -0.3411 -1.4294
18265TIP3   OH276285   6.030   0.669  15.364  0.6530 -0.6064 -0.1754
18265TIP3    H176286   6.053   0.605  15.432  0.1195 -1.5067 -0.8279
18265TIP3    H276287   6.114   0.705  15.336  0.8419  0.3286  1.4721
18266TIP3   OH276288   1.480   5.770  12.205  0.8516 -0.1156  0.5367
18266TIP3    H176289   1.524   5.839  12.255 -0.0808  0.3141  0.7901
18266TIP3    H276290   1.426   5.818  12.141 -0.9856 -0.5111  1.6991
18267TIP3   OH276291   5.459   0.294   5.603  0.0546  0.5718  0.2934
18267TIP3    H176292   5.499   0.331   5.525  1.0577 -0.3522  0.3515
18267TIP3    H276293   5.365   0.303   5.588  0.2323  0.3096 -1.0643
18268TIP3   OH276294   0.471   4.936   4.675 -0.4104 -0.5478  0.2172
18268TIP3    H176295   0.386   4.952   4.632  0.2323 -0.9316 -1.2553
18268TIP3    H276296   0.479   4.841   4.678 -0.3746 -0.5301  1.1146
18269TIP3   OH276297   5.728   1.996  15.064  0.3779  0.4260 -0.1412
18269TIP3    H176298   5.757   1.940  14.992  0.6704  1.6063 -0.9823
18269TIP3    H276299   5.633   1.982  15.069  0.6609 -1.5442  0.9420
18270TIP3   OH276300   4.173   3.873   1.490  0.0559  0.2510 -0.2317
18270TIP3    H176301   4.086   3.884   1.528 -0.6420 -1.1229 -1.3329
18270TIP3    H276302   4.222   3.825   1.557 -0.6603 -0.7050 -0.3612
18271TIP3   OH276303   1.909   4.146   0.402 -0.0418 -0.6802  0.1874
18271TIP3    H176304   1.979   4.134   0.466 -0.7903 -1.8629  0.8395
18271TIP3    H276305   1.932   4.086   0.331  0.7469  0.5742 -0.6384
18272TIP3   OH276306   4.526   5.864   2.887 -0.4618 -0.4001 -0.0142
18272TIP3    H176307   4.600   5.924   2.872 -1.0044  0.6384  1.2927
18272TIP3    H276308   4.485   5.897   2.967 -1.2195 -2.1055  0.3254
18273TIP3   OH276309   5.408   1.497  11.916  0.2901 -0.1159 -0.2876
18273TIP3    H176310   5.397   1.483  12.010 -1.4989  1.6857 -0.1655
18273TIP3    H276311   5.485   1.553  11.909 -0.3444  0.8355  0.2229
18274TIP3   OH276312   3.298   4.049   3.445  0.1820  0.2371 -0.2804
18274TIP3    H176313   3.380   4.098   3.446  0.0232  0.5035 -0.3713
18274TIP3    H276314   3.231   4.113   3.468  0.2096 -0.4022  1.8325
18275TIP3   OH276315   4.394   3.455  16.109  0.0860  0.1824 -0.2164
18275TIP3    H176316   4.439   3.376  16.080 -0.6908 -0.6285  0.7085
18275TIP3    H276317   4.309   3.423  16.142 -0.0265  1.3361  0.6521
18276TIP3   OH276318   3.583   5.633  11.015 -0.5904 -0.1193 -0.1064
18276TIP3    H176319   3.628   5.718  11.011  0.7296 -0.6811  1.7111
18276TIP3    H276320   3.653   5.568  11.010 -1.4539 -1.0728 -0.0587
18277TIP3   OH276321   0.236   1.925   3.638 -0.0684  0.1591  0.0083
18277TIP3    H176322   0.178   1.854   3.610 -0.9892  1.3742 -1.3353
18277TIP3    H276323   0.311   1.919   3.579  1.6871 -1.8913  2.2329
18278TIP3   OH276324   3.268   1.878  11.287  0.5908  0.0192  0.3364
18278TIP3    H176325   3.226   1.863  11.372 -0.0327  1.5103  0.3202
18278TIP3    H276326   3.321   1.957  11.300  1.1387 -0.2011 -0.4528
18279TIP3   OH276327   0.267   3.052   6.095  0.3787  0.3388 -0.0437
18279TIP3    H176328   0.209   2.983   6.063  1.7506 -1.2483  0.7412
18279TIP3    H276329   0.271   3.039   6.190  2.2024  0.2219 -0.0971
18280TIP3   OH276330   0.435   1.100  17.249 -0.9071  0.2436  0.0044
18280TIP3    H176331   0.445   1.006  17.265 -2.1290 -0.5130 -2.8941
18280TIP3    H276332   0.340   1.115  17.254 -0.6109  1.7648  2.1585
18281TIP3   OH276333   5.053   6.312   3.416 -0.1009 -0.3900  0.2288
18281TIP3    H176334   4.998   6.328   3.492 -1.2407  0.5727 -0.7503
18281TIP3    H276335   4.998   6.260   3.357 -0.2051  1.0351 -0.9920
18282TIP3   OH276336   6.239   5.379   3.329 -0.0648  0.0953  0.1301
18282TIP3    H176337   6.161   5.378   3.273 -0.7540 -0.0777  1.0665
18282TIP3    H276338   6.239   5.294   3.371  1.7647 -0.6943 -1.3368
18283TIP3   OH276339   0.489   0.609  16.947 -0.2093  0.0598 -0.1740
18283TIP3    H176340   0.529   0.692  16.973  2.6500 -0.9375 -0.9727
18283TIP3    H276341   0.479   0.560  17.029 -2.5921  1.3800  0.3950
18284TIP3   OH276342   3.023   4.497   3.041 -0.1797 -0.1789  0.5085
18284TIP3    H176343   3.114   4.486   3.069  0.6704  1.8317 -1.1606
18284TIP3    H276344   3.025   4.487   2.946 -1.4437  1.1616  0.2971
18285TIP3   OH276345   4.195   2.687  16.829  0.3212  0.7228  0.0471
18285TIP3    H176346   4.213   2.604  16.786  0.0156  0.4211  0.4917
18285TIP3    H276347   4.099   2.695  16.828  0.2990  0.6517  0.7680
18286TIP3   OH276348   4.858   2.896   2.026 -0.1048  0.5599 -0.6987
18286TIP3    H176349   4.823   2.838   2.095  1.1987 -0.5897 -0.9465
18286TIP3    H276350   4.788   2.902   1.962 -0.0709 -1.3161 -0.9674
18287TIP3   OH276351   3.958   4.018  13.468 -0.0355 -0.4529  1.2442
18287TIP3    H176352   3.975   3.950  13.402  0.2827  0.5034  0.2963
18287TIP3    H276353   4.010   3.992  13.544 -0.2937 -1.5089  1.0752
18288TIP3   OH276354   2.448   5.259   0.565 -0.4310 -0.4889  0.0733
18288TIP3    H176355   2.469   5.288   0.477  0.0441  0.4038  0.4610
18288TIP3    H276356   2.434   5.164   0.557  0.3539 -0.5424 -0.8209
18289TIP3   OH276357   3.680   1.844   2.855 -0.1964 -0.5695  0.4753
18289TIP3    H176358   3.770   1.827   2.883  0.3572  0.6355 -0.4983
18289TIP3    H276359   3.658   1.771   2.798  0.4044 -0.5432  0.2041
18290TIP3   OH276360   0.011   6.480  13.431 -0.6985 -0.7740  0.0803
18290TIP3    H176361   0.054   6.406  13.388 -1.1179 -0.2480 -1.3163
18290TIP3    H276362  -0.067   6.496  13.378  0.2797  1.7826 -0.7338
18291TIP3   OH276363   1.888   4.920  11.665  0.4590  0.1848  0.1678
18291TIP3    H176364   1.893   4.835  11.709 -1.2712 -0.4520 -0.7558
18291TIP3    H276365   1.850   4.900  11.579 -3.6691  2.2520  1.2522
18292TIP3   OH276366   3.637   3.305   0.063  0.5678 -0.0256  0.0205
18292TIP3    H176367   3.579   3.379   0.083 -0.8396 -0.9516 -0.4187
18292TIP3    H276368   3.651   3.263   0.147 -0.6456 -0.6302 -0.0517
18293TIP3   OH276369   1.902   5.880  15.964  0.1676  0.7650  0.0750
18293TIP3    H176370   1.884   5.790  15.935  1.4103  0.7645 -0.7752
18293TIP3    H276371   1.815   5.919  15.974 -0.3881 -0.4000  0.0374
18294TIP3   OH276372   1.160   2.269   5.244 -0.2900 -0.2183  1.0649
18294TIP3    H176373   1.117   2.317   5.315 -0.0959 -0.2104  1.1799
18294TIP3    H276374   1.092   2.257   5.178  0.1190  1.9682  0.1373
18295TIP3   OH276375   0.871   2.606  15.663  0.1404  0.3123  0.5166
18295TIP3    H176376   0.810   2.672  15.632  0.5611  0.2333 -0.4928
18295TIP3    H276377   0.929   2.589  15.589  0.7419 -0.3689  1.1238
18296TIP3   OH276378   3.813   3.204  16.595  0.2170  0.5055  0.3233
18296TIP3    H176379   3.733   3.163  16.629 -0.2080  2.1061  1.3740
18296TIP3    H276380   3.848   3.253  16.670  1.5266  0.8294 -0.4685
18297TIP3   OH276381   6.342   1.003  15.710  0.4694  0.8403 -0.1711
18297TIP3    H176382   6.336   1.034  15.800  1.5711 -0.1532  0.2726
18297TIP3    H276383   6.433   1.020  15.685  0.1293  1.2654 -1.1640
18298TIP3   OH276384   3.497   4.173  12.009  0.1886  0.3528  0.5996
18298TIP3    H176385   3.538   4.203  12.090  0.3343 -1.2439  1.1559
18298TIP3    H276386   3.553   4.206  11.939 -0.1458  2.0801  1.0986
18299TIP3   OH276387   6.681   2.055   1.380 -0.0605  0.4378 -0.1151
18299TIP3    H176388   6.742   1.982   1.372 -0.7553  0.0137 -2.0648
18299TIP3    H276389   6.648   2.069   1.291 -2.4695  0.9275  0.7902
18300TIP3   OH276390   3.278   2.409   1.162 -0.0790 -0.4039 -0.0303
18300TIP3    H176391   3.300   2.399   1.255  0.3175  3.4591  0.4598
18300TIP3    H276392   3.356   2.450   1.123 -0.8343 -0.4846 -1.7194
18301TIP3   OH276393   6.449   1.328   4.034 -0.0271 -0.6621 -0.4489
18301TIP3    H176394   6.410   1.385   3.968  0.5975 -0.6854 -0.8511
18301TIP3    H276395   6.412   1.241   4.017 -0.8251 -0.4284  0.0365
18302TIP3   OH276396   2.675   6.754   1.645 -0.0925 -0.0930  0.0018
18302TIP3    H176397   2.638   6.841   1.628 -1.0292 -0.3159  0.7993
18302TIP3    H276398   2.678   6.747   1.740 -1.9516 -1.6908  0.0152
18303TIP3   OH276399   5.917   2.500  16.145 -0.5857  0.3694 -0.4679
18303TIP3    H176400   5.966   2.495  16.063 -0.2864  0.2926 -0.2864
18303TIP3    H276401   5.971   2.452  16.208 -1.2841 -0.4193 -0.4548
18304TIP3   OH276402   1.861   2.236  10.810 -0.3115  0.4608 -0.2859
18304TIP3    H176403   1.881   2.143  10.823  2.7829  1.3732  2.9994
18304TIP3    H276404   1.877   2.251  10.717 -2.3817 -2.4952 -1.2695
18305TIP3   OH276405   4.239   4.573   5.771 -0.1883  0.9957  0.1222
18305TIP3    H176406   4.263   4.646   5.714 -0.4183  0.4665 -0.6648
18305TIP3    H276407   4.295   4.501   5.743 -1.5155  0.2191 -0.6600
18306TIP3   OH276408   1.828   5.811   0.666 -0.0615  0.0423 -0.0080
18306TIP3    H176409   1.867   5.881   0.613  1.3473 -0.2180  0.6301
18306TIP3    H276410   1.736   5.809   0.639  0.3300  0.7535 -1.5313
18307TIP3   OH276411   1.683   5.555  11.495 -0.0878 -0.4018  0.0165
18307TIP3    H176412   1.703   5.638  11.537 -0.9926 -0.5984  0.8660
18307TIP3    H276413   1.599   5.569  11.452 -0.1419 -0.8057 -0.0161
18308TIP3   OH276414   6.459   5.223  14.990  0.2865 -0.0480  0.1264
18308TIP3    H176415   6.482   5.314  15.007 -1.5011  0.5878 -0.6267
18308TIP3    H276416   6.471   5.212  14.896  1.2037 -0.8279  0.3185
18309TIP3   OH276417   2.591   0.032  11.169  0.1341 -0.0607 -0.2998
18309TIP3    H176418   2.523  -0.031  11.191 -0.2195  0.4026 -0.0495
18309TIP3    H276419   2.579   0.050  11.076 -0.9371  1.0103  0.0172
18310TIP3   OH276420   6.242   0.120   3.024 -0.3453  0.5282 -0.2386
18310TIP3    H176421   6.192   0.052   3.069  0.3997 -0.1979 -0.4742
18310TIP3    H276422   6.250   0.088   2.934  2.7874 -0.7871  0.3391
18311TIP3   OH276423   0.934   6.188  13.050  0.0034 -0.1683  0.3023
18311TIP3    H176424   0.871   6.238  12.997  1.2479 -0.0751 -1.1460
18311TIP3    H276425   0.957   6.247  13.121  0.7624  1.0148 -0.8812
18312TIP3   OH276426   2.760   1.176  13.210  0.3493 -0.0632  0.3498
18312TIP3    H176427   2.763   1.081  13.227  0.4419 -0.1570 -0.1835
18312TIP3    H276428   2.815   1.188  13.134 -0.5388  0.2719 -0.2521
18313TIP3   OH276429   5.754   4.307  16.694 -0.1029  0.1898  0.6299
18313TIP3    H176430   5.725   4.316  16.784  1.0197 -0.3803  1.0694
18313TIP3    H276431   5.694   4.362  16.644 -1.8084 -0.8175  1.4857
18314TIP3   OH276432   5.570   6.045  13.735 -0.0531 -0.4444 -0.1877
18314TIP3    H176433   5.526   5.996  13.805  1.5185  1.1036  2.0370
18314TIP3    H276434   5.651   5.996  13.720 -0.7876 -1.2681 -1.6424
18315TIP3   OH276435   2.537   0.341  13.406 -0.3479 -0.0710 -0.3557
18315TIP3    H176436   2.558   0.248  13.415  2.2441  0.4489 -0.3202
18315TIP3    H276437   2.504   0.367  13.492 -0.2035 -0.7672 -0.0855
18316TIP3   OH276438   2.439   0.346   0.206 -0.4241  0.1306 -0.0813
18316TIP3    H176439   2.472   0.257   0.195 -0.2712  0.0347  1.0515
18316TIP3    H276440   2.345   0.340   0.187 -0.5866 -0.4617  0.8830
18317TIP3   OH276441   4.541   5.840   2.550  0.1114  0.2689  0.0441
18317TIP3    H176442   4.632   5.843   2.578 -0.3218  1.3147  1.4461
18317TIP3    H276443   4.501   5.774   2.606 -0.2661  0.7466  0.3468
18318TIP3   OH276444   2.112   3.058   3.371  0.5473  0.5155 -0.7460
18318TIP3    H176445   2.075   3.087   3.287 -0.4684  0.5737 -0.2926
18318TIP3    H276446   2.199   3.097   3.373  0.3082  1.1245 -1.4586
18319TIP3   OH276447   1.778   5.681   3.003 -0.6300  0.1878  0.2987
18319TIP3    H176448   1.798   5.741   3.075  0.5734 -0.2529  0.3586
18319TIP3    H276449   1.799   5.595   3.038 -0.2191 -0.0510 -0.5184
18320TIP3   OH276450   4.075   6.362  13.959  0.8735 -0.1377  0.3867
18320TIP3    H176451   3.985   6.328  13.956  0.9005 -0.4158  1.7643
18320TIP3    H276452   4.109   6.349  13.871 -0.4942  0.1445 -0.2176
18321TIP3   OH276453   5.911   4.829   5.091  0.4907 -0.4538 -0.7435
18321TIP3    H176454   5.960   4.855   5.168 -1.1651 -0.1898  0.2585
18321TIP3    H276455   5.969   4.767   5.045  0.7211 -2.2786  1.8002
18322TIP3   OH276456   4.994   2.640   4.148 -0.6867 -0.3826  0.2040
18322TIP3    H176457   4.901   2.660   4.153 -0.6023 -0.2840  2.2185
18322TIP3    H276458   5.037   2.726   4.154 -0.4505 -0.5329  0.6892
18323TIP3   OH276459   5.915   3.827  14.014  0.4093  0.3898  0.2685
18323TIP3    H176460   5.907   3.741  14.057 -0.0943  0.2880 -0.0185
18323TIP3    H276461   5.922   3.889  14.086  0.9678  0.0934  0.4793
18324TIP3   OH276462   4.207   5.439   3.902  0.6119  0.1067 -0.1286
18324TIP3    H176463   4.217   5.499   3.975 -0.3897  0.7844 -0.5271
18324TIP3    H276464   4.292   5.394   3.895  0.9433  0.5495  0.9767
18325TIP3   OH276465   2.623   0.661   5.771 -0.6324  0.0416  0.2969
18325TIP3    H176466   2.676   0.595   5.725 -1.4213 -0.8922  0.6755
18325TIP3    H276467   2.673   0.681   5.849 -0.2487  0.1086  0.0384
18326TIP3   OH276468   0.504   5.310  12.280  0.3631  0.2982 -0.3587
18326TIP3    H176469   0.554   5.245  12.230  4.0539 -0.3309  3.5732
18326TIP3    H276470   0.488   5.268  12.364 -3.3746  2.1490  0.0632
18327TIP3   OH276471   4.937   1.845   2.236 -0.2004 -0.4695 -0.2576
18327TIP3    H176472   4.947   1.766   2.288  0.3660 -0.3870 -0.2265
18327TIP3    H276473   4.859   1.830   2.183  0.3651 -1.3942 -0.8575
18328TIP3   OH276474   1.254   4.720  13.935  0.1931  0.5958  0.4378
18328TIP3    H176475   1.230   4.628  13.947 -2.0639  0.9872 -0.4660
18328TIP3    H276476   1.237   4.737  13.842  1.6064  1.6710  0.3459
18329TIP3   OH276477   3.339   2.329  12.481  0.7276  1.2050 -0.2238
18329TIP3    H176478   3.256   2.340  12.434  0.5018  1.2475  0.1787
18329TIP3    H276479   3.331   2.388  12.556 -0.0597 -0.8372  1.3912
18330TIP3   OH276480   4.939   6.323  11.641  0.6015  0.4202 -0.1940
18330TIP3    H176481   4.889   6.403  11.660  2.2393  1.6605 -0.9354
18330TIP3    H276482   4.907   6.295  11.556  0.8660  0.9617 -0.4738
18331TIP3   OH276483   0.499   2.733   3.759 -0.0994  0.3025  0.3621
18331TIP3    H176484   0.584   2.734   3.715  0.1820 -0.0991  0.8901
18331TIP3    H276485   0.461   2.648   3.736 -0.8052  0.8891 -0.7032
18332TIP3   OH276486   5.498   3.120  10.627  0.2158 -0.0268  0.5858
18332TIP3    H176487   5.455   3.121  10.542 -1.9139  0.4215  1.5864
18332TIP3    H276488   5.557   3.196  10.626  2.1817 -1.4513 -1.3332
18333TIP3   OH276489   2.146   2.706  12.065  0.1401 -0.1096  0.7500
18333TIP3    H176490   2.189   2.791  12.053 -0.4661  0.7222  3.7011
18333TIP3    H276491   2.203   2.644  12.019 -0.2483  1.9617 -2.9323
18334TIP3   OH276492   1.091   3.299   5.696 -0.2921 -0.3942 -0.4634
18334TIP3    H176493   1.111   3.266   5.609 -0.3860  0.4013 -0.7989
18334TIP3    H276494   1.166   3.354   5.719 -1.2603  1.2107 -1.0025
18335TIP3   OH276495   2.297   2.859  15.364 -0.0571  0.3677  0.7597
18335TIP3    H176496   2.386   2.891  15.347 -0.6305  1.1367 -1.0883
18335TIP3    H276497   2.305   2.763  15.361  0.6089  0.4365  0.0298
18336TIP3   OH276498   2.935   0.292  15.172 -0.0787  0.0992  0.4043
18336TIP3    H176499   3.024   0.258  15.162  0.0647  0.0998  1.6324
18336TIP3    H276500   2.892   0.266  15.090  1.2996  0.9322 -0.6432
18337TIP3   OH276501   1.527   4.040   6.327  0.4086  0.2444  0.2561
18337TIP3    H176502   1.603   4.084   6.363  0.1114  0.5502  0.5185
18337TIP3    H276503   1.452   4.091   6.359  0.1580  0.8890 -1.2654
18338TIP3   OH276504   2.215   3.746  17.009 -0.0904 -0.4241 -0.5969
18338TIP3    H176505   2.190   3.780  16.923 -0.0559  0.4394 -0.2667
18338TIP3    H276506   2.165   3.665  17.017 -1.3659  0.3330 -0.7344
18339TIP3   OH276507   3.791   5.794  16.420 -0.1593  0.3147  0.0681
18339TIP3    H176508   3.839   5.712  16.426 -1.2579 -0.3825 -0.4645
18339TIP3    H276509   3.852   5.860  16.454  0.0694 -0.9742  2.4086
18340TIP3   OH276510   2.731   3.971   2.939 -0.0460  0.5449  0.2661
18340TIP3    H176511   2.757   3.908   2.872  0.4213  0.8015  0.2033
18340TIP3    H276512   2.649   4.008   2.907 -0.0384  0.3693  0.0395
18341TIP3   OH276513   0.582   6.426  12.214  0.5628 -0.1293 -0.4915
18341TIP3    H176514   0.627   6.438  12.130  2.1875  1.0492  0.4868
18341TIP3    H276515   0.518   6.498  12.217  1.1386  0.3794 -0.3304
18342TIP3   OH276516   1.389   3.313   1.242  0.2621 -0.2891 -0.2161
18342TIP3    H176517   1.394   3.408   1.232  0.6840 -0.2052  0.7040
18342TIP3    H276518   1.326   3.285   1.176 -1.0427  0.7973  0.5347
18343TIP3   OH276519   2.513   4.686   2.671  0.0587 -0.3785 -0.2582
18343TIP3    H176520   2.541   4.773   2.698  1.2482  0.0490 -2.5972
18343TIP3    H276521   2.418   4.689   2.675  0.1033  0.0652  2.2938
18344TIP3   OH276522   0.130   1.048   4.591 -0.1214  0.1002  0.1519
18344TIP3    H176523   0.051   1.076   4.638 -0.6238 -0.4329 -0.3722
18344TIP3    H276524   0.157   1.126   4.543 -1.8539 -0.4173 -1.7677
18345TIP3   OH276525   3.126   1.217  14.436 -0.0828 -0.3840  0.2528
18345TIP3    H176526   3.108   1.171  14.354  1.8069 -0.2875 -0.2630
18345TIP3    H276527   3.102   1.153  14.504  2.0907 -2.0599 -0.4380
18346TIP3   OH276528   2.701   3.906  14.932 -0.1648  0.0966 -0.7250
18346TIP3    H176529   2.674   3.987  14.976 -1.3973 -0.5478 -0.2574
18346TIP3    H276530   2.693   3.926  14.838  1.3336  1.0910 -0.6748
18347TIP3   OH276531   5.239   4.079  16.206 -0.6939  0.3051 -0.0533
18347TIP3    H176532   5.215   4.013  16.142  0.9987 -0.7187  0.3066
18347TIP3    H276533   5.246   4.160  16.155  0.1887 -0.3988 -1.0942
18348TIP3   OH276534   6.030   0.332   4.618 -1.0669  0.3986 -0.7225
18348TIP3    H176535   6.021   0.428   4.615 -1.5292  0.4242  0.7616
18348TIP3    H276536   5.944   0.302   4.648  0.2012 -0.1899  2.6800
18349TIP3   OH276537   3.227   1.532   1.282 -0.3595  0.0141  0.1132
18349TIP3    H176538   3.209   1.553   1.190 -0.3637  1.3809  0.4095
18349TIP3    H276539   3.310   1.574   1.301 -1.4223  1.7109  1.3313
18350TIP3   OH276540   4.544   3.526  10.978  0.4324  0.2356  0.0229
18350TIP3    H176541   4.585   3.606  10.945  1.2257 -0.8029 -1.6813
18350TIP3    H276542   4.450   3.541  10.969  0.5903  0.6863 -1.0841
18351TIP3   OH276543   0.544   3.678  13.568  0.5033  0.0331  0.3430
18351TIP3    H176544   0.614   3.741  13.549  0.1548 -0.2425 -2.1166
18351TIP3    H276545   0.463   3.725  13.549  0.1192 -0.4360  0.7704
18352TIP3   OH276546   5.913   4.403   1.601 -0.5685  0.0049  0.0696
18352TIP3    H176547   5.955   4.488   1.608  0.8459 -0.6409 -0.3228
18352TIP3    H276548   5.822   4.423   1.579 -0.4564  1.4209  0.7815
18353TIP3   OH276549   5.720   3.803   5.408 -0.6381  0.8371 -0.4281
18353TIP3    H176550   5.697   3.891   5.438 -0.1730  1.1157 -0.8654
18353TIP3    H276551   5.660   3.786   5.335 -2.7329 -0.4006  1.4367
18354TIP3   OH276552   2.466   1.654  13.405 -0.1388  0.1172  0.0839
18354TIP3    H176553   2.420   1.700  13.475  0.2987  0.6932  0.0018
18354TIP3    H276554   2.418   1.572  13.394 -0.5204  0.2530  0.7016
18355TIP3   OH276555   0.898   4.435   5.491 -0.7822 -0.2921  0.1764
18355TIP3    H176556   0.967   4.390   5.540 -0.7821  0.9350  1.3502
18355TIP3    H276557   0.879   4.513   5.542 -1.4221  0.5872 -1.3387
18356TIP3   OH276558   1.175   6.520  17.202 -0.1927 -0.3401 -0.6314
18356TIP3    H176559   1.087   6.507  17.166 -0.2918 -0.9670 -0.1709
18356TIP3    H276560   1.170   6.604  17.247 -0.2009  0.2376 -1.6571
18357TIP3   OH276561   6.140   0.092  16.644  0.2221  0.0344 -0.3814
18357TIP3    H176562   6.201   0.143  16.698 -0.0164  1.9713 -1.8396
18357TIP3    H276563   6.083   0.158  16.604 -1.9307 -1.6158 -0.1875
18358TIP3   OH276564   0.478   6.716  12.167  0.2638  0.1821 -0.1292
18358TIP3    H176565   0.446   6.668  12.090 -0.4538  1.2778 -0.5457
18358TIP3    H276566   0.399   6.756  12.205  0.8572  1.2526  0.0296
18359TIP3   OH276567   2.198   6.065  16.380  0.1073  0.1241  0.1305
18359TIP3    H176568   2.218   6.053  16.287 -1.7407  0.8643 -0.4100
18359TIP3    H276569   2.239   5.990  16.423  1.7677  0.2432 -1.1410
18360TIP3   OH276570   0.337   3.643   5.155  0.1512 -0.1247  0.1012
18360TIP3    H176571   0.424   3.604   5.164 -0.1875 -0.5471  2.2979
18360TIP3    H276572   0.339   3.717   5.215 -1.0028 -0.1603  0.1973
18361TIP3   OH276573   5.116   6.176   4.219  0.2088  0.1706 -0.2221
18361TIP3    H176574   5.114   6.253   4.275 -0.0061  0.1852 -0.2486
18361TIP3    H276575   5.206   6.145   4.224  0.4451  0.7678 -0.6789
18362TIP3   OH276576   5.854   0.953  14.023 -0.3770 -0.1027  0.1607
18362TIP3    H176577   5.929   0.906  13.988 -1.2510 -0.0658 -1.9045
18362TIP3    H276578   5.891   1.017  14.083  1.4427  1.2445 -2.2664
18363TIP3   OH276579   5.512   6.143  16.353  0.3299  0.8778 -0.1768
18363TIP3    H176580   5.429   6.107  16.385  1.2874 -0.0873  1.3323
18363TIP3    H276581   5.524   6.224  16.401  0.7116  0.5296  0.3274
18364TIP3   OH276582   0.889   3.086   4.644 -0.3025  0.0384  0.2657
18364TIP3    H176583   0.965   3.134   4.678 -0.8540 -0.0749  1.7417
18364TIP3    H276584   0.906   3.076   4.551  1.5634 -0.0898  0.5834
18365TIP3   OH276585   5.366   1.861   0.725  0.6769  0.0186  0.0142
18365TIP3    H176586   5.401   1.811   0.651  1.7121  0.0572  0.4700
18365TIP3    H276587   5.431   1.929   0.742  1.4480 -1.1684  2.1914
18366TIP3   OH276588   0.736   1.172   5.982 -0.0520 -0.1864  0.3853
18366TIP3    H176589   0.739   1.265   5.961 -0.6237 -0.5133 -1.3170
18366TIP3    H276590   0.772   1.166   6.070 -0.6572  1.7241  0.8089
18367TIP3   OH276591   5.472   0.700   5.218 -0.3560  0.0353  0.1276
18367TIP3    H176592   5.489   0.629   5.155 -1.4829 -0.3836  0.2776
18367TIP3    H276593   5.550   0.702   5.273  0.1700 -0.3310 -0.5905
18368TIP3   OH276594   0.382   1.685   6.243 -0.1147 -0.1628  0.3432
18368TIP3    H176595   0.304   1.637   6.270  0.7141 -2.9396 -1.7917
18368TIP3    H276596   0.369   1.704   6.150  0.6356  1.7680  0.5724
18369TIP3   OH276597   0.784   4.118  12.276 -0.2271  0.0922  0.3115
18369TIP3    H176598   0.809   4.026  12.291  3.0101  0.9746  1.1627
18369TIP3    H276599   0.825   4.140  12.193 -1.0445  0.7776  0.0839
18370TIP3   OH276600   3.221   5.925   0.514  0.5301  0.1934 -0.1400
18370TIP3    H176601   3.290   5.973   0.559 -0.1828  0.7839  0.3445
18370TIP3    H276602   3.267   5.871   0.450  1.6000 -0.7737  1.3633
18371TIP3   OH276603   2.384   1.995   5.209 -0.3483  0.1361  0.2128
18371TIP3    H176604   2.303   1.945   5.207 -0.3722  0.0663  1.5297
18371TIP3    H276605   2.387   2.032   5.298  1.0645  0.1060  0.2071
18372TIP3   OH276606   4.522   3.649   2.266 -0.2103  0.1809  0.5981
18372TIP3    H176607   4.426   3.651   2.255 -0.2245  0.5496  0.7739
18372TIP3    H276608   4.552   3.730   2.224 -0.0561  0.4815  1.2700
18373TIP3   OH276609   6.007   3.636   3.475 -0.2566 -0.2468 -0.1552
18373TIP3    H176610   5.955   3.648   3.555 -0.7199  2.0395 -0.7277
18373TIP3    H276611   6.098   3.646   3.504 -0.4141  0.4377  0.1199
18374TIP3   OH276612   2.522   6.189   4.756 -0.4535 -0.5675  0.1447
18374TIP3    H176613   2.442   6.200   4.704 -0.9995 -1.1459  0.8427
18374TIP3    H276614   2.590   6.171   4.691 -0.9499 -0.4017 -0.4337
18375TIP3   OH276615   3.643   0.988  10.769 -0.1381 -0.5888 -0.3768
18375TIP3    H176616   3.556   1.025  10.779  0.1052 -0.5256  2.2644
18375TIP3    H276617   3.679   1.031  10.692 -1.9496  0.3697 -0.7321
18376TIP3   OH276618   2.438   3.558  10.830  0.0392 -0.4543 -0.1564
18376TIP3    H176619   2.497   3.524  10.763  0.0050 -0.0123 -0.4176
18376TIP3    H276620   2.354   3.568  10.786 -0.1230 -0.6911  0.1022
18377TIP3   OH276621   0.628   2.778  15.588  0.3844  0.2371  0.1813
18377TIP3    H176622   0.575   2.836  15.644  2.2070 -0.7512  3.1724
18377TIP3    H276623   0.565   2.743  15.524 -2.1532  0.7020  2.2312
18378TIP3   OH276624   5.275   5.146  10.725 -0.0190 -0.3076  0.3650
18378TIP3    H176625   5.366   5.176  10.725 -0.3704  0.8287 -0.1216
18378TIP3    H276626   5.233   5.198  10.793 -0.4221 -0.4330  0.2146
18379TIP3   OH276627   6.277   3.139   0.900 -0.5251 -0.0306 -0.2958
18379TIP3    H176628   6.218   3.152   0.825 -0.3240 -0.4356 -0.5280
18379TIP3    H276629   6.313   3.051   0.886  1.6303  0.9277 -1.2000
18380TIP3   OH276630   5.001   4.836  13.383 -0.1631 -0.0736  0.1996
18380TIP3    H176631   5.089   4.872  13.378  0.1647 -0.8094  0.5889
18380TIP3    H276632   4.969   4.861  13.470 -0.0635 -0.4274  0.3386
18381TIP3   OH276633   3.090   6.263  14.911  0.0139 -0.0284 -0.1784
18381TIP3    H176634   3.028   6.241  14.981  0.5774  2.4722  1.2156
18381TIP3    H276635   3.035   6.300  14.841 -0.2710  0.0703  0.0974
18382TIP3   OH276636   3.045   4.353   6.041 -0.5360  0.0903  1.0083
18382TIP3    H176637   2.974   4.350   6.105 -2.5685  1.7907 -1.0098
18382TIP3    H276638   3.038   4.440   6.002  0.7813 -0.7737 -1.3201
18383TIP3   OH276639   1.693   5.975   1.341 -0.2108  0.2067  0.1052
18383TIP3    H176640   1.746   6.047   1.308 -0.3427 -0.6009 -2.0483
18383TIP3    H276641   1.755   5.903   1.353 -0.0664  0.6139  2.2963
18384TIP3   OH276642   0.513   0.643   1.980 -0.0870 -0.3167 -0.2547
18384TIP3    H176643   0.442   0.586   1.950  1.7775 -2.4396 -0.8400
18384TIP3    H276644   0.589   0.617   1.929  1.9702 -0.4596  2.6541
18385TIP3   OH276645   0.563   3.815   5.276 -0.0350  0.8818  0.2493
18385TIP3    H176646   0.658   3.822   5.281 -0.0508  0.6879  0.8284
18385TIP3    H276647   0.539   3.871   5.202  0.5938  0.3560 -0.3628
18386TIP3   OH276648   4.258   2.197  16.639  0.0634  0.3504  0.4157
18386TIP3    H176649   4.223   2.262  16.578  1.1933  0.5109 -0.0958
18386TIP3    H276650   4.342   2.234  16.666  0.7618 -0.9171  0.0607
18387TIP3   OH276651   3.001   5.415   5.955 -0.0815  0.1612 -0.4191
18387TIP3    H176652   3.022   5.342   6.014 -0.6927 -0.7753 -1.3068
18387TIP3    H276653   2.989   5.373   5.870  1.6754  1.5755 -1.4417
18388TIP3   OH276654   6.374   3.466  13.700  0.1979  0.0289  0.1419
18388TIP3    H176655   6.324   3.546  13.713  0.9700  0.3679  1.1816
18388TIP3    H276656   6.438   3.466  13.771  2.3242  0.0960 -1.6880
18389TIP3   OH276657   0.469   3.448  13.378  0.4062  0.3198 -0.2451
18389TIP3    H176658   0.555   3.465  13.415 -0.4073 -0.0609  1.9360
18389TIP3    H276659   0.487   3.406  13.294  2.3331 -0.6558  0.5957
18390TIP3   OH276660   6.387   1.917  13.646  0.2708 -0.0738  0.0673
18390TIP3    H176661   6.324   1.894  13.579 -0.0063  0.0570  0.2792
18390TIP3    H276662   6.334   1.930  13.725  0.7820 -2.2159  0.8211
18391TIP3   OH276663   3.574   2.462   6.452  0.1256  0.3793  0.0554
18391TIP3    H176664   3.635   2.509   6.396 -0.0513 -0.3545 -0.7763
18391TIP3    H276665   3.509   2.527   6.478 -1.2148  0.2336 -2.6323
18392TIP3   OH276666   3.139   0.181  10.940 -0.7693 -0.1226  0.5468
18392TIP3    H176667   3.121   0.106  10.996  0.1755 -0.8075 -0.0493
18392TIP3    H276668   3.202   0.233  10.990 -0.7040 -0.2114  0.5571
18393TIP3   OH276669   0.649   3.792   4.163 -0.1381 -0.2440  0.2869
18393TIP3    H176670   0.712   3.761   4.099 -0.9783 -0.3380 -0.5119
18393TIP3    H276671   0.699   3.854   4.217  0.7013 -0.5244 -0.1474
18394TIP3   OH276672   6.716   5.077  10.992  0.0643 -0.1820 -0.5596
18394TIP3    H176673   6.809   5.060  11.008  0.2115  1.2280  0.2721
18394TIP3    H276674   6.695   5.024  10.915  1.4901 -0.7130 -0.6196
18395TIP3   OH276675   5.630   3.558   2.177 -0.8724 -0.2134 -0.4544
18395TIP3    H176676   5.702   3.563   2.115 -0.9977 -2.2443 -0.8353
18395TIP3    H276677   5.653   3.622   2.245 -0.3465  1.4872 -2.1377
18396TIP3   OH276678   0.036   0.278   1.929 -0.1599 -0.4123 -0.1526
18396TIP3    H176679   0.004   0.359   1.888 -2.6375 -1.4399 -0.4419
18396TIP3    H276680   0.050   0.303   2.021 -1.4227  0.2662 -0.1120
18397TIP3   OH276681   3.992   1.295  10.764  0.1622 -0.2664  0.4536
18397TIP3    H176682   3.945   1.325  10.686 -1.1913 -0.2638  1.2436
18397TIP3    H276683   4.080   1.330  10.754 -0.3857  0.9246 -0.4001
18398TIP3   OH276684   6.529   2.867   3.909  0.1779 -0.3149  0.2353
18398TIP3    H176685   6.470   2.920   3.855  1.0169 -0.1372 -0.5333
18398TIP3    H276686   6.475   2.838   3.983 -1.0283 -0.6817 -0.7696
18399TIP3   OH276687   5.695   3.698  15.051  0.2648  0.4167 -0.0515
18399TIP3    H176688   5.652   3.678  14.968 -1.0181  3.2237 -0.1606
18399TIP3    H276689   5.635   3.667  15.118 -1.0799  2.4634 -0.2234
18400TIP3   OH276690   3.610   3.705  13.204  0.2779 -0.3361 -0.6113
18400TIP3    H176691   3.635   3.705  13.297 -0.2834 -0.4251 -0.4581
18400TIP3    H276692   3.529   3.755  13.201 -0.2502 -1.1893 -0.9056
18401TIP3   OH276693   3.442   5.646   0.016  0.2711  0.2228  0.2881
18401TIP3    H176694   3.352   5.646   0.049  0.0598  0.2331 -0.2924
18401TIP3    H276695   3.454   5.733  -0.022  0.6063  0.3035  0.5662
18402TIP3   OH276696   0.830   4.995   4.107 -0.0072 -0.4421 -0.2138
18402TIP3    H176697   0.833   5.084   4.143 -0.6906 -0.6602  0.3962
18402TIP3    H276698   0.888   4.998   4.031  1.2573  0.1084  0.7390
18403TIP3   OH276699   0.170   6.087   5.085  0.5338 -0.7946 -0.5031
18403TIP3    H176700   0.120   6.084   5.003 -0.6607  1.7516  0.0348
18403TIP3    H276701   0.261   6.089   5.057  0.1828 -0.8749 -1.7243
18404TIP3   OH276702   0.395   1.613  12.963 -0.0942 -0.1208 -0.4353
18404TIP3    H176703   0.468   1.635  12.905 -0.1466  0.4161 -0.2950
18404TIP3    H276704   0.318   1.648  12.920 -0.3184 -0.9733 -0.7407
18405TIP3   OH276705   1.900   4.918  16.922  0.4712 -0.0076 -0.1621
18405TIP3    H176706   1.974   4.910  16.982  0.5562  0.1935 -0.2410
18405TIP3    H276707   1.862   5.003  16.941 -0.5781 -0.6634  0.8233
18406TIP3   OH276708   3.110   2.583   1.263  0.4326  0.2821  0.2688
18406TIP3    H176709   3.082   2.530   1.338  0.7804 -0.2101  0.0503
18406TIP3    H276710   3.169   2.527   1.213 -0.8233  0.1199 -1.1101
18407TIP3   OH276711   3.272   1.968  13.539  0.2865  0.4990 -0.0489
18407TIP3    H176712   3.339   1.911  13.578  1.6206  2.9300  1.4888
18407TIP3    H276713   3.194   1.914  13.534  0.8139 -0.8122  3.5146
18408TIP3   OH276714   1.745   5.654   4.885 -0.8517 -0.4768  0.1654
18408TIP3    H176715   1.685   5.599   4.935 -3.3486  2.2623  0.5053
18408TIP3    H276716   1.693   5.685   4.810  0.5119  1.0363 -0.2201
18409TIP3   OH276717   3.164   0.481  15.258  0.4145 -0.1707 -0.0429
18409TIP3    H176718   3.122   0.477  15.344 -1.0168  0.4836 -0.6805
18409TIP3    H276719   3.184   0.390  15.236 -1.2704 -0.5711  0.0129
18410TIP3   OH276720   3.123   3.136  15.324  0.2564 -0.2170 -0.2075
18410TIP3    H176721   3.087   3.167  15.407 -0.3628 -0.1006 -0.5101
18410TIP3    H276722   3.156   3.214  15.281 -0.2741 -0.1324 -0.4733
18411TIP3   OH276723   2.356   0.746  17.032 -0.0245 -0.2214 -0.2764
18411TIP3    H176724   2.383   0.750  17.124 -4.1496 -0.1636  1.1259
18411TIP3    H276725   2.404   0.817  16.990 -0.0033  1.5579  2.4795
18412TIP3   OH276726   0.713   0.112   3.992  0.2183 -0.1270  0.3383
18412TIP3    H176727   0.630   0.077   4.024  0.0980  0.6383  0.8967
18412TIP3    H276728   0.694   0.145   3.905  0.4461 -1.8518 -0.4097
18413TIP3   OH276729   5.386   6.682  17.203  0.3689 -0.0823 -0.8850
18413TIP3    H176730   5.473   6.648  17.183 -0.0939 -1.1229 -1.1870
18413TIP3    H276731   5.383   6.767  17.159  2.0394  1.0722  1.0131
18414TIP3   OH276732   0.014   6.662   6.791 -0.2531 -0.4226 -0.2400
18414TIP3    H176733   0.075   6.691   6.724 -0.3688  1.5418  0.4346
18414TIP3    H276734   0.042   6.707   6.871 -1.9016 -0.3382  0.3332
18415TIP3   OH276735   0.738   3.104  11.137  0.3215  0.7092  0.3697
18415TIP3    H176736   0.798   3.088  11.210  0.3052  1.7099  0.6185
18415TIP3    H276737   0.681   3.175  11.168 -0.5460  0.2461 -0.1256
18416TIP3   OH276738   0.533   4.332   1.404  0.5774  0.1785  0.2503
18416TIP3    H176739   0.600   4.320   1.471  0.7549 -1.4980 -0.1845
18416TIP3    H276740   0.563   4.408   1.353  0.6301  1.2380  1.8051
18417TIP3   OH276741   0.495   3.362  11.661  0.5030  0.1763  0.3353
18417TIP3    H176742   0.576   3.377  11.709  0.1484 -0.3578  1.1167
18417TIP3    H276743   0.486   3.440  11.606  0.4339  1.2913  1.8491
18418TIP3   OH276744   0.493   6.611   4.866 -0.6512  0.0808  0.1250
18418TIP3    H176745   0.406   6.592   4.899 -0.8399 -1.6060 -1.2096
18418TIP3    H276746   0.491   6.583   4.774  1.1380  0.4824 -0.0776
18419TIP3   OH276747   4.033   4.238  10.276 -0.4639  0.3253 -0.1129
18419TIP3    H176748   3.958   4.192  10.237 -0.5789  0.3054  0.1353
18419TIP3    H276749   4.105   4.175  10.268 -0.7873 -0.1854  0.8806
18420TIP3   OH276750   2.874   4.765   2.630 -0.5144  0.1227 -0.2803
18420TIP3    H176751   2.896   4.809   2.712  3.1606 -0.5746 -0.7416
18420TIP3    H276752   2.846   4.836   2.572 -0.5674  0.9888  0.7683
18421TIP3   OH276753   4.649   1.206   0.130 -0.5480  0.2990 -0.2905
18421TIP3    H176754   4.605   1.122   0.128 -1.1035  0.5925 -0.7205
18421TIP3    H276755   4.727   1.194   0.075 -0.0810 -0.2138  0.4624
18422TIP3   OH276756   4.256   1.385  12.174 -0.5426  0.9110 -0.0412
18422TIP3    H176757   4.351   1.387  12.178 -0.5179  0.2451 -0.2934
18422TIP3    H276758   4.228   1.385  12.266 -0.3244  1.8782  0.0368
18423TIP3   OH276759   5.742   1.920   3.075 -0.0435 -0.5119  0.1332
18423TIP3    H176760   5.667   1.881   3.120  0.9962 -3.0289 -0.1476
18423TIP3    H276761   5.802   1.944   3.146 -0.2890 -0.2654  0.2630
18424TIP3   OH276762   3.864   3.570  14.863 -0.0405 -0.3688  0.2630
18424TIP3    H176763   3.899   3.503  14.804 -0.0917 -0.3739  0.2394
18424TIP3    H276764   3.798   3.616  14.811  0.2139 -0.0986  0.1785
18425TIP3   OH276765   1.296   3.110   0.828  0.0669 -0.1421 -0.1813
18425TIP3    H176766   1.390   3.100   0.842 -0.1513 -2.2737  0.1970
18425TIP3    H276767   1.269   3.027   0.787 -1.6245  0.4564 -0.3662
18426TIP3   OH276768   6.045   3.139  12.189 -0.2794 -0.1937  0.1021
18426TIP3    H176769   6.018   3.048  12.178 -0.6750 -0.0100 -0.5412
18426TIP3    H276770   6.101   3.139  12.267  1.3398 -1.3313 -0.9898
18427TIP3   OH276771   5.860   3.928  14.358  0.4398  0.1496  0.3764
18427TIP3    H176772   5.902   3.993  14.302  0.1010 -0.1173 -0.1929
18427TIP3    H276773   5.932   3.872  14.388  0.6091  0.2321  0.1272
18428TIP3   OH276774   0.683   4.870  16.762 -0.1437 -1.2664 -0.4590
18428TIP3    H176775   0.674   4.957  16.722 -0.1860 -1.2803 -0.4799
18428TIP3    H276776   0.771   4.871  16.800 -1.0749 -0.2455  1.8355
18429TIP3   OH276777   4.121   6.285   3.755 -0.4594  0.0308 -0.1420
18429TIP3    H176778   4.049   6.277   3.693  0.8919 -0.9769 -1.6505
18429TIP3    H276779   4.166   6.201   3.752  1.9781  1.2543 -0.7921
18430TIP3   OH276780   2.187   5.736  15.437 -0.1166  0.2653  0.8337
18430TIP3    H176781   2.224   5.803  15.379  0.2374 -0.6245  0.0116
18430TIP3    H276782   2.103   5.772  15.464  0.3563  1.3367  0.9471
18431TIP3   OH276783   6.692   5.645  15.621 -0.3718  0.4054 -0.5371
18431TIP3    H176784   6.605   5.612  15.643  0.4046 -0.3974  1.5052
18431TIP3    H276785   6.726   5.582  15.557  0.2993 -1.7780  1.8163
18432TIP3   OH276786   6.438   0.322   4.217 -0.1684 -0.0016 -0.2177
18432TIP3    H176787   6.376   0.349   4.285  0.6087 -0.8255  0.8643
18432TIP3    H276788   6.522   0.357   4.246 -0.1241  1.2339 -1.7481
18433TIP3   OH276789   2.298   5.949  15.304 -0.2184  0.8768  0.1846
18433TIP3    H176790   2.211   5.987  15.305 -1.4617 -1.7293  0.0854
18433TIP3    H276791   2.328   5.957  15.214 -0.5598  1.3476  0.1137
18434TIP3   OH276792   4.964   1.515  13.051 -0.1886  0.1251 -0.3079
18434TIP3    H176793   4.916   1.485  12.974 -0.7105  0.1248  0.0144
18434TIP3    H276794   5.056   1.514  13.024 -0.4050  0.5861 -1.0837
18435TIP3   OH276795   2.818   2.146   0.358 -0.1811  0.6028 -0.0189
18435TIP3    H176796   2.894   2.201   0.335 -2.0094  3.3910  0.1482
18435TIP3    H276797   2.754   2.164   0.289 -0.9165 -1.3001  0.1269
18436TIP3   OH276798   5.003   4.576   5.271 -0.0074  0.3816 -0.0383
18436TIP3    H176799   4.963   4.525   5.200  1.2372 -0.7046  0.0216
18436TIP3    H276800   5.097   4.572   5.254  0.2377  1.0219  1.0789
18437TIP3   OH276801   5.455   0.646  13.466  0.0262  0.1624  0.8723
18437TIP3    H176802   5.429   0.688  13.547  2.5823  1.4374  1.1545
18437TIP3    H276803   5.413   0.698  13.397 -1.0990 -0.1228  1.3337
18438TIP3   OH276804   0.926   6.247  13.678  0.1181  0.3486  0.3337
18438TIP3    H176805   0.974   6.330  13.679 -0.0152  0.4448 -0.3930
18438TIP3    H276806   0.851   6.261  13.736  0.6794  0.3700  1.0673
18439TIP3   OH276807   1.226   0.594  13.872 -0.2348  0.1977 -0.7240
18439TIP3    H176808   1.207   0.600  13.779 -0.8628  1.1098 -0.5517
18439TIP3    H276809   1.244   0.501  13.888 -0.9140 -0.0918 -1.6000
18440TIP3   OH276810   3.119   4.225   5.650  0.4021  0.3007  0.4042
18440TIP3    H176811   3.203   4.191   5.682  1.7677  1.9402 -1.2333
18440TIP3    H276812   3.062   4.148   5.646  1.8613 -0.8799  1.4034
18441TIP3   OH276813   3.112   1.033   4.140  0.8849 -0.2641 -0.4224
18441TIP3    H176814   3.184   1.008   4.198  0.1144  0.0148  0.6818
18441TIP3    H276815   3.034   0.992   4.179  0.4135 -0.4568 -1.5234
18442TIP3   OH276816   0.405   0.990  11.412 -1.0100  0.2217 -0.3911
18442TIP3    H176817   0.433   1.082  11.404 -0.1196  0.0527  0.6562
18442TIP3    H276818   0.400   0.959  11.321  1.5263  0.4775 -0.6700
18443TIP3   OH276819   5.425   5.079   3.112  0.0990  0.5706  0.5978
18443TIP3    H176820   5.416   5.003   3.054  2.0653  0.4210  0.4341
18443TIP3    H276821   5.337   5.092   3.147 -0.3173 -1.7759  0.6159
18444TIP3   OH276822   2.945   2.140   4.259 -0.3254  0.3859 -0.6790
18444TIP3    H176823   2.996   2.142   4.179 -0.5081  0.4972 -0.7944
18444TIP3    H276824   2.919   2.048   4.268 -0.0686  0.3208 -0.5951
18445TIP3   OH276825   4.975   3.504   3.778  0.1931 -0.1637  0.4442
18445TIP3    H176826   4.899   3.487   3.834 -2.0690 -1.7528 -2.7686
18445TIP3    H276827   5.001   3.417   3.748  2.5072  0.4941  0.4145
18446TIP3   OH276828   5.809   4.928  14.276 -0.4426  0.3622  0.2665
18446TIP3    H176829   5.767   4.945  14.361 -1.2771  1.7531 -0.3767
18446TIP3    H276830   5.832   5.015  14.243  2.6710 -0.3075  0.3820
18447TIP3   OH276831   6.326   5.229  14.396 -0.3248  0.8364 -0.3767
18447TIP3    H176832   6.387   5.290  14.352  0.3949  2.0781  2.1557
18447TIP3    H276833   6.258   5.286  14.432 -0.0141  0.1020  1.4567
18448TIP3   OH276834   6.572   5.506  16.285  0.5410 -0.1092 -0.5277
18448TIP3    H176835   6.651   5.481  16.334  0.6748 -1.9642 -1.6082
18448TIP3    H276836   6.594   5.488  16.194  0.1584  2.9136 -1.3245
18449TIP3   OH276837   4.784   6.011  13.005 -0.1443 -0.1409 -0.3862
18449TIP3    H176838   4.806   6.078  12.940  1.6025  1.1504  1.3986
18449TIP3    H276839   4.805   5.928  12.963 -1.1867  0.4783 -2.2241
18450TIP3   OH276840   0.270   3.140   1.663  0.2030  0.3940  0.4633
18450TIP3    H176841   0.272   3.045   1.672  0.8421  0.4265  0.7085
18450TIP3    H276842   0.188   3.166   1.706  1.2892  0.1842  2.8712
18451TIP3   OH276843   0.686   6.605   4.531 -0.2596 -0.2875  0.4371
18451TIP3    H176844   0.606   6.635   4.490 -0.5724 -0.7684  0.6819
18451TIP3    H276845   0.756   6.633   4.472 -0.6029  0.1871  0.2568
18452TIP3   OH276846   0.076   0.953  14.432  0.2865  0.4325  0.3462
18452TIP3    H176847   0.083   1.048  14.447  0.7451  0.5977 -0.7985
18452TIP3    H276848  -0.012   0.941  14.396 -0.5301  0.1347  2.3202
18453TIP3   OH276849   2.146   5.394  12.504 -1.0063 -0.3253 -0.4545
18453TIP3    H176850   2.202   5.424  12.433 -2.2758 -0.5119 -1.5729
18453TIP3    H276851   2.121   5.474  12.551 -1.8839  0.0714 -1.5457
18454TIP3   OH276852   5.615   6.381   4.434 -0.5791 -0.2564 -0.3204
18454TIP3    H176853   5.704   6.353   4.454  0.2193  0.6395 -2.3136
18454TIP3    H276854   5.565   6.362   4.513  1.3662 -0.8215  0.8326
18455TIP3   OH276855   1.495   4.372  17.274  0.3082 -0.4857 -0.0052
18455TIP3    H176856   1.513   4.444  17.213  0.5077 -0.0681  0.5339
18455TIP3    H276857   1.516   4.409  17.360 -2.0131 -0.3536  0.5691
18456TIP3   OH276858   3.741   0.568  12.140 -0.2453 -0.2155  0.1869
18456TIP3    H176859   3.824   0.591  12.181  0.2149  1.2870 -1.4785
18456TIP3    H276860   3.676   0.622  12.185 -0.2803 -0.9801  1.1025
18457TIP3   OH276861   0.427   4.485   3.426  0.0416 -0.2834 -0.2985
18457TIP3    H176862   0.353   4.490   3.487 -0.3114 -0.4323 -0.7145
18457TIP3    H276863   0.406   4.549   3.358 -0.0072 -0.7675 -0.7450
18458TIP3   OH276864   1.303   4.135   3.193  0.0248 -0.4089 -0.6563
18458TIP3    H176865   1.376   4.140   3.132  0.2670  1.2021 -0.2736
18458TIP3    H276866   1.343   4.137   3.280 -0.4414  3.2654 -0.3514
18459TIP3   OH276867   0.505   6.221  12.454  0.3136 -0.0485  0.3635
18459TIP3    H176868   0.497   6.311  12.420  2.2837  0.4102  1.0138
18459TIP3    H276869   0.494   6.165  12.376  0.9020  0.8257 -0.3698
18460TIP3   OH276870   3.205   0.470   2.745  0.0953 -0.0784 -0.6510
18460TIP3    H176871   3.154   0.449   2.667  2.8492  0.1716 -2.6607
18460TIP3    H276872   3.263   0.541   2.718  2.0695 -0.8611  1.1753
18461TIP3   OH276873   5.737   0.922  14.896 -0.0037 -0.1460 -0.4656
18461TIP3    H176874   5.826   0.917  14.859  0.9211  0.2194  1.5830
18461TIP3    H276875   5.702   0.834  14.885  0.9123 -0.5102 -0.5896
18462TIP3   OH276876   0.487   5.634   4.254  0.1335 -0.6836 -0.5090
18462TIP3    H176877   0.466   5.579   4.178 -3.2640 -0.0307 -0.2112
18462TIP3    H276878   0.481   5.723   4.221  1.3467 -0.4062 -0.0253
18463TIP3   OH276879   0.734   1.320  13.471  0.5277  0.1835 -0.4203
18463TIP3    H176880   0.768   1.341  13.383 -0.1518 -1.4391 -1.1166
18463TIP3    H276881   0.801   1.354  13.531  0.9802  1.3811 -1.5581
18464TIP3   OH276882   6.804   0.132   4.139  0.1013  0.1221  0.3063
18464TIP3    H176883   6.729   0.074   4.156 -0.3208  1.3716  3.4935
18464TIP3    H276884   6.795   0.157   4.047 -1.2320 -2.6628 -0.4148
18465TIP3   OH276885   4.772   6.751   4.126 -0.5034  0.2771 -0.3485
18465TIP3    H176886   4.700   6.734   4.186 -0.4146  1.3460  0.0889
18465TIP3    H276887   4.808   6.835   4.155  2.7042 -1.4594  1.1753
18466TIP3   OH276888   0.720   2.502  16.200  0.0287  0.2024 -0.1614
18466TIP3    H176889   0.731   2.529  16.108  2.1632  2.6165  0.6695
18466TIP3    H276890   0.669   2.572  16.239  0.4461 -0.0274  0.8104
18467TIP3   OH276891   3.592   2.669   0.018  0.0859  0.0653 -0.0870
18467TIP3    H176892   3.648   2.659  -0.059 -2.1643  1.4007 -2.0332
18467TIP3    H276893   3.594   2.763   0.037 -3.3521  0.6505 -1.8732
18468TIP3   OH276894   6.791   1.212  13.644  0.0419  0.5601  0.2362
18468TIP3    H176895   6.839   1.145  13.691  0.6487  1.6016  1.1609
18468TIP3    H276896   6.778   1.176  13.556  1.1065 -0.3939  0.4509
18469TIP3   OH276897   0.477   5.025   5.888  0.2214 -0.2035 -0.5413
18469TIP3    H176898   0.488   5.002   5.795 -0.8917 -0.0743 -0.7185
18469TIP3    H276899   0.387   5.056   5.894  0.3721  0.0452  0.5426
18470TIP3   OH276900   1.490   2.612  13.848 -0.0668 -0.5734 -0.6941
18470TIP3    H176901   1.582   2.626  13.869 -0.2764  0.5165 -0.4704
18470TIP3    H276902   1.489   2.527  13.804  1.0076 -0.7197 -0.4732
18471TIP3   OH276903   4.253   1.579   1.998 -0.2328  0.3364  0.3214
18471TIP3    H176904   4.279   1.636   2.070  4.0108 -0.1639 -0.4942
18471TIP3    H276905   4.275   1.629   1.919  0.6501 -1.1846 -0.4513
18472TIP3   OH276906   1.495   2.808   3.140 -0.1635 -0.4554 -0.0903
18472TIP3    H176907   1.529   2.721   3.119 -0.5613 -0.8170  0.6988
18472TIP3    H276908   1.401   2.802   3.124 -0.4608 -0.7013  1.5581
18473TIP3   OH276909   0.114   1.823  16.143 -0.3504  0.2157  0.3641
18473TIP3    H176910   0.068   1.759  16.090  0.1742  0.3750 -0.2983
18473TIP3    H276911   0.051   1.849  16.211 -1.5257  1.0440 -1.0056
18474TIP3   OH276912   0.861   2.435  10.483 -0.0972 -0.1849 -0.3434
18474TIP3    H176913   0.813   2.356  10.510  1.1293 -0.8867 -0.1352
18474TIP3    H276914   0.939   2.436  10.539  0.9235  0.0571 -1.7095
18475TIP3   OH276915   6.519   6.515  14.375  0.4143  0.2296 -0.4577
18475TIP3    H176916   6.480   6.509  14.462 -1.9100  2.6383 -1.1731
18475TIP3    H276917   6.457   6.469  14.318  1.5178 -0.6672 -0.9726
18476TIP3   OH276918   5.395   4.543   1.160  0.3606 -0.1124  0.0086
18476TIP3    H176919   5.381   4.580   1.247  0.4855  1.5406 -0.6366
18476TIP3    H276920   5.307   4.521   1.128  0.3352 -0.9473  0.6230
18477TIP3   OH276921   5.969   2.492   5.597  0.4194  0.4176  0.0570
18477TIP3    H176922   6.023   2.448   5.662 -0.4836  0.9494  1.2138
18477TIP3    H276923   6.012   2.474   5.513  1.3128 -0.7398  0.7320
18478TIP3   OH276924   4.166   1.731  16.605  0.4601  0.3260 -0.6415
18478TIP3    H176925   4.237   1.700  16.661 -0.3002  0.8648  0.6571
18478TIP3    H276926   4.099   1.663  16.611  0.0394  0.7771 -0.2414
18479TIP3   OH276927   1.143   5.130  12.009  0.3236 -0.1172 -0.3376
18479TIP3    H176928   1.103   5.046  11.986 -0.2441  0.0744 -0.0565
18479TIP3    H276929   1.224   5.106  12.054 -0.0206 -0.5260  0.0774
18480TIP3   OH276930   0.125   3.247  14.999 -0.1448  0.6299 -0.0533
18480TIP3    H176931   0.208   3.264  14.955  0.0976  1.7750  0.8125
18480TIP3    H276932   0.102   3.158  14.972  3.1022 -1.1589  2.3765
18481TIP3   OH276933   5.749   0.543  16.460  0.1286 -0.0715  0.1663
18481TIP3    H176934   5.840   0.567  16.440  0.3352 -0.9088  0.0886
18481TIP3    H276935   5.718   0.499  16.381 -0.7294  1.2267 -0.2539
18482TIP3   OH276936   1.514   2.548   6.476  0.4344 -0.0731  0.7797
18482TIP3    H176937   1.432   2.561   6.428  1.5988  2.0660 -0.7783
18482TIP3    H276938   1.493   2.572   6.567 -0.9041 -0.5968  0.6254
18483TIP3   OH276939   3.272   3.666   2.066 -0.2399 -0.1546 -0.1039
18483TIP3    H176940   3.349   3.673   2.010  0.2536 -1.4055  0.3713
18483TIP3    H276941   3.220   3.596   2.026 -0.1343 -0.6972  0.6720
18484TIP3   OH276942   4.452   6.052  17.001  0.2842 -0.0783 -0.3780
18484TIP3    H176943   4.526   6.104  17.033 -0.8772  2.4777 -1.5600
18484TIP3    H276944   4.460   6.054  16.906 -2.7222  2.7954 -0.7531
18485TIP3   OH276945   3.538   1.568  14.796  0.4914 -0.3367  0.3309
18485TIP3    H176946   3.453   1.608  14.810 -1.0637 -2.9712 -0.8183
18485TIP3    H276947   3.560   1.589  14.705  0.3384 -0.9201  0.1582
18486TIP3   OH276948   3.783   2.432   3.938  0.1163  0.5272  0.1198
18486TIP3    H176949   3.801   2.526   3.932  0.5189  0.4819  0.5702
18486TIP3    H276950   3.859   2.390   3.898  0.9603  0.3393  1.8538
18487TIP3   OH276951   3.013   3.557  16.089  0.0339  0.7182  0.0209
18487TIP3    H176952   3.016   3.629  16.025  0.0300  0.8577  0.1796
18487TIP3    H276953   3.057   3.592  16.167  2.7560 -0.4009 -0.8664
18488TIP3   OH276954   5.389   4.674   2.376  0.2067  0.6921 -0.1262
18488TIP3    H176955   5.347   4.760   2.377 -0.7842  0.2535  1.5959
18488TIP3    H276956   5.372   4.638   2.464 -1.0048 -2.0017 -1.3386
18489TIP3   OH276957   2.301   0.226   1.565  0.5449 -0.0425 -0.1430
18489TIP3    H176958   2.273   0.317   1.554  0.2731 -0.2955 -1.6898
18489TIP3    H276959   2.272   0.181   1.486 -0.3557 -1.7550  1.0789
18490TIP3   OH276960   4.231   2.317  12.166 -0.2189  0.5294 -0.2955
18490TIP3    H176961   4.292   2.300  12.095  0.7969  1.3720  0.3561
18490TIP3    H276962   4.285   2.344  12.240 -1.4242  4.3941 -0.5562
18491TIP3   OH276963   3.746   4.270  12.604 -0.2564 -0.6635  1.0791
18491TIP3    H176964   3.791   4.354  12.615 -0.0751 -0.2567 -1.9529
18491TIP3    H276965   3.816   4.204  12.605 -0.0049 -0.4219  0.2300
18492TIP3   OH276966   4.378   1.229   4.872  0.2868  0.1206 -0.1806
18492TIP3    H176967   4.317   1.188   4.811  1.3574 -0.0555 -1.1645
18492TIP3    H276968   4.323   1.286   4.926 -0.4242  2.1325 -2.8502
18493TIP3   OH276969   3.235   3.351  16.859  0.3749  0.5758 -0.5553
18493TIP3    H176970   3.295   3.349  16.934 -0.6054  1.7190  0.3163
18493TIP3    H276971   3.284   3.398  16.791  0.6241  1.1454  0.0016
18494TIP3   OH276972   4.147   5.646  14.966  0.3858  0.3056 -0.1657
18494TIP3    H176973   4.146   5.587  15.042  1.7468 -2.0373 -1.8478
18494TIP3    H276974   4.239   5.672  14.957  0.0632  1.4147 -0.4349
18495TIP3   OH276975   2.456   5.555  13.961  0.3066  0.2522 -0.1635
18495TIP3    H176976   2.471   5.620  13.892 -0.6905 -2.1737 -2.8345
18495TIP3    H276977   2.361   5.555  13.974  0.4544  0.4976  1.1087
18496TIP3   OH276978   6.717   3.345  13.071 -0.1306  0.4423  0.0290
18496TIP3    H176979   6.801   3.372  13.109  0.6543 -2.1308  0.2903
18496TIP3    H276980   6.711   3.395  12.989  1.6622  0.6929  0.0048
18497TIP3   OH276981   2.718   4.748  13.483 -0.1719  0.4017 -0.0198
18497TIP3    H176982   2.663   4.685  13.437  0.8800  0.8530 -1.9742
18497TIP3    H276983   2.694   4.737  13.576 -2.4259 -0.4697 -0.6305
18498TIP3   OH276984   2.366   0.515  13.115  0.0319 -0.1033  0.1663
18498TIP3    H176985   2.331   0.604  13.115  0.0183 -0.1086  0.0001
18498TIP3    H276986   2.291   0.460  13.136 -0.3353 -0.2193 -1.3197
18499TIP3   OH276987   4.860   2.193  12.971 -0.1536 -0.0306  0.2903
18499TIP3    H176988   4.946   2.213  13.008  0.7828  2.5447 -2.8260
18499TIP3    H276989   4.860   2.098  12.960  1.3831 -0.3284  2.2492
18500TIP3   OH276990   0.791   5.936   2.449 -0.1940 -0.5149 -0.5240
18500TIP3    H176991   0.795   5.930   2.354  0.8851  2.0364 -0.7071
18500TIP3    H276992   0.738   6.014   2.466  0.4674 -0.3482  0.9190
18501TIP3   OH276993   6.373   4.865  12.741 -0.2926  0.4084  0.3796
18501TIP3    H176994   6.369   4.790  12.800 -2.2320  0.7801  0.7843
18501TIP3    H276995   6.292   4.861  12.691  0.9994  0.4799 -1.8598
18502TIP3   OH276996   4.906   0.498  13.221  0.3511 -0.1493 -0.5215
18502TIP3    H176997   4.821   0.540  13.228  0.7115  0.2942  2.1683
18502TIP3    H276998   4.923   0.462  13.308  3.0589  0.0713 -0.8685
18503TIP3   OH276999   6.321   2.552   0.846 -0.6253  0.2020  0.0917
18503TIP3    H177000   6.406   2.521   0.876 -0.5747 -1.2506 -1.3916
18503TIP3    H277001   6.311   2.512   0.759 -2.5500  0.8405 -0.0148
18504TIP3   OH277002   3.445   2.070   4.519 -0.0343 -0.2346 -0.3016
18504TIP3    H177003   3.422   2.152   4.475  1.2893  0.5873  0.4473
18504TIP3    H277004   3.370   2.052   4.576  0.8031  2.0971  1.7273
18505TIP3   OH277005   4.509   1.568  15.098  0.1846  0.5077 -0.9516
18505TIP3    H177006   4.557   1.542  15.020 -0.2782  0.4983 -1.2390
18505TIP3    H277007   4.425   1.521  15.091  0.1862  0.4147 -0.3946
18506TIP3   OH277008   6.552   2.625   1.635  0.2811 -0.0810 -0.5138
18506TIP3    H177009   6.528   2.533   1.649  2.5959 -0.6989 -0.0746
18506TIP3    H277010   6.598   2.650   1.715  1.3164  0.8529 -1.3673
18507TIP3   OH277011   2.082   0.984   6.170 -0.1895  0.5116  0.1983
18507TIP3    H177012   2.061   1.076   6.155  1.5786  0.9731  0.4342
18507TIP3    H277013   2.174   0.975   6.146 -0.2884 -1.1747  0.3085
18508TIP3   OH277014   4.491   2.634   6.542 -0.5779 -0.3064  0.1383
18508TIP3    H177015   4.500   2.721   6.503 -0.8531 -0.1583  0.3983
18508TIP3    H277016   4.565   2.628   6.603  0.0361 -0.6632 -0.6267
18509TIP3   OH277017   5.611   5.016   1.825 -0.9782  0.2369 -0.8058
18509TIP3    H177018   5.623   5.044   1.734 -0.9634 -1.2863 -1.2955
18509TIP3    H277019   5.550   4.942   1.820 -1.7102  0.7101  0.5273
18510TIP3   OH277020   0.420   3.030  15.491 -0.0672  0.1777 -0.0756
18510TIP3    H177021   0.362   3.050  15.417 -0.7457  4.0393  1.2707
18510TIP3    H277022   0.361   3.021  15.566  0.8847  1.1119  0.8054
18511TIP3   OH277023   4.270   1.491   4.659  0.7081  0.9095 -0.2286
18511TIP3    H177024   4.202   1.429   4.687  1.6651 -0.0177  0.0890
18511TIP3    H277025   4.226   1.576   4.659 -0.5880  0.2648 -0.4948
18512TIP3   OH277026   1.321   3.127   4.954 -0.0305 -0.0633 -0.8120
18512TIP3    H177027   1.374   3.065   4.904  0.0496  0.4248 -1.3364
18512TIP3    H277028   1.385   3.173   5.010  0.2751  1.2059 -2.1371
18513TIP3   OH277029   5.191   0.126  14.320  0.0234 -0.2113 -0.0532
18513TIP3    H177030   5.133   0.092  14.252  1.0718  0.1251 -1.1367
18513TIP3    H277031   5.277   0.092  14.298  0.5218  0.5584  0.6459
18514TIP3   OH277032   4.131   1.048  11.833 -0.5744 -0.4156  0.3076
18514TIP3    H177033   4.081   0.971  11.861 -1.2427  0.7315  2.4774
18514TIP3    H277034   4.204   1.054  11.895  1.0527 -0.7673 -1.4591
18515TIP3   OH277035   0.839   3.043   3.650 -0.5665  0.1987 -0.1410
18515TIP3    H177036   0.761   3.027   3.597 -1.1887  0.7778  0.5703
18515TIP3    H277037   0.902   3.082   3.589 -1.9621  2.7657 -0.0892
18516TIP3   OH277038   3.942   0.797   5.253  0.0157 -0.0764  0.5991
18516TIP3    H177039   3.980   0.793   5.165 -0.1172 -0.8686  0.5754
18516TIP3    H277040   3.855   0.758   5.244  0.2524 -0.7620  1.2087
18517TIP3   OH277041   4.675   4.513  16.042 -0.4149  0.0378  0.7325
18517TIP3    H177042   4.692   4.486  15.951  1.4052  0.3230  0.9459
18517TIP3    H277043   4.619   4.443  16.077  1.5491 -1.8667  0.3311
18518TIP3   OH277044   0.007   4.377   3.233  0.1216  0.2474  0.2562
18518TIP3    H177045   0.036   4.294   3.271 -1.4427  0.1261  1.2618
18518TIP3    H277046  -0.012   4.433   3.308 -2.1585  0.3135 -0.2918
18519TIP3   OH277047   1.701   3.889  16.752  0.2647 -0.1795 -0.2657
18519TIP3    H177048   1.749   3.848  16.824  1.0363 -0.6697 -1.0374
18519TIP3    H277049   1.764   3.949  16.713 -0.3420  0.5236 -0.1691
18520TIP3   OH277050   0.825   3.022   4.945 -0.6924 -0.1776 -0.3727
18520TIP3    H177051   0.740   3.063   4.928 -1.0175 -0.4404  0.5852
18520TIP3    H277052   0.882   3.095   4.970 -0.3677  0.1313 -1.9144
18521TIP3   OH277053   2.050   3.999   3.419  0.3137 -0.5924  0.1250
18521TIP3    H177054   2.049   3.942   3.342 -0.3224 -1.8270  1.0144
18521TIP3    H277055   2.131   4.050   3.411  0.4165 -0.9243 -1.1792
18522TIP3   OH277056   1.934   0.588  13.692  0.0996 -0.3122  0.1069
18522TIP3    H177057   1.894   0.638  13.763  1.7720  1.7594 -0.3164
18522TIP3    H277058   1.965   0.654  13.630 -0.2051 -1.9974 -1.9828
18523TIP3   OH277059   1.494   1.899   4.863  0.0632 -0.5083  0.2689
18523TIP3    H177060   1.438   1.972   4.834  1.0899 -0.2131 -1.0511
18523TIP3    H277061   1.457   1.823   4.820  0.2318 -0.4378  0.0019
18524TIP3   OH277062   2.001   2.414   5.551 -0.4010 -0.2289  0.0057
18524TIP3    H177063   1.969   2.329   5.521 -0.4866 -0.2478  0.1510
18524TIP3    H277064   2.021   2.462   5.471 -0.6959 -0.2542 -0.0846
18525TIP3   OH277065   4.991   3.894   4.975  0.1169  0.1165 -0.1033
18525TIP3    H177066   4.903   3.872   5.007 -0.0989  0.0777 -0.7061
18525TIP3    H277067   4.977   3.921   4.885  0.4986  1.8381  0.3199
18526TIP3   OH277068   2.298   5.146   4.173 -0.4531  0.2405  0.2443
18526TIP3    H177069   2.307   5.062   4.128 -0.7805 -0.2735  1.1311
18526TIP3    H277070   2.377   5.152   4.228 -0.4576  0.4885  0.2236
18527TIP3   OH277071   4.070   1.172  17.018  0.0247  0.5127 -0.2866
18527TIP3    H177072   4.055   1.143  16.928  2.7850  0.7083 -0.8987
18527TIP3    H277073   4.151   1.222  17.014 -0.5059  1.7112  2.1068
18528TIP3   OH277074   2.199   1.729  16.653 -0.2910  0.3115 -0.0688
18528TIP3    H177075   2.119   1.759  16.696 -0.4935 -0.5153  0.1532
18528TIP3    H277076   2.174   1.714  16.562  0.6993  4.4561 -1.2636
18529TIP3   OH277077   5.249   3.641  12.001  0.3529 -0.0314  0.6335
18529TIP3    H177078   5.285   3.617  11.916  2.8299 -0.3635  1.6810
18529TIP3    H277079   5.160   3.672  11.982  1.0518  0.5423 -2.1197
18530TIP3   OH277080   2.045   2.754   5.092  0.5111  0.6096 -0.3426
18530TIP3    H177081   2.002   2.785   5.172  0.8075 -1.1594  0.5608
18530TIP3    H277082   1.981   2.695   5.051  0.8505  0.4897 -0.7043
18531TIP3   OH277083   0.743   0.466  12.896  0.2050 -0.1096 -0.1775
18531TIP3    H177084   0.661   0.507  12.868  1.1879  1.6033 -0.6958
18531TIP3    H277085   0.721   0.421  12.977 -1.2032  0.4968 -0.1962
18532TIP3   OH277086   4.003   2.310   0.224 -0.4322  0.2653  0.6510
18532TIP3    H177087   3.932   2.289   0.285 -0.8611  0.8597  0.3760
18532TIP3    H277088   4.014   2.231   0.172 -2.1982  0.7333 -0.5455
18533TIP3   OH277089   3.909   0.903  13.382  0.1351  0.6048  0.7076
18533TIP3    H177090   3.906   0.966  13.310  1.9752 -0.2001 -0.1181
18533TIP3    H277091   3.891   0.818  13.342 -1.3706  0.4272  1.6568
18534TIP3   OH277092   0.956   1.786   1.898 -0.6850  0.1831 -0.4096
18534TIP3    H177093   0.965   1.857   1.961  1.4199 -0.5767  0.2245
18534TIP3    H277094   0.964   1.829   1.813 -1.7422  0.9695 -0.1402
18535TIP3   OH277095   4.583   2.866  11.239 -0.2044  0.1093  0.3941
18535TIP3    H177096   4.636   2.945  11.228  1.2174 -1.0265 -1.5811
18535TIP3    H277097   4.563   2.838  11.149 -0.1422 -2.0966  1.0268
18536TIP3   OH277098   4.458   0.170  11.572 -0.5973 -0.0345  0.5987
18536TIP3    H177099   4.365   0.176  11.596 -0.4010 -3.3192  2.7903
18536TIP3    H277100   4.499   0.243  11.619 -2.1142  2.4565 -1.6465
18537TIP3   OH277101   0.457   0.260   2.871 -0.4331  0.0000  0.2317
18537TIP3    H177102   0.479   0.174   2.908 -1.8534 -0.0302  1.0562
18537TIP3    H277103   0.486   0.322   2.937  0.6118  0.1796 -0.3747
18538TIP3   OH277104   0.971   6.206   3.324  0.5435  0.3370 -0.0900
18538TIP3    H177105   1.007   6.279   3.374 -0.5714  0.2965  0.8100
18538TIP3    H277106   0.904   6.247   3.268 -0.6859 -0.0806  1.0336
18539TIP3   OH277107   1.548   0.399  13.712  0.1119  0.0275 -0.0267
18539TIP3    H177108   1.595   0.328  13.669 -0.1809 -0.2692  0.1355
18539TIP3    H277109   1.458   0.391  13.680 -0.0072  0.0870  0.2870
18540TIP3   OH277110   4.303   4.090   1.781 -0.8164  0.1250 -0.1477
18540TIP3    H177111   4.273   4.173   1.819  1.2987  0.0079  2.0287
18540TIP3    H277112   4.352   4.116   1.703  1.2938  1.2146  1.4211
18541TIP3   OH277113   6.524   5.018  14.396 -0.2795 -0.1624 -0.0331
18541TIP3    H177114   6.596   5.056  14.446 -0.4803 -0.6530  0.6450
18541TIP3    H277115   6.450   5.077  14.409 -1.1057 -1.5901  2.4508
18542TIP3   OH277116   4.358   3.696   0.303  0.3263  0.3717 -0.0443
18542TIP3    H177117   4.275   3.744   0.308 -0.2701 -0.1427 -3.0716
18542TIP3    H277118   4.352   3.631   0.373 -2.0581  0.0542 -0.4513
18543TIP3   OH277119   0.375   2.675  11.381 -0.1539 -0.0214 -0.0310
18543TIP3    H177120   0.279   2.672  11.382 -0.1600 -3.1868 -0.1361
18543TIP3    H277121   0.396   2.703  11.292 -0.9810 -0.2479 -0.3121
18544TIP3   OH277122   6.679   0.529  13.193  0.1263 -0.2629  0.2136
18544TIP3    H177123   6.695   0.458  13.130  0.3294  0.7263 -0.8991
18544TIP3    H277124   6.732   0.602  13.160  0.0170  0.3753  1.3981
18545TIP3   OH277125   0.000   5.606   0.303  0.2337 -0.2594 -0.2782
18545TIP3    H177126   0.044   5.604   0.218 -0.7168  0.8005 -0.8191
18545TIP3    H277127  -0.034   5.695   0.310 -3.1210 -1.4013 -0.5617
18546TIP3   OH277128   3.977   2.688   5.905  0.2490 -0.2923  0.7675
18546TIP3    H177129   3.911   2.752   5.933  0.1882  0.7200 -1.4997
18546TIP3    H277130   4.053   2.707   5.960  0.1506  1.6220  0.3027
18547TIP3   OH277131   6.277   4.461   4.112  0.0251 -0.7513 -0.3722
18547TIP3    H177132   6.285   4.493   4.202 -2.4116  2.6556 -1.1358
18547TIP3    H277133   6.332   4.521   4.061 -0.9272 -0.7530 -1.4306
18548TIP3   OH277134   1.197   6.216   1.629  1.1741 -0.1115 -0.6153
18548TIP3    H177135   1.192   6.311   1.619  1.3096 -0.0317  0.0355
18548TIP3    H277136   1.106   6.187   1.632  1.0663  0.2912  1.7415
18549TIP3   OH277137   4.568   4.833   4.390 -0.4490 -0.6477 -0.1008
18549TIP3    H177138   4.593   4.912   4.342  0.1290 -1.6141 -1.4675
18549TIP3    H277139   4.603   4.847   4.478  0.4902  0.2005 -0.5855
18550TIP3   OH277140   3.275   0.204   4.022  0.0937 -0.4810 -0.6441
18550TIP3    H177141   3.252   0.267   3.954  1.4723 -0.5723 -1.2313
18550TIP3    H277142   3.323   0.135   3.976  0.4950 -0.8697  0.3283
18551TIP3   OH277143   4.414   5.515   4.292 -0.8696 -0.4066  1.2088
18551TIP3    H177144   4.334   5.483   4.333 -1.2711 -0.3647  0.4796
18551TIP3    H277145   4.454   5.437   4.253 -2.3528  0.0243 -1.4274
18552TIP3   OH277146   2.421   4.713   3.910  1.1844  0.1771 -0.4388
18552TIP3    H177147   2.476   4.742   3.838  1.6418 -0.9905 -0.5867
18552TIP3    H277148   2.458   4.628   3.936  0.5445  0.2044  0.6428
18553TIP3   OH277149   3.867   5.279   3.931  0.4622  0.1051 -0.3489
18553TIP3    H177150   3.883   5.346   3.864  0.1439 -0.0967 -0.6338
18553TIP3    H277151   3.807   5.217   3.888 -2.8312  1.8670  1.2717
18554TIP3   OH277152   6.338   5.492   4.137  0.5054 -0.2981  0.4388
18554TIP3    H177153   6.262   5.543   4.165  0.5830  0.7397 -1.0928
18554TIP3    H277154   6.301   5.411   4.102  0.3191 -0.9592  2.0757
18555TIP3   OH277155   6.412   0.448   6.354 -0.2285 -0.4663 -0.0411
18555TIP3    H177156   6.494   0.487   6.324 -0.1980  0.4138  1.1355
18555TIP3    H277157   6.415   0.358   6.321  1.5298 -0.6612  0.5652
18556TIP3   OH277158   5.610   0.839  12.349 -0.0551  0.0218 -0.2017
18556TIP3    H177159   5.684   0.885  12.389 -0.1281 -0.4547  0.4806
18556TIP3    H277160   5.622   0.747  12.373 -2.4240  0.2873  2.4258
18557TIP3   OH277161   5.062   2.760  14.689 -0.2398  0.1046  0.3395
18557TIP3    H177162   5.106   2.788  14.770 -0.4503 -0.6049  0.7045
18557TIP3    H277163   5.087   2.826  14.625  1.3479 -0.2627  0.5352
18558TIP3   OH277164   6.118   0.410  13.933 -0.2392 -0.2364  0.4057
18558TIP3    H177165   6.108   0.396  14.027 -0.8946  2.0365  0.7530
18558TIP3    H277166   6.028   0.411  13.900 -0.1731  1.2899  0.1939
18559TIP3   OH277167   5.181   1.032  13.067  0.2432 -0.5131  0.0561
18559TIP3    H177168   5.148   1.121  13.076  1.6328  0.2201 -1.4834
18559TIP3    H277169   5.117   0.978  13.112 -1.3994  1.1250 -0.2016
18560TIP3   OH277170   0.471   3.387  12.632 -0.4226  0.1122  0.2412
18560TIP3    H177171   0.407   3.369  12.562  1.0778  0.5083 -1.3077
18560TIP3    H277172   0.556   3.382  12.588  0.5788  0.3528  2.0777
18561TIP3   OH277173   4.289   4.270  12.265 -0.0496 -0.2600 -0.4596
18561TIP3    H177174   4.279   4.364  12.250  2.5955  0.1847  0.1079
18561TIP3    H277175   4.330   4.264  12.352  0.3584 -1.9000 -0.7424
18562TIP3   OH277176   1.179   2.640  13.955  0.1886  0.0769  0.0035
18562TIP3    H177177   1.193   2.602  13.868  1.3380  0.2898  0.0719
18562TIP3    H277178   1.257   2.615  14.004  0.4549  1.5699  0.3828
18563TIP3   OH277179   0.207   3.343  12.747  0.1790 -0.4350 -0.6183
18563TIP3    H177180   0.287   3.376  12.788  0.3188 -0.7705 -0.6107
18563TIP3    H277181   0.162   3.420  12.713  0.9175 -0.3265 -1.3673
18564TIP3   OH277182   4.541   1.492   4.763  0.0370 -0.0179  0.8077
18564TIP3    H177183   4.449   1.477   4.739 -0.0600  0.1528  1.0576
18564TIP3    H277184   4.576   1.404   4.778 -0.5922 -0.0202  2.4960
18565TIP3   OH277185   0.350   3.447   3.951 -0.3212  0.2392 -0.8335
18565TIP3    H177186   0.367   3.451   4.045 -2.4209  0.1331 -0.3898
18565TIP3    H277187   0.411   3.382   3.918  0.6784  0.5154  0.3851
18566TIP3   OH277188   2.811   0.943   1.082 -0.5133 -0.1308 -0.1345
18566TIP3    H177189   2.791   0.972   1.171 -1.2242 -0.0308 -0.3188
18566TIP3    H277190   2.836   0.852   1.091 -2.3148 -0.6481 -0.0196
18567TIP3   OH277191   2.679   4.210  11.300  0.6294  0.0575 -0.0713
18567TIP3    H177192   2.723   4.295  11.290 -2.5109  1.6634 -1.4988
18567TIP3    H277193   2.649   4.209  11.391  0.3630  0.6569 -0.1480
18568TIP3   OH277194   3.374   2.663  12.121 -0.0569 -0.4402 -0.1831
18568TIP3    H177195   3.322   2.716  12.183 -0.2536  0.5938 -1.1995
18568TIP3    H277196   3.403   2.588  12.173 -0.5530  0.1917  1.0606
18569TIP3   OH277197   5.531   4.110   5.969 -0.0491  0.4223  0.1613
18569TIP3    H177198   5.506   4.092   5.878  1.3643  0.2058 -0.2137
18569TIP3    H277199   5.544   4.205   5.971  0.8153  0.3274 -0.1365
18570TIP3   OH277200   4.023   1.552   5.384  0.4537  0.2019  0.2459
18570TIP3    H177201   4.112   1.518   5.379  0.1150 -0.5858 -0.9971
18570TIP3    H277202   4.018   1.617   5.314 -0.0687 -0.0895  0.0001
18571TIP3   OH277203   2.479   0.489  16.912 -0.2504 -0.0408 -0.2812
18571TIP3    H177204   2.414   0.421  16.926  1.6613 -2.0176 -0.4351
18571TIP3    H277205   2.471   0.545  16.989 -2.0739 -0.2248 -0.2934
18572TIP3   OH277206   4.453   5.428  11.888  0.4061 -0.2004 -0.3958
18572TIP3    H177207   4.408   5.359  11.840 -0.1057 -0.4858  0.4731
18572TIP3    H277208   4.403   5.507  11.868 -0.7237 -0.5752  0.8412
18573TIP3   OH277209   5.177   3.705   3.328 -0.0934  0.1542  0.2679
18573TIP3    H177210   5.085   3.716   3.306  0.2566  1.7404 -0.5326
18573TIP3    H277211   5.185   3.612   3.351 -2.0885  0.2075  1.4298
18574TIP3   OH277212   6.384   0.141   1.167 -0.5347 -0.5079 -0.3706
18574TIP3    H177213   6.406   0.163   1.258 -1.5015 -0.0888 -0.2153
18574TIP3    H277214   6.454   0.180   1.115  0.1490 -0.9384  0.2032
18575TIP3   OH277215   1.987   0.213   5.542  0.2541  0.0859  0.0337
18575TIP3    H177216   2.002   0.121   5.522  0.5109  0.5490 -2.0855
18575TIP3    H277217   2.074   0.249   5.555  0.1416  0.0139  1.1192
18576TIP3   OH277218   4.190   4.090  13.927  1.0590 -0.2157  0.8909
18576TIP3    H177219   4.227   4.178  13.925  0.0898  0.2369  2.0597
18576TIP3    H277220   4.097   4.103  13.944  0.8128 -1.4551  0.5991
18577TIP3   OH277221   5.061   1.172  15.946  0.1445 -0.5729 -0.4068
18577TIP3    H177222   5.091   1.116  16.018  1.8333 -0.9447 -1.3385
18577TIP3    H277223   5.122   1.245  15.946 -1.0492  0.4531 -0.2513
18578TIP3   OH277224   5.232   3.915   2.911 -0.0249  0.1733  0.6236
18578TIP3    H177225   5.178   3.927   2.989  0.5817  0.7882  0.9617
18578TIP3    H277226   5.201   3.832   2.873 -0.0408 -0.3680  1.7582
18579TIP3   OH277227   1.754   6.653  13.707 -0.0885 -0.0491 -0.5292
18579TIP3    H177228   1.805   6.733  13.722  0.5065 -0.3757 -0.7806
18579TIP3    H277229   1.819   6.585  13.691 -0.5904 -0.5962 -0.2893
18580TIP3   OH277230   5.049   5.573   1.031  0.4556  0.0094  0.2132
18580TIP3    H177231   4.959   5.544   1.015  0.6914 -0.4692 -0.2966
18580TIP3    H277232   5.097   5.492   1.052  0.4924  0.4146  1.8787
18581TIP3   OH277233   1.681   6.417   3.862  0.4825 -0.4434 -0.4115
18581TIP3    H177234   1.606   6.473   3.884  1.0577  0.5926 -0.9874
18581TIP3    H277235   1.661   6.333   3.903 -0.0994  0.3734  1.0687
18582TIP3   OH277236   4.170   3.040   0.205  0.5125 -0.0526  0.1762
18582TIP3    H177237   4.247   3.089   0.179  0.6444 -0.9361 -1.2080
18582TIP3    H277238   4.195   2.948   0.193  0.0795 -0.4771  2.1296
18583TIP3   OH277239   4.509   0.160  15.275 -0.7287  0.1273 -0.0003
18583TIP3    H177240   4.497   0.200  15.189  0.8564 -0.5239 -0.5648
18583TIP3    H277241   4.591   0.198  15.307  0.3460 -1.9427 -0.1606
18584TIP3   OH277242   4.371   5.009   3.305 -0.0199  0.0279  0.5214
18584TIP3    H177243   4.291   5.051   3.337  0.1198 -0.1219  1.0825
18584TIP3    H277244   4.419   5.079   3.260 -0.5597  0.0682 -0.0085
18585TIP3   OH277245   4.504   3.356  16.731 -0.2818 -0.2864 -0.7318
18585TIP3    H177246   4.452   3.403  16.797  0.2846 -0.1253 -0.3958
18585TIP3    H277247   4.487   3.403  16.650  0.5558  0.7322 -0.3338
18586TIP3   OH277248   1.598   5.477   5.033  0.0665 -0.0856  0.1586
18586TIP3    H177249   1.618   5.510   5.120  0.5490 -1.6089  0.6498
18586TIP3    H277250   1.640   5.391   5.029 -0.9887 -0.5775 -1.1250
18587TIP3   OH277251   2.869   2.787   6.469 -0.0290 -0.3734 -0.2075
18587TIP3    H177252   2.775   2.786   6.484  0.2409 -1.0784  1.8070
18587TIP3    H277253   2.896   2.877   6.490 -0.0923 -0.5288  0.5772
18588TIP3   OH277254   0.341   2.516  17.072  0.2883  0.3092  0.1426
18588TIP3    H177255   0.426   2.549  17.043  1.0735 -1.1327  0.7013
18588TIP3    H277256   0.325   2.440  17.016 -0.3464  0.2002  0.4675
18589TIP3   OH277257   3.178   0.467  10.558  0.3497  0.0085 -0.0042
18589TIP3    H177258   3.260   0.425  10.584 -0.1631 -1.5366 -0.7270
18589TIP3    H277259   3.110   0.416  10.601 -0.2550  1.2815  0.6027
18590TIP3   OH277260   1.381   0.651   1.194  0.1436  0.3137  0.0766
18590TIP3    H177261   1.356   0.743   1.195 -0.0233  0.2902 -1.1209
18590TIP3    H277262   1.303   0.605   1.224 -1.0867  0.3049 -2.8555
18591TIP3   OH277263   5.499   6.357  11.185 -0.1987 -0.2287 -0.0054
18591TIP3    H177264   5.479   6.446  11.213  0.9259 -0.1635  0.6676
18591TIP3    H277265   5.556   6.323  11.254 -2.5587 -2.3704  1.0451
18592TIP3   OH277266   4.802   1.506   3.639 -0.8278  0.6239 -0.0870
18592TIP3    H177267   4.779   1.427   3.690 -0.4910  2.1945  2.7275
18592TIP3    H277268   4.720   1.552   3.628 -0.6786  1.0357  0.4590
18593TIP3   OH277269   6.081   4.093   4.190  0.4658  0.1840  0.7386
18593TIP3    H177270   6.009   4.143   4.152  1.9611  1.0993 -1.0388
18593TIP3    H277271   6.064   4.003   4.163  1.3366  0.7605 -2.0829
18594TIP3   OH277272   0.392   5.517  11.187  0.1344 -0.5223 -0.8181
18594TIP3    H177273   0.378   5.538  11.094  1.6692 -0.4450 -1.0624
18594TIP3    H277274   0.374   5.424  11.193  1.2478 -0.8004 -1.4863
18595TIP3   OH277275   6.603   6.753   4.170  0.3785 -0.1166 -0.0729
18595TIP3    H177276   6.593   6.756   4.265  1.5949 -0.6319  0.0944
18595TIP3    H277277   6.589   6.661   4.147 -1.0814  0.2021 -0.5574
18596TIP3   OH277278   2.304   6.431  16.321  0.3221  0.0637 -0.2911
18596TIP3    H177279   2.260   6.439  16.406  0.9063 -0.9795  0.1303
18596TIP3    H277280   2.312   6.337  16.307  1.8931  0.2164 -0.6284
18597TIP3   OH277281   4.689   1.490  14.899 -0.4908 -0.2688  0.0063
18597TIP3    H177282   4.761   1.531  14.946 -0.4311 -1.7518  1.3018
18597TIP3    H277283   4.726   1.409  14.863 -2.0616 -2.6494  3.2409
18598TIP3   OH277284   1.679   3.127  14.525  0.4889 -0.3493  0.2351
18598TIP3    H177285   1.724   3.045  14.507  2.0580  0.7406 -1.1984
18598TIP3    H277286   1.745   3.182  14.567  0.2860  0.9958 -1.0836
18599TIP3   OH277287   1.188   6.294  16.696 -0.1634  0.3603 -0.0566
18599TIP3    H177288   1.217   6.203  16.703 -2.9655 -0.6413 -0.0834
18599TIP3    H277289   1.268   6.344  16.688  1.5156 -2.0528  0.4959
18600TIP3   OH277290   0.321   5.689  12.634  0.4233  0.0292  0.1048
18600TIP3    H177291   0.391   5.638  12.675  1.6014  2.6766  1.6679
18600TIP3    H277292   0.244   5.634  12.641  0.6968 -0.1690  5.3316
18601TIP3   OH277293   2.422   3.439   4.535 -0.0843 -0.3673 -0.2066
18601TIP3    H177294   2.468   3.485   4.465  1.4152  1.0312  1.5789
18601TIP3    H277295   2.488   3.382   4.574 -0.6242 -0.4438  0.6403
18602TIP3   OH277296   0.535   1.852   4.120 -0.4314  0.0716 -0.0173
18602TIP3    H177297   0.523   1.930   4.173 -1.3468 -1.0173  1.4646
18602TIP3    H277298   0.451   1.838   4.076 -0.6710 -0.6890  0.6430
18603TIP3   OH277299   1.019   1.328  16.526  0.0761  0.1100  0.2331
18603TIP3    H177300   0.990   1.371  16.606 -3.4503  1.8170 -1.7087
18603TIP3    H277301   0.987   1.238  16.534 -0.9109  0.4736  0.4504
18604TIP3   OH277302   4.386   3.304  14.058  0.8609 -0.4157 -0.4110
18604TIP3    H177303   4.316   3.339  14.114  1.6653  0.3720  0.1305
18604TIP3    H277304   4.379   3.209  14.068 -0.9373 -0.4072 -1.3765
18605TIP3   OH277305   5.135   2.766   3.159 -0.7214  0.7769  0.2733
18605TIP3    H177306   5.194   2.807   3.223 -0.4475 -0.1506  0.6330
18605TIP3    H277307   5.090   2.698   3.209 -0.1598 -0.2751 -0.6338
18606TIP3   OH277308   1.278   4.514   0.832  0.3266 -0.3028  0.0232
18606TIP3    H177309   1.248   4.485   0.918  1.9942 -2.5475 -0.0548
18606TIP3    H277310   1.371   4.531   0.843  0.2492  0.9561 -1.0078
18607TIP3   OH277311   0.530   2.136   4.212 -0.1239  0.1852  0.6239
18607TIP3    H177312   0.463   2.179   4.265 -0.3044  1.6557 -0.7467
18607TIP3    H277313   0.608   2.189   4.225 -0.3672  1.0411 -1.1429
18608TIP3   OH277314   3.483   5.329  13.560 -0.6680 -0.1165 -0.4257
18608TIP3    H177315   3.404   5.376  13.533 -0.6743 -0.2094 -0.5694
18608TIP3    H277316   3.554   5.374  13.514 -0.8895 -1.6145 -2.3324
18609TIP3   OH277317   6.273   4.392   1.857 -0.2979 -0.1655  0.1671
18609TIP3    H177318   6.289   4.430   1.771  0.8074 -0.3605  0.2640
18609TIP3    H277319   6.350   4.337   1.873 -0.8383 -0.7082  0.9610
18610TIP3   OH277320   5.102   2.803   2.701 -0.0922  0.6531 -0.5175
18610TIP3    H177321   5.123   2.893   2.676 -1.4375  0.7402 -1.3938
18610TIP3    H277322   5.031   2.811   2.764  1.1659  0.2681  1.0502
18611TIP3   OH277323   4.417   0.516   5.097 -0.2559  0.0833  0.0359
18611TIP3    H177324   4.501   0.562   5.089  0.0864 -0.5051  0.1654
18611TIP3    H277325   4.402   0.477   5.011 -1.0124  1.2017 -0.3602
18612TIP3   OH277326   2.067   3.245   4.116  0.9084 -0.4377  0.5943
18612TIP3    H177327   2.032   3.156   4.128  0.1734 -0.3255 -0.5332
18612TIP3    H277328   2.018   3.280   4.041  0.9019  1.0779  1.2761
18613TIP3   OH277329   6.289   2.849  10.522  0.3347  1.1651  0.2725
18613TIP3    H177330   6.353   2.822  10.456  0.4536 -2.8165  1.7251
18613TIP3    H277331   6.215   2.788  10.510 -0.1737  1.1420  2.9371
18614TIP3   OH277332   0.119   3.496   6.120 -0.2126 -0.4196 -0.6342
18614TIP3    H177333   0.179   3.421   6.119  0.2327 -0.0832 -2.3213
18614TIP3    H277334   0.092   3.506   6.029  1.5174  2.8145 -0.9281
18615TIP3   OH277335   6.410   5.737   1.072 -0.0899 -0.6335 -0.0707
18615TIP3    H177336   6.483   5.792   1.043 -0.0856 -0.9015 -0.5880
18615TIP3    H277337   6.332   5.783   1.042 -0.0872 -0.8877 -0.4873
18616TIP3   OH277338   6.097   0.068  11.246  0.3029  0.1751  0.1153
18616TIP3    H177339   6.099   0.157  11.280 -1.6270  0.6798 -0.9339
18616TIP3    H277340   6.055   0.076  11.160  2.3903 -1.4157 -1.1820
18617TIP3   OH277341   0.576   5.231   3.461 -0.5562  0.4791 -0.2617
18617TIP3    H177342   0.649   5.292   3.467 -1.2782  1.4747 -1.3057
18617TIP3    H277343   0.549   5.234   3.369  0.4656 -2.7166 -0.7958
18618TIP3   OH277344   3.364   1.765  13.677 -0.0622 -0.1083  0.6844
18618TIP3    H177345   3.410   1.725  13.603 -2.3320  1.3584 -1.6797
18618TIP3    H277346   3.285   1.712  13.687 -0.5184  0.6338  1.0494
18619TIP3   OH277347   3.651   5.518  13.429 -0.2766  0.0812 -0.4799
18619TIP3    H177348   3.730   5.511  13.376  0.5716 -0.2308  0.7857
18619TIP3    H277349   3.623   5.609  13.419  0.5720  0.3443 -0.4942
18620TIP3   OH277350   2.356   3.288  16.510 -0.3128  0.8501  0.1769
18620TIP3    H177351   2.362   3.271  16.416  2.0097  2.4455 -0.0383
18620TIP3    H277352   2.378   3.205  16.551 -2.0679 -0.0720 -0.6216
18621TIP3   OH277353   2.022   5.024  15.153  0.2028  0.6426  0.1972
18621TIP3    H177354   1.941   5.019  15.203  0.1979  0.8409  0.2066
18621TIP3    H277355   2.081   5.077  15.206  0.4993  0.1123  0.4090
18622TIP3   OH277356   4.630   0.716   1.990  0.2559 -0.5229  0.9609
18622TIP3    H177357   4.582   0.663   2.053  0.4901 -1.0966  0.6601
18622TIP3    H277358   4.715   0.674   1.983  0.2833 -0.3739  0.3711
18623TIP3   OH277359   4.142   0.476   0.620 -0.3394  0.1652  0.6564
18623TIP3    H177360   4.101   0.529   0.689 -0.2513 -0.2974  1.0665
18623TIP3    H277361   4.234   0.470   0.646  0.3498  2.3395 -0.9556
18624TIP3   OH277362   6.008   4.383   4.110 -0.4075 -0.6232 -0.5748
18624TIP3    H177363   5.975   4.435   4.184 -0.3820  0.5995 -1.3945
18624TIP3    H277364   6.096   4.416   4.096  0.0176 -1.6818 -0.4113
18625TIP3   OH277365   3.153   6.291   1.504  0.0459 -0.1832 -0.5949
18625TIP3    H177366   3.241   6.254   1.511  0.2064 -0.2304 -2.3568
18625TIP3    H277367   3.119   6.289   1.593  2.0561  0.4260  0.2534
18626TIP3   OH277368   5.682   6.475  14.985 -0.3684 -0.1528 -0.5883
18626TIP3    H177369   5.771   6.486  14.951 -0.3535 -1.1329 -0.8949
18626TIP3    H277370   5.644   6.563  14.981  1.2385  0.7029  1.4689
18627TIP3   OH277371   1.086   0.247   1.015 -0.5946  0.4330  0.4590
18627TIP3    H177372   1.095   0.192   0.937 -1.3248  0.2164  0.5234
18627TIP3    H277373   1.176   0.259   1.046 -0.3318  0.2224 -0.2093
18628TIP3   OH277374   1.313   5.109  16.682  0.6700  0.2516  0.0836
18628TIP3    H177375   1.273   5.180  16.632 -0.7010  0.2355  1.1145
18628TIP3    H277376   1.371   5.065  16.619 -0.8488  0.3433 -1.4364
18629TIP3   OH277377   6.589   2.668  15.261 -0.9059  0.1372  0.3120
18629TIP3    H177378   6.658   2.644  15.324 -1.3380  3.6891  2.3941
18629TIP3    H277379   6.624   2.641  15.176  1.7403 -0.8225  1.5974
18630TIP3   OH277380   0.616   2.020   5.349  0.0429 -0.3204  0.3961
18630TIP3    H177381   0.581   2.011   5.438 -0.2430 -1.3137  0.1972
18630TIP3    H277382   0.554   2.079   5.305  0.4198  0.5222  0.9588
18631TIP3   OH277383   0.218   5.018   4.612  0.5433 -0.4674  0.1205
18631TIP3    H177384   0.179   5.100   4.581  2.6540  0.8691  0.7934
18631TIP3    H277385   0.242   4.971   4.533  0.1391 -0.0209 -0.2731
18632TIP3   OH277386   6.407   3.554   3.878 -0.6931 -0.6710  0.1155
18632TIP3    H177387   6.369   3.610   3.810  0.7685  0.2083 -0.0033
18632TIP3    H277388   6.501   3.560   3.866 -0.2817  0.5028  2.9386
18633TIP3   OH277389   6.506   1.674  15.744 -0.1311 -0.0058  0.6678
18633TIP3    H177390   6.412   1.653  15.750  0.0714 -0.8519  1.0901
18633TIP3    H277391   6.520   1.696  15.652 -0.6962 -0.1307  0.5479
18634TIP3   OH277392   2.316   3.516   6.003  0.0180 -0.2561  0.6240
18634TIP3    H177393   2.225   3.532   5.977  0.8754 -0.0506 -2.6990
18634TIP3    H277394   2.333   3.583   6.069 -1.8208  0.6831  0.2288
18635TIP3   OH277395   1.967   1.917   5.994  0.4618 -0.5877  0.3031
18635TIP3    H177396   1.968   1.925   6.089 -1.7126  0.3345  0.3199
18635TIP3    H277397   1.896   1.976   5.966 -0.5119 -2.5542 -1.6697
18636TIP3   OH277398   3.619   2.228  13.306 -0.0664  0.5005 -0.1927
18636TIP3    H177399   3.668   2.306  13.332  1.3725 -0.7977  1.2148
18636TIP3    H277400   3.684   2.172  13.263 -1.0791  0.0573 -1.2146
18637TIP3   OH277401   4.356   1.058   0.410 -0.3677  0.5841 -0.0952
18637TIP3    H177402   4.339   1.044   0.316  0.8161  0.8704 -0.3619
18637TIP3    H277403   4.341   1.151   0.424 -1.0007  0.4557  0.1066
18638TIP3   OH277404   0.872   4.740  12.277 -0.2096 -0.0082 -0.2851
18638TIP3    H177405   0.824   4.776  12.352  2.1430  0.9240  0.8585
18638TIP3    H277406   0.842   4.649  12.272 -1.5836  0.3414  0.7723
18639TIP3   OH277407   3.016   2.091   6.035 -0.1389  0.0300  0.5092
18639TIP3    H177408   3.067   2.061   5.959 -0.0948 -2.4538  1.4333
18639TIP3    H277409   3.082   2.128   6.094  0.7571 -3.1575  1.6944
18640TIP3   OH277410   0.475   3.147  14.753  0.6821 -0.1123  0.6091
18640TIP3    H177411   0.418   3.221  14.776  0.9420  0.5611 -0.8044
18640TIP3    H277412   0.439   3.073  14.802  0.3220  0.8984  1.9504
18641TIP3   OH277413   3.701   4.066   3.062  0.7241 -0.0247  0.0495
18641TIP3    H177414   3.658   3.995   3.016  0.8160 -0.4671  0.6309
18641TIP3    H277415   3.673   4.145   3.017  0.3671 -0.4086 -0.4033
18642TIP3   OH277416   6.630   1.892   6.570  0.0115 -0.2174  0.2343
18642TIP3    H177417   6.710   1.945   6.570 -0.8970  1.4298 -3.2376
18642TIP3    H277418   6.659   1.805   6.543  0.9390 -0.4697  1.8603
18643TIP3   OH277419   6.365   2.042   3.624 -0.3428  0.9165 -0.5878
18643TIP3    H177420   6.411   2.077   3.548  0.7045  0.2340 -0.2874
18643TIP3    H277421   6.339   2.120   3.674  0.9231  1.3059 -0.5195
18644TIP3   OH277422   1.106   3.159   2.225  0.2263 -0.2088 -0.7034
18644TIP3    H177423   1.040   3.096   2.196  0.1448  0.3819 -1.8724
18644TIP3    H277424   1.060   3.244   2.226  0.8844  0.1679 -1.2837
18645TIP3   OH277425   4.412   5.004   6.316  0.3417 -0.4405  0.2011
18645TIP3    H177426   4.449   5.069   6.256 -0.7194  0.6384  0.6647
18645TIP3    H277427   4.421   5.043   6.403 -1.8290 -0.1166  0.3346
18646TIP3   OH277428   2.044   6.525   5.692  0.3471  0.2062 -0.5937
18646TIP3    H177429   2.085   6.496   5.611 -0.5749  1.4859 -1.5443
18646TIP3    H277430   2.101   6.594   5.725 -0.1483  0.8595 -1.0671
18647TIP3   OH277431   5.873   2.691  15.120 -0.2063  0.2351 -0.2931
18647TIP3    H177432   5.938   2.656  15.181  2.0911 -0.0476 -2.6899
18647TIP3    H277433   5.846   2.774  15.158 -0.9283 -1.0926  2.3528
18648TIP3   OH277434   5.664   1.655   4.394  0.2494  0.0068  0.2048
18648TIP3    H177435   5.613   1.650   4.474  1.2305  2.1039  1.0233
18648TIP3    H277436   5.734   1.590   4.405  0.3035  0.1976  0.9956
18649TIP3   OH277437   3.928   2.392   6.402  0.1735 -0.2702  0.4487
18649TIP3    H177438   3.888   2.364   6.484 -1.5980  1.5077  0.2567
18649TIP3    H277439   3.967   2.476   6.422 -1.9959  1.1640 -0.9042
18650TIP3   OH277440   1.341   4.064  12.336 -0.2061 -0.3456  0.2965
18650TIP3    H177441   1.363   4.157  12.333 -1.2756 -0.0483  0.8945
18650TIP3    H277442   1.286   4.049  12.259  0.6538 -0.6882 -0.2632
18651TIP3   OH277443   0.783   3.955  14.132  0.3849 -0.2848  0.3813
18651TIP3    H177444   0.859   4.011  14.117  0.9081 -0.5984  1.6970
18651TIP3    H277445   0.807   3.904  14.210  0.4953 -3.2696 -1.4625
18652TIP3   OH277446   1.022   4.507   6.875 -0.0116  0.2561 -0.4155
18652TIP3    H177447   0.944   4.520   6.820 -0.8542 -2.8226 -0.1209
18652TIP3    H277448   0.994   4.447   6.943  2.3876 -0.1003  0.3516
18653TIP3   OH277449   6.695   5.800  16.336  0.6244  0.4263 -0.1520
18653TIP3    H177450   6.600   5.809  16.349  0.6737  0.9625 -0.1625
18653TIP3    H277451   6.711   5.843  16.252  0.8785  0.3117 -0.1620
18654TIP3   OH277452   5.586   5.612   4.592 -0.0016 -0.0403 -0.4376
18654TIP3    H177453   5.519   5.659   4.642 -1.2432 -2.0121 -0.1248
18654TIP3    H277454   5.536   5.550   4.538  1.4598  0.1696 -2.1093
18655TIP3   OH277455   5.197   2.422   1.353  0.2650  0.1683  0.3347
18655TIP3    H177456   5.219   2.437   1.445 -1.7499 -0.2660  0.9545
18655TIP3    H277457   5.114   2.468   1.341 -0.1048 -0.7728 -0.9117
18656TIP3   OH277458   5.564   6.674   1.195  0.1553  0.4842  0.0665
18656TIP3    H177459   5.480   6.715   1.177  0.3344  1.0404  0.4775
18656TIP3    H277460   5.593   6.642   1.109 -1.2273 -1.2060  0.1841
18657TIP3   OH277461   1.729   5.180  14.509 -0.2986 -0.4385  0.0070
18657TIP3    H177462   1.759   5.182  14.418  0.7106 -0.0070  0.3356
18657TIP3    H277463   1.692   5.092  14.520 -1.0816 -0.2620 -1.0036
18658TIP3   OH277464   4.017   3.844  16.694 -0.1468 -0.2968 -0.1425
18658TIP3    H177465   4.066   3.878  16.769  0.7218 -1.0485 -0.3428
18658TIP3    H277466   4.054   3.890  16.618 -0.4071 -0.1791 -0.1964
18659TIP3   OH277467   4.343   0.248  14.524  0.0573 -0.2190 -0.0183
18659TIP3    H177468   4.381   0.292  14.448 -0.9250 -0.3703 -0.6104
18659TIP3    H277469   4.320   0.319  14.584 -0.4663  0.0075 -0.4775
18660TIP3   OH277470   5.402   2.056   3.625  0.4423 -0.5592 -0.0325
18660TIP3    H177471   5.495   2.061   3.647  0.0301 -1.1954  2.1080
18660TIP3    H277472   5.386   2.133   3.570  1.7941  0.8067  1.3596
18661TIP3   OH277473   5.606   1.003   1.111 -0.2235 -0.1520  0.4309
18661TIP3    H177474   5.579   0.929   1.166 -1.6580 -1.3828 -1.7877
18661TIP3    H277475   5.524   1.044   1.083  0.3554 -0.4127 -1.8298
18662TIP3   OH277476   0.418   5.824  14.158  0.1826 -0.0924  0.1308
18662TIP3    H177477   0.459   5.738  14.167 -1.2820 -0.7091  1.1986
18662TIP3    H277478   0.383   5.825  14.069 -0.4738 -0.9172  0.3751
18663TIP3   OH277479   3.961   3.259   2.595  0.0876  0.0835 -0.5159
18663TIP3    H177480   3.940   3.290   2.507 -2.1083 -0.7121 -0.3350
18663TIP3    H277481   3.958   3.338   2.649  0.3569  0.4090 -0.9691
18664TIP3   OH277482   0.444   5.803   5.129 -0.4462 -0.1217 -0.2443
18664TIP3    H177483   0.532   5.767   5.141  0.1379  1.4620  0.5659
18664TIP3    H277484   0.405   5.800   5.216 -2.7202 -4.3001 -1.1719
18665TIP3   OH277485   3.994   2.717   0.991 -0.4469  0.2652 -0.2824
18665TIP3    H177486   4.002   2.622   0.983  1.2322  0.2065  1.5152
18665TIP3    H277487   3.972   2.747   0.902  0.2678 -1.6731 -1.1549
18666TIP3   OH277488   1.087   1.791   5.615  0.1601 -0.1132  0.5507
18666TIP3    H177489   1.031   1.851   5.565  1.1105 -0.8189 -1.4707
18666TIP3    H277490   1.168   1.840   5.628  0.6225 -0.6147 -0.3502
18667TIP3   OH277491   6.434   6.689   5.293 -0.1396  0.4976  0.5589
18667TIP3    H177492   6.401   6.728   5.374 -0.8689  0.1274  0.4477
18667TIP3    H277493   6.368   6.624   5.269 -0.4854  1.3763 -0.9426
18668TIP3   OH277494   2.155   5.208   4.503  0.5199 -0.2180 -0.2776
18668TIP3    H177495   2.082   5.221   4.563  0.5305 -0.7707 -0.1389
18668TIP3    H277496   2.119   5.226   4.417  0.6789  1.2702 -0.0592
18669TIP3   OH277497   4.985   6.632  16.452 -0.3477 -0.4336  0.3395
18669TIP3    H177498   4.928   6.700  16.417  1.2852  0.2270 -1.1561
18669TIP3    H277499   5.004   6.575  16.377  1.0992 -0.5284  0.7443
18670TIP3   OH277500   5.670   5.256   3.758 -1.1265 -0.3433  0.8236
18670TIP3    H177501   5.583   5.293   3.745 -0.7576  0.1723 -0.3152
18670TIP3    H277502   5.699   5.231   3.670  0.2237  0.3076  1.0576
18671TIP3   OH277503   6.638   2.460   4.901  0.0037 -0.0571  0.1121
18671TIP3    H177504   6.654   2.533   4.960 -0.0051  0.0828 -0.0552
18671TIP3    H277505   6.612   2.388   4.957  2.5556 -0.7242  0.5604
18672TIP3   OH277506   6.587   2.315  16.268  0.7308  0.2449 -0.7768
18672TIP3    H177507   6.662   2.258  16.254  1.5109  1.1056 -0.2578
18672TIP3    H277508   6.607   2.394  16.217  1.2842  1.4041  1.1282
18673TIP3   OH277509   0.741   0.173  14.572 -0.0009  0.2114 -0.0181
18673TIP3    H177510   0.795   0.196  14.496 -0.4359  0.7835 -0.1542
18673TIP3    H277511   0.805   0.160  14.642  0.3807  0.0177 -0.3909
18674TIP3   OH277512   1.099   4.762  11.927  0.2704 -0.1260  0.4575
18674TIP3    H177513   1.018   4.717  11.950  0.0547  0.1522  0.2430
18674TIP3    H277514   1.157   4.746  12.001  1.0972 -2.9349 -0.6721
18675TIP3   OH277515   2.252   1.754   4.156  0.0693  0.5872 -0.0128
18675TIP3    H177516   2.272   1.804   4.077  0.1736  0.7932  0.1399
18675TIP3    H277517   2.336   1.713   4.180 -0.3249 -0.7937 -0.9119
18676TIP3   OH277518   1.863   3.937  16.085 -0.5682 -0.5045  0.2932
18676TIP3    H177519   1.916   3.874  16.036  0.3139 -0.6411  1.3876
18676TIP3    H277520   1.774   3.902  16.079 -0.2797 -1.1937 -0.1454
18677TIP3   OH277521   3.964   0.221   2.145 -0.0422  0.2026 -0.0092
18677TIP3    H177522   3.970   0.201   2.052 -2.0055 -1.0903  0.0892
18677TIP3    H277523   3.878   0.262   2.156  0.7996  1.7919  1.0280
18678TIP3   OH277524   3.543   0.827  13.486 -0.1364  0.2148  0.1863
18678TIP3    H177525   3.559   0.827  13.580  0.9385 -0.0423  0.0168
18678TIP3    H277526   3.577   0.912  13.456 -0.9672  0.5275  0.0987
18679TIP3   OH277527   6.396   6.289  12.259 -0.0447  0.0895  0.2711
18679TIP3    H177528   6.483   6.330  12.262 -0.0898  0.2395 -0.4110
18679TIP3    H277529   6.379   6.275  12.166 -0.8333  0.2258  0.3874
18680TIP3   OH277530   1.980   6.819   4.262 -0.3766 -0.4600 -0.0026
18680TIP3    H177531   1.949   6.839   4.350  0.6548 -0.5091  0.3847
18680TIP3    H277532   2.013   6.729   4.268 -0.9651 -0.7249 -0.6277
18681TIP3   OH277533   2.958   5.604  12.799  0.0339 -0.3290  0.0979
18681TIP3    H177534   2.981   5.610  12.892 -0.0238  0.7453  0.0534
18681TIP3    H277535   2.985   5.516  12.773  0.2887 -0.5467  1.0686
18682TIP3   OH277536   1.434   0.831  15.760  0.1192  0.1422 -0.3283
18682TIP3    H177537   1.412   0.884  15.837 -1.8418  0.4328 -1.0409
18682TIP3    H277538   1.530   0.825  15.762  0.1187 -0.2575  2.3649
18683TIP3   OH277539   0.098   2.665   0.262 -0.6222  0.0303 -0.6801
18683TIP3    H177540   0.003   2.658   0.254 -1.0275  1.0121  2.2014
18683TIP3    H277541   0.120   2.745   0.213 -1.5627  0.7957  0.1076
18684TIP3   OH277542   4.473   5.360   2.945  0.3879 -0.5581  1.0462
18684TIP3    H177543   4.405   5.303   2.911  0.4172 -1.2020  2.0064
18684TIP3    H277544   4.472   5.437   2.888 -0.9770 -0.6631  0.9002
18685TIP3   OH277545   6.218   6.682  15.336  0.1003  0.5304 -0.0830
18685TIP3    H177546   6.245   6.745  15.402  2.0527 -0.2054 -0.1212
18685TIP3    H277547   6.153   6.627  15.380 -2.4917  3.0954 -0.3523
18686TIP3   OH277548   0.193   5.015   1.156 -0.5753  0.1681  0.1851
18686TIP3    H177549   0.233   5.099   1.178 -0.3097  0.3223 -0.8284
18686TIP3    H277550   0.248   4.981   1.085 -0.1148 -1.3069  1.2018
18687TIP3   OH277551   6.662   5.788  12.562  0.4422 -0.4453 -0.2221
18687TIP3    H177552   6.671   5.812  12.654  0.6550 -4.0390  0.8638
18687TIP3    H277553   6.577   5.821  12.536  0.3475  0.5716  1.2938
18688TIP3   OH277554   5.953   3.733  12.965 -0.0233 -0.5274  0.1775
18688TIP3    H177555   5.891   3.687  13.021 -1.1507  0.3578 -0.2897
18688TIP3    H277556   5.993   3.799  13.022  0.6467 -1.2129  0.5235
18689TIP3   OH277557   2.595   5.746   5.168  0.2505  0.6199  0.3707
18689TIP3    H177558   2.639   5.663   5.186  0.6487  0.2474 -1.9792
18689TIP3    H277559   2.502   5.725   5.170  0.3514  0.0756 -0.2976
18690TIP3   OH277560   0.744   2.369  15.668  0.5027  0.3029 -0.6118
18690TIP3    H177561   0.787   2.450  15.694  0.6637 -0.3980  1.4863
18690TIP3    H277562   0.816   2.307  15.652  0.3933 -0.4194  1.3735
18691TIP3   OH277563   3.100   1.480   3.583  0.2168 -0.2356 -0.4202
18691TIP3    H177564   3.126   1.572   3.580  1.2057 -0.4718  0.3896
18691TIP3    H277565   3.166   1.435   3.531 -1.6899 -0.2449 -3.0661
18692TIP3   OH277566   1.970   4.948  12.763  0.2381  0.8258  0.1887
18692TIP3    H177567   2.006   5.021  12.712 -0.5629 -0.0579 -1.7459
18692TIP3    H277568   1.914   4.901  12.701 -1.1520 -0.0823  2.0267
18693TIP3   OH277569   6.658   1.637  15.103 -0.0288 -0.5505  0.1447
18693TIP3    H177570   6.575   1.639  15.056 -1.0506 -0.9533  1.8434
18693TIP3    H277571   6.719   1.683  15.046 -1.3584 -0.4141 -1.2331
18694TIP3   OH277572   0.939   3.467  15.421 -0.1463 -0.5764 -0.6001
18694TIP3    H177573   1.011   3.503  15.471 -0.5098 -0.9792  0.2370
18694TIP3    H277574   0.908   3.393  15.473 -3.3296  1.5425  0.8388
18695TIP3   OH277575   5.687   1.853  11.559  0.0257 -0.3251 -0.2511
18695TIP3    H177576   5.718   1.888  11.643 -0.7520 -0.6773  0.1982
18695TIP3    H277577   5.592   1.843  11.571 -0.3584  1.1621 -1.7440
18696TIP3   OH277578   5.981   0.451  12.691  0.7965 -0.2639 -0.4420
18696TIP3    H177579   5.930   0.525  12.723  0.8364 -0.0254 -0.9124
18696TIP3    H277580   6.044   0.433  12.761  0.2564 -0.3814  0.0195
18697TIP3   OH277581   5.511   5.753  14.135 -0.2484  0.5955 -0.2548
18697TIP3    H177582   5.484   5.740  14.225 -0.1089  1.2892 -0.1045
18697TIP3    H277583   5.515   5.849  14.124  2.0420  0.5503 -0.2765
18698TIP3   OH277584   5.549   1.493   2.685 -0.0177  0.0896 -0.3930
18698TIP3    H177585   5.486   1.421   2.683  0.4816 -0.3543 -0.3760
18698TIP3    H277586   5.544   1.527   2.774  0.4521 -0.5637 -0.1115
18699TIP3   OH277587   0.276   1.932   3.927  0.1085  0.1442 -0.3155
18699TIP3    H177588   0.259   1.940   3.833 -2.7472 -0.8556  0.0276
18699TIP3    H277589   0.310   2.018   3.952  1.6045  0.2186 -2.3188
18700TIP3   OH277590   6.772   0.062   1.573  0.1368 -0.0507  0.1550
18700TIP3    H177591   6.713  -0.012   1.562  1.5827 -1.2011 -0.2244
18700TIP3    H277592   6.857   0.022   1.592  1.0853  1.4822 -0.6455
18701TIP3   OH277593   5.493   2.231  15.967  0.1317  0.3689 -0.0591
18701TIP3    H177594   5.459   2.176  15.896 -0.7935  2.5195 -1.4028
18701TIP3    H277595   5.576   2.264  15.934  0.1224  0.6819  0.2301
18702TIP3   OH277596   1.459   3.517   4.852  0.6392  0.3386 -0.0793
18702TIP3    H177597   1.397   3.488   4.919 -0.4165 -1.0376 -1.5986
18702TIP3    H277598   1.413   3.588   4.806  0.3652 -0.3386 -0.8750
18703TIP3   OH277599   1.594   6.525  13.520 -0.0525  0.3760  0.3237
18703TIP3    H177600   1.638   6.522  13.605 -0.4829  0.4757  0.5517
18703TIP3    H277601   1.615   6.612  13.486 -0.2116  0.4901  0.5107
18704TIP3   OH277602   6.761   1.997   4.408 -0.1145  0.1663 -0.1954
18704TIP3    H177603   6.700   2.068   4.427 -0.1229  0.4326 -1.1830
18704TIP3    H277604   6.825   2.000   4.480 -0.7995  0.3928  0.4096
18705TIP3   OH277605   1.699   1.728  15.048 -0.2370  0.1394  0.0306
18705TIP3    H177606   1.664   1.679  15.122 -1.6764  1.6053  0.3709
18705TIP3    H277607   1.785   1.689  15.032 -0.1312 -0.5818  2.0976
18706TIP3   OH277608   6.617   3.061  16.488  0.3797  0.9538 -0.4624
18706TIP3    H177609   6.590   2.979  16.528  2.3766  0.1769 -0.6311
18706TIP3    H277610   6.571   3.063  16.403  0.4020 -0.0284 -0.5057
18707TIP3   OH277611   3.664   6.656   5.601  0.7234  0.2797 -0.0411
18707TIP3    H177612   3.739   6.705   5.568  0.5114  0.3818 -0.3712
18707TIP3    H277613   3.675   6.568   5.567 -0.6221  0.8841 -2.2311
18708TIP3   OH277614   0.308   1.292  12.292  0.2593 -0.2261  0.3272
18708TIP3    H177615   0.226   1.277  12.340  0.4752 -0.5531  0.5986
18708TIP3    H277616   0.336   1.204  12.266 -0.8932  0.0704 -2.1517
18709TIP3   OH277617   6.018   6.378   6.683  0.1258 -0.0460 -0.6178
18709TIP3    H177618   5.970   6.434   6.743 -0.2139 -1.0091  0.0382
18709TIP3    H277619   6.069   6.438   6.629 -2.1001  1.0578 -1.6304
18710TIP3   OH277620   5.501   3.010   4.152 -0.3102  0.2062  0.1385
18710TIP3    H177621   5.453   3.024   4.234 -0.2601 -2.9145  0.8371
18710TIP3    H277622   5.591   3.037   4.173 -0.4020 -0.1033  0.9755
18711TIP3   OH277623   3.888   5.170   1.721 -0.5477 -0.0284  0.6022
18711TIP3    H177624   3.848   5.157   1.807 -0.3151  0.9886  0.8804
18711TIP3    H277625   3.828   5.128   1.659  0.6808 -3.3388  1.4556
18712TIP3   OH277626   4.311   5.501   3.351  0.2210  0.0503  0.2700
18712TIP3    H177627   4.236   5.458   3.310  0.5323 -0.5612  0.3310
18712TIP3    H277628   4.283   5.517   3.442  0.0944 -0.0015  0.2395
18713TIP3   OH277629   1.434   6.739  16.386  0.1582  0.2701  0.0253
18713TIP3    H177630   1.352   6.764  16.428 -0.5936  0.1245 -1.3033
18713TIP3    H277631   1.499   6.742  16.456 -1.4775 -2.4057  1.8203
18714TIP3   OH277632   5.207   3.820   0.261  0.0156  0.2160 -0.4348
18714TIP3    H177633   5.226   3.727   0.258  1.0473  0.4495 -2.0179
18714TIP3    H277634   5.140   3.828   0.329 -0.2497 -1.6908 -0.4156
18715TIP3   OH277635   3.782   1.569  14.915 -0.3956  0.5753  0.0479
18715TIP3    H177636   3.694   1.551  14.883 -0.1843 -1.5106  0.4927
18715TIP3    H277637   3.770   1.627  14.990 -1.4773 -0.4355  0.6787
18716TIP3   OH277638   4.048   5.163  10.883  0.4427 -0.2904  0.5000
18716TIP3    H177639   4.012   5.136  10.798  0.5219 -2.1573  1.0150
18716TIP3    H277640   3.973   5.196  10.931  0.5259  1.5547 -0.5315
18717TIP3   OH277641   6.684   1.568   3.475 -0.2405  0.0503 -0.5501
18717TIP3    H177642   6.754   1.522   3.522 -0.7966 -0.6702 -0.4094
18717TIP3    H277643   6.653   1.504   3.411 -1.0739  0.2031 -0.3058
18718TIP3   OH277644   1.751   1.828  11.542  0.4473  0.4328  0.1857
18718TIP3    H177645   1.839   1.791  11.549  0.9072  0.9892 -2.0412
18718TIP3    H277646   1.734   1.833  11.448 -1.8133  0.7342  0.5504
18719TIP3   OH277647   5.326   1.031   2.928  0.4408 -0.3154  0.2779
18719TIP3    H177648   5.267   0.988   2.865 -0.4474  0.2496  0.6969
18719TIP3    H277649   5.391   1.075   2.874  0.1578 -0.5000 -0.2221
18720TIP3   OH277650   1.914   4.200   5.712  0.3294 -0.0352 -0.5368
18720TIP3    H177651   1.958   4.117   5.735  1.0236  0.3127 -0.5739
18720TIP3    H277652   1.892   4.190   5.620 -1.7075 -1.1014  0.0049
18721TIP3   OH277653   1.492   1.276  14.751 -0.1023  0.3338 -0.2527
18721TIP3    H177654   1.575   1.324  14.762  0.8469 -0.4170 -3.1587
18721TIP3    H277655   1.491   1.213  14.823  1.7255  0.5744  0.0331
18722TIP3   OH277656   1.818   1.396  11.579 -0.4556  0.1218  0.0869
18722TIP3    H177657   1.730   1.410  11.616 -0.5772 -0.9101  0.2255
18722TIP3    H277658   1.808   1.419  11.486 -1.3712 -1.6805 -0.3152
18723TIP3   OH277659   0.937   3.310  12.358  0.0483 -0.1376 -0.0605
18723TIP3    H177660   0.934   3.259  12.278  0.7400 -1.2624  0.6017
18723TIP3    H277661   0.965   3.248  12.425 -2.1281  0.3538  1.4034
18724TIP3   OH277662   2.643   0.081   2.454 -0.4871 -0.5972 -0.0041
18724TIP3    H177663   2.733   0.078   2.422 -0.6575 -0.0062 -0.5561
18724TIP3    H277664   2.611  -0.008   2.443 -0.0240 -0.7734  0.0398
18725TIP3   OH277665   5.254   3.310  16.064 -0.4356 -0.4813 -0.0573
18725TIP3    H177666   5.174   3.258  16.052  0.2665 -1.4431 -0.7791
18725TIP3    H277667   5.289   3.320  15.975  0.4701 -0.4377  0.2988
18726TIP3   OH277668   0.085   1.926   4.652 -0.2661  0.1773  0.3425
18726TIP3    H177669   0.061   1.986   4.723 -0.7211 -1.4993  1.6784
18726TIP3    H277670   0.180   1.921   4.656 -0.1871  1.0613 -0.0372
18727TIP3   OH277671   5.209   0.994  14.155  0.0699 -0.4032 -0.0841
18727TIP3    H177672   5.302   1.011  14.170 -0.2280  0.2037  1.2258
18727TIP3    H277673   5.173   1.079  14.129  0.1401 -0.9632 -2.2615
18728TIP3   OH277674   6.289   5.158   0.851  0.3620  0.3503 -0.2380
18728TIP3    H177675   6.344   5.116   0.917  0.5448  0.3253 -0.4035
18728TIP3    H277676   6.317   5.119   0.768  0.3024  0.5561 -0.3570
18729TIP3   OH277677   4.436   1.954   2.537  0.3270  0.0117  0.1596
18729TIP3    H177678   4.369   1.981   2.600  1.0171  1.4605  0.3304
18729TIP3    H277679   4.498   1.903   2.589  1.0359  1.4291  0.7620
18730TIP3   OH277680   1.906   0.083  12.213 -0.5810 -0.2329  0.1703
18730TIP3    H177681   1.971   0.056  12.148 -1.1669 -0.6431 -0.2599
18730TIP3    H277682   1.833   0.022  12.200 -1.4779  0.8547 -0.0613
18731TIP3   OH277683   2.088   0.176  13.725 -0.0788  0.1324  0.3996
18731TIP3    H177684   2.152   0.225  13.673 -2.2646  0.0680 -2.6402
18731TIP3    H277685   2.054   0.241  13.788 -0.1839  1.4573 -0.9698
18732TIP3   OH277686   2.217   1.045  12.712  0.0798  0.3517 -0.7016
18732TIP3    H177687   2.209   0.965  12.660  0.8907  1.3786 -2.4730
18732TIP3    H277688   2.279   1.022  12.782  0.7440 -0.4037 -1.5160
18733TIP3   OH277689   3.427   6.094  12.742  0.2209  0.2615  0.5503
18733TIP3    H177690   3.333   6.099  12.759  0.0095 -0.1957 -0.4040
18733TIP3    H277691   3.436   6.119  12.650  1.1447  1.2644  0.8901
18734TIP3   OH277692   5.667   5.990   6.106  1.5210  0.5213 -0.4103
18734TIP3    H177693   5.697   6.043   6.179  0.0391  1.1407 -0.2285
18734TIP3    H277694   5.697   5.901   6.127  1.0848  0.6834  0.9590
18735TIP3   OH277695   0.329   4.677  11.736 -0.2797 -0.0008 -0.3410
18735TIP3    H177696   0.308   4.763  11.771  0.0994 -0.2655  0.5665
18735TIP3    H277697   0.275   4.669  11.658 -1.0435  0.6602  0.1099
18736TIP3   OH277698   4.155   4.566   3.580  0.0144 -0.1216 -0.7666
18736TIP3    H177699   4.076   4.613   3.606  1.5861  1.1631  2.2248
18736TIP3    H277700   4.183   4.608   3.499 -2.3107 -0.6666 -1.9505
18737TIP3   OH277701   3.821   2.897   5.602 -0.1609 -0.3064  0.0947
18737TIP3    H177702   3.752   2.849   5.649  1.1999 -0.9703  1.5032
18737TIP3    H277703   3.899   2.887   5.657  0.6192  2.0218 -0.4824
18738TIP3   OH277704   2.894   0.445  14.168 -0.1907 -0.4018 -0.3581
18738TIP3    H177705   2.865   0.499  14.242  0.6336  0.1100 -0.3873
18738TIP3    H277706   2.819   0.444  14.109  0.2477  2.0170 -1.0679
18739TIP3   OH277707   6.665   2.207  10.450 -0.0284 -0.6808  0.3033
18739TIP3    H177708   6.623   2.143  10.507 -0.1782 -0.1709  0.7698
18739TIP3    H277709   6.618   2.200  10.367 -0.1582 -1.0432  0.4037
18740TIP3   OH277710   3.359   0.459  11.932 -0.3844  0.1055  0.1525
18740TIP3    H177711   3.300   0.406  11.877 -0.8422 -0.4658  1.1508
18740TIP3    H277712   3.377   0.402  12.007  0.9362  0.5307  0.1736
18741TIP3   OH277713   6.821   5.387   3.682 -0.6463  0.0207  0.1690
18741TIP3    H177714   6.732   5.367   3.710 -0.4128 -2.4035 -0.5581
18741TIP3    H277715   6.875   5.322   3.727  0.6357  0.8245 -0.1526
18742TIP3   OH277716   3.524   5.005   5.698 -0.3335  0.2248  0.0086
18742TIP3    H177717   3.540   4.936   5.763  1.8231 -0.8754 -1.5562
18742TIP3    H277718   3.570   5.081   5.733  0.6070 -0.2882 -0.0836
18743TIP3   OH277719   5.186   3.151  11.747  0.2921 -0.6885  0.2023
18743TIP3    H177720   5.262   3.138  11.690  0.1596  0.0090 -0.1422
18743TIP3    H277721   5.223   3.179  11.830  0.3857  0.4210 -0.1988
18744TIP3   OH277722   0.479   3.441  11.061 -0.7006  0.0948  0.2593
18744TIP3    H177723   0.492   3.535  11.046 -0.7781 -0.0991 -1.1643
18744TIP3    H277724   0.491   3.401  10.975  0.1693 -1.3102  0.9931
18745TIP3   OH277725   1.330   0.954   3.344 -0.1211  0.4392  0.2596
18745TIP3    H177726   1.261   0.966   3.278  0.8207 -0.7771 -1.0111
18745TIP3    H277727   1.393   1.023   3.325  0.3704 -0.1816 -0.4597
18746TIP3   OH277728   1.783   2.803  15.072 -0.1864  0.0872  0.0009
18746TIP3    H177729   1.774   2.885  15.023 -2.1622  1.7500  2.8949
18746TIP3    H277730   1.871   2.808  15.110 -0.2561  0.8118  0.0888
18747TIP3   OH277731   3.752   4.538  15.427  0.2180 -0.1292  0.1210
18747TIP3    H177732   3.689   4.573  15.365 -0.3079 -0.5049  0.4411
18747TIP3    H277733   3.707   4.466  15.471 -0.4783  1.9187  3.0503
18748TIP3   OH277734   3.504   2.586  15.568 -0.3441  0.0240 -0.1745
18748TIP3    H177735   3.530   2.677  15.578 -1.8929  0.5417 -0.5631
18748TIP3    H277736   3.415   2.582  15.605  0.3419 -1.7158  1.4506
18749TIP3   OH277737   1.909   3.083   4.964  0.4331  0.0467  0.0172
18749TIP3    H177738   1.870   3.055   5.047  0.1685  0.9195  0.1989
18749TIP3    H277739   1.888   3.176   4.958  1.3586  0.2364 -0.5186
18750TIP3   OH277740   0.200   4.098  11.272  0.0124  0.1747 -0.5583
18750TIP3    H177741   0.239   4.128  11.189 -2.5435 -1.4694 -2.5088
18750TIP3    H277742   0.139   4.168  11.296 -0.3030  0.0171 -0.8858
18751TIP3   OH277743   2.281   0.788  14.030  0.4345 -0.1102 -0.3649
18751TIP3    H177744   2.208   0.747  14.074  0.0766 -0.8637 -1.5911
18751TIP3    H277745   2.347   0.800  14.098 -1.4727  2.3730  1.2129
18752TIP3   OH277746   1.174   0.992   4.695  0.1244 -0.2643 -0.1697
18752TIP3    H177747   1.201   0.911   4.739  0.6704  0.7393  1.4338
18752TIP3    H277748   1.219   0.989   4.611  1.5914 -0.8100  0.5946
18753TIP3   OH277749   2.560   5.145  11.685 -0.5731 -0.4965  0.4541
18753TIP3    H177750   2.511   5.227  11.688  0.5662  0.1954  1.1991
18753TIP3    H277751   2.650   5.172  11.664 -0.4285 -1.6914 -0.5876
18754TIP3   OH277752   0.140   2.772  14.020 -0.3001  0.4874  0.5568
18754TIP3    H177753   0.124   2.866  14.006  0.4715  0.4625 -0.7093
18754TIP3    H277754   0.180   2.767  14.107 -1.3220  1.2015  1.0914
18755TIP3   OH277755   0.242   1.891   3.111  0.2107 -0.2806  0.1211
18755TIP3    H177756   0.246   1.930   3.024  0.3641 -2.3204 -0.8330
18755TIP3    H277757   0.186   1.950   3.161 -1.5112 -0.0789 -1.9261
18756TIP3   OH277758   5.981   5.364  13.837  0.3816 -0.1017  0.5128
18756TIP3    H177759   5.907   5.389  13.892  0.4239  1.0125  0.0953
18756TIP3    H277760   5.997   5.441  13.783 -0.2986 -1.4938 -1.8008
18757TIP3   OH277761   5.666   1.676  17.267  0.0718 -0.2186  0.0504
18757TIP3    H177762   5.645   1.746  17.206 -0.2344 -0.2538  0.1176
18757TIP3    H277763   5.758   1.693  17.291  0.3483 -0.4852 -0.7795
18758TIP3   OH277764   1.578   3.716   6.440 -0.5362  0.4557  0.4208
18758TIP3    H177765   1.527   3.736   6.518  1.9470 -0.7000  2.4793
18758TIP3    H277766   1.579   3.798   6.390 -0.1445  2.0410  2.8630
18759TIP3   OH277767   0.629   4.782  14.053 -0.4589 -0.2116 -0.7199
18759TIP3    H177768   0.604   4.875  14.051  0.6135  0.1656  0.8278
18759TIP3    H277769   0.717   4.780  14.015 -1.0827 -0.8670 -2.2007
18760TIP3   OH277770   4.247   2.712  13.244  0.2567  0.5941 -0.3897
18760TIP3    H177771   4.281   2.663  13.319 -1.0183 -0.4873 -0.4774
18760TIP3    H277772   4.216   2.795  13.282 -1.9043 -0.5910  0.6373
18761TIP3   OH277773   6.057   3.087   1.814  0.3984  0.7063  0.5154
18761TIP3    H177774   6.031   3.176   1.790  0.2334  0.4807 -0.1746
18761TIP3    H277775   6.088   3.094   1.904 -1.9824  1.0263  1.3737
18762TIP3   OH277776   1.525   5.614  11.083  0.2610  0.1911 -0.3920
18762TIP3    H177777   1.497   5.701  11.057 -0.7218 -0.3308 -1.1605
18762TIP3    H277778   1.460   5.587  11.148  2.0069  1.0086  1.8226
18763TIP3   OH277779   6.296   3.658   5.222  0.4487  0.2363  0.5510
18763TIP3    H177780   6.314   3.718   5.294 -0.0821 -0.4641  1.2880
18763TIP3    H277781   6.201   3.659   5.213  0.3439 -1.0912  1.1462
18764TIP3   OH277782   3.739   1.903   3.692 -0.0014  0.8129 -0.3609
18764TIP3    H177783   3.763   1.810   3.689  0.1621  0.8574 -2.9543
18764TIP3    H277784   3.764   1.931   3.779  0.6909 -1.3873  0.2240
18765TIP3   OH277785   3.628   1.134   5.187 -0.0463 -1.2282  0.4783
18765TIP3    H177786   3.609   1.047   5.151  0.2348 -1.3087  0.5195
18765TIP3    H277787   3.713   1.158   5.149 -0.7865 -0.3297 -0.6872
18766TIP3   OH277788   0.813   4.390  13.699 -0.1715  0.2097 -0.1584
18766TIP3    H177789   0.769   4.383  13.614  1.0623 -3.8947 -0.7047
18766TIP3    H277790   0.897   4.345  13.685 -0.9575 -2.9790  3.7724
18767TIP3   OH277791   5.831   1.481   1.463 -0.0832  0.3604  0.3511
18767TIP3    H177792   5.905   1.455   1.408 -1.7939 -1.1584 -1.3506
18767TIP3    H277793   5.813   1.572   1.438 -0.4905 -0.1370 -1.2652
18768TIP3   OH277794   5.082   6.424   2.689 -0.3523  0.4203  1.0007
18768TIP3    H177795   5.051   6.493   2.747 -0.7196  0.5572  0.6435
18768TIP3    H277796   5.003   6.388   2.649 -0.1977 -0.4739  1.4737
18769TIP3   OH277797   4.703   6.279  15.255  0.0771  0.0740 -0.0342
18769TIP3    H177798   4.709   6.362  15.301  2.1545 -0.5444  0.9471
18769TIP3    H277799   4.793   6.262  15.226 -0.4804 -1.4001 -0.9916
18770TIP3   OH277800   2.204   4.929   4.463 -0.5679 -0.2692  0.3738
18770TIP3    H177801   2.161   4.918   4.548 -1.3530 -0.2811 -0.0165
18770TIP3    H277802   2.220   5.023   4.458 -1.5462 -0.1068  0.0599
18771TIP3   OH277803   0.125   1.787   1.008 -0.1156 -0.0520 -0.6996
18771TIP3    H177804   0.036   1.778   0.973 -0.8044 -0.2701  1.0103
18771TIP3    H277805   0.148   1.878   0.991 -0.3106 -0.2073 -1.9049
18772TIP3   OH277806   0.153   5.080  15.397  0.2135 -0.4396 -0.1361
18772TIP3    H177807   0.146   5.171  15.427  0.1774 -0.6300  0.4556
18772TIP3    H277808   0.172   5.087  15.304  0.1374  0.1757 -0.1132
18773TIP3   OH277809   5.461   1.120   3.994 -0.3492  0.5570 -0.4312
18773TIP3    H177810   5.370   1.096   3.974  0.0447 -2.2365  0.6244
18773TIP3    H277811   5.454   1.192   4.056 -1.8423  0.5022 -0.5004
18774TIP3   OH277812   1.335   3.403   3.542 -0.4275 -0.9794 -0.0337
18774TIP3    H177813   1.274   3.409   3.468  0.3328  0.8677 -0.5494
18774TIP3    H277814   1.369   3.491   3.553 -0.8537 -1.0747  2.8635
18775TIP3   OH277815   3.542   2.986  13.908  0.2567  0.4264  0.0025
18775TIP3    H177816   3.465   3.006  13.962 -0.1558 -0.2389 -0.3261
18775TIP3    H277817   3.513   2.916  13.849  0.4099  1.7739 -1.7502
18776TIP3   OH277818   4.981   4.819  15.304  0.7160  0.7383 -0.3450
18776TIP3    H177819   4.948   4.895  15.351 -0.5254 -0.0602  0.1404
18776TIP3    H277820   4.914   4.799  15.239  0.0087 -1.1020  0.8567
18777TIP3   OH277821   1.862   3.903  11.405 -0.3474 -0.3215  0.3122
18777TIP3    H177822   1.865   3.998  11.413 -1.1108 -0.1870 -0.8864
18777TIP3    H277823   1.773   3.883  11.378 -0.6133 -1.5063  1.9075
18778TIP3   OH277824   1.362   3.425  16.430  0.0844  0.7108  0.2472
18778TIP3    H177825   1.340   3.351  16.487 -0.7053  0.4731 -0.3579
18778TIP3    H277826   1.327   3.502  16.475 -2.1944  0.3306 -0.7642
18779TIP3   OH277827   1.301   3.275   6.015  0.2380  0.0657  0.0877
18779TIP3    H177828   1.206   3.282   6.005  0.4721  1.5419 -1.6169
18779TIP3    H277829   1.315   3.274   6.110 -1.4493  0.2907  0.3673
18780TIP3   OH277830   1.883   1.123   1.706  0.4185 -0.1913 -0.3525
18780TIP3    H177831   1.889   1.028   1.717 -0.9327 -0.5908 -2.5531
18780TIP3    H277832   1.951   1.144   1.642  0.9313  0.4042  0.3665
18781TIP3   OH277833   6.119   4.582   6.392 -0.2059 -0.7147 -0.6638
18781TIP3    H177834   6.181   4.554   6.324  0.8617  1.2717 -0.5822
18781TIP3    H277835   6.053   4.634   6.345 -1.0172 -1.5930 -0.5344
18782TIP3   OH277836   5.937   1.324  16.895 -0.3210 -0.0641 -0.7928
18782TIP3    H177837   5.903   1.260  16.833  0.1097 -1.1049  0.0152
18782TIP3    H277838   5.945   1.405  16.844  1.0313 -1.1476 -2.3903
18783TIP3   OH277839   2.008   4.695  14.210 -0.1428  0.6608 -0.3887
18783TIP3    H177840   2.058   4.741  14.277  1.9483 -0.9025 -0.7545
18783TIP3    H277841   1.954   4.762  14.169  1.5117  2.4163  0.1887
18784TIP3   OH277842   0.249   2.289   3.090  0.4600 -0.3836  0.5125
18784TIP3    H177843   0.295   2.264   3.171  0.5720 -2.4955 -0.1328
18784TIP3    H277844   0.157   2.271   3.109  0.7104 -3.3934 -0.5571
18785TIP3   OH277845   1.931   5.422  15.148 -0.0768 -0.5575  0.5731
18785TIP3    H177846   1.889   5.413  15.233  0.4133  0.8113  0.9872
18785TIP3    H277847   2.020   5.452  15.168  0.4098 -1.2848 -0.3790
18786TIP3   OH277848   3.348   2.831   2.822 -0.7747 -0.5271  0.0429
18786TIP3    H177849   3.340   2.926   2.832 -0.6660 -0.1108 -2.8629
18786TIP3    H277850   3.435   2.819   2.784 -0.9222 -1.7455  0.0704
18787TIP3   OH277851   6.195   5.632   0.808 -0.0647 -0.0730 -0.3697
18787TIP3    H177852   6.162   5.548   0.777  1.2370 -0.3383 -1.1235
18787TIP3    H277853   6.260   5.657   0.743  0.5012  0.8836  0.5406
18788TIP3   OH277854   5.231   2.538   4.182  0.3719 -0.2468 -0.3058
18788TIP3    H177855   5.247   2.450   4.149  0.6206  0.2151 -1.4711
18788TIP3    H277856   5.137   2.552   4.169  0.4640 -0.0763 -0.8499
18789TIP3   OH277857   0.334   4.452  12.042  0.3983  0.0351 -0.5753
18789TIP3    H177858   0.361   4.510  12.113  1.6178 -0.3661 -0.6930
18789TIP3    H277859   0.408   4.451  11.982  0.5448 -1.8676 -0.4217
18790TIP3   OH277860   4.603   3.419  15.276 -0.1846  0.2668 -0.1136
18790TIP3    H177861   4.577   3.327  15.278  0.5351  0.0379 -0.7626
18790TIP3    H277862   4.554   3.459  15.348 -1.0957 -0.4608 -0.3043
18791TIP3   OH277863   0.941   2.746   1.745 -0.0254 -0.6588 -0.3857
18791TIP3    H177864   0.898   2.826   1.716  0.5075 -0.7636 -1.5242
18791TIP3    H277865   0.872   2.696   1.788 -0.4810  0.1866 -0.1152
18792TIP3   OH277866   6.252   0.295  16.450 -0.1092 -0.0979  0.0788
18792TIP3    H177867   6.272   0.323  16.361 -1.6563 -1.0657 -0.6133
18792TIP3    H277868   6.337   0.273  16.488  0.6776  1.3572 -0.7773
18793TIP3   OH277869   5.119   4.762   5.731 -0.3589  0.1614  0.3720
18793TIP3    H177870   5.138   4.746   5.639 -0.3710  2.9273 -0.1696
18793TIP3    H277871   5.024   4.750   5.738 -0.5333  1.0854 -0.2574
18794TIP3   OH277872   4.173   4.095   0.926  0.3121 -0.2307 -0.2600
18794TIP3    H177873   4.265   4.088   0.950  0.1330  0.4264  0.6727
18794TIP3    H277874   4.152   4.188   0.936 -0.5008 -0.4046 -0.2610
18795TIP3   OH277875   2.245   4.404  12.124 -0.5925 -0.4685  0.2309
18795TIP3    H177876   2.304   4.470  12.159 -0.0073  0.0966 -1.6947
18795TIP3    H277877   2.297   4.323  12.123  0.3352  0.0894 -1.7419
18796TIP3   OH277878   5.198   2.884  14.242 -0.5273  0.2548  0.3907
18796TIP3    H177879   5.282   2.848  14.270 -0.4179  0.6114  0.5257
18796TIP3    H277880   5.215   2.918  14.154 -0.5336  0.3256  0.4173
18797TIP3   OH277881   6.789   4.820   0.235 -0.3392  0.5130  0.3583
18797TIP3    H177882   6.694   4.817   0.239 -0.2819 -1.4275  3.0872
18797TIP3    H277883   6.810   4.817   0.142 -2.9129  0.8315 -0.2905
18798TIP3   OH277884   3.231   0.500   3.581 -0.6060  0.0298 -0.0162
18798TIP3    H177885   3.154   0.544   3.545  0.5713  0.8633 -1.5989
18798TIP3    H277886   3.257   0.438   3.513 -0.1876 -0.6420  0.7395
18799TIP3   OH277887   1.409   4.836  14.972  1.0070  0.5972 -0.2276
18799TIP3    H177888   1.413   4.785  15.053  1.4612 -0.2951 -0.7945
18799TIP3    H277889   1.491   4.814  14.926  1.0555  1.5864 -0.6384
18800TIP3   OH277890   3.587   5.311   0.863  0.0928  1.0272 -0.0349
18800TIP3    H177891   3.509   5.367   0.872  1.7950  3.3420  1.2223
18800TIP3    H277892   3.660   5.372   0.860  1.9283 -1.0875 -1.1707
18801TIP3   OH277893   2.085   1.394   5.610  0.2982 -0.0408  0.3457
18801TIP3    H177894   2.117   1.483   5.625 -1.5469  0.8125 -0.4525
18801TIP3    H277895   2.162   1.345   5.582  1.0718  1.6893 -0.6818
18802TIP3   OH277896   6.011   6.752   5.497 -0.3625 -0.2441  0.0302
18802TIP3    H177897   6.099   6.755   5.536  1.4135 -2.9890 -3.2970
18802TIP3    H277898   6.021   6.793   5.411 -2.4038 -0.5711 -0.4218
18803TIP3   OH277899   0.785   5.184   1.434  0.2142  0.1926 -0.2158
18803TIP3    H177900   0.741   5.268   1.444  0.9163  0.3286  2.3480
18803TIP3    H277901   0.862   5.203   1.381 -0.4025  0.8487 -0.8964
18804TIP3   OH277902   2.032   5.998  11.273  0.8354 -0.0837 -0.8442
18804TIP3    H177903   2.125   6.011  11.254  0.5776  1.5809 -1.1193
18804TIP3    H277904   2.016   5.906  11.253  1.9524  0.0980 -2.8746
18805TIP3   OH277905   4.175   1.485  14.341  0.2001  0.0600 -0.0101
18805TIP3    H177906   4.211   1.440  14.418 -1.2021  0.5134  0.9508
18805TIP3    H277907   4.245   1.481  14.276  2.1413  1.2350  1.8715
18806TIP3   OH277908   0.592   1.868   0.640 -0.7494 -0.2912 -0.4645
18806TIP3    H177909   0.584   1.786   0.591  0.4329 -0.8483  0.2264
18806TIP3    H277910   0.680   1.901   0.618 -1.5480  1.3010 -1.4609
18807TIP3   OH277911   2.490   1.517   5.035  0.2868  0.5294 -0.2346
18807TIP3    H177912   2.536   1.437   5.007 -1.8309 -0.8537  0.0114
18807TIP3    H277913   2.517   1.528   5.126  0.5135  0.0286 -0.2350
18808TIP3   OH277914   6.503   4.275  11.483  0.1451 -0.2261  0.2630
18808TIP3    H177915   6.465   4.305  11.565 -0.4178 -0.5034  0.1078
18808TIP3    H277916   6.555   4.349  11.452  1.3501 -0.5184  1.4632
18809TIP3   OH277917   5.622   4.878   4.345  0.2244 -0.4745  0.8613
18809TIP3    H177918   5.715   4.860   4.334  0.1823 -1.0370  1.4196
18809TIP3    H277919   5.593   4.906   4.257  0.8850 -0.4064  0.6595
18810TIP3   OH277920   5.070   3.875   5.386 -0.1587  0.2062 -0.4022
18810TIP3    H177921   5.089   3.942   5.320  0.5256 -0.3164 -0.7470
18810TIP3    H277922   5.045   3.798   5.336 -1.4295  0.3208  0.0035
18811TIP3   OH277923   4.265   6.646   1.020  0.0586  0.6284  0.4788
18811TIP3    H177924   4.208   6.620   0.948  0.7615 -0.7125  0.3679
18811TIP3    H277925   4.354   6.629   0.988  0.3668 -0.6924  1.8918
18812TIP3   OH277926   4.678   2.351  13.220  0.0072 -0.0154  0.1738
18812TIP3    H177927   4.667   2.257  13.235 -0.4770  0.2286  1.4869
18812TIP3    H277928   4.628   2.392  13.290 -2.1384  1.2729 -1.9727
18813TIP3   OH277929   4.172   6.478  13.491  0.2547 -0.4961 -0.1346
18813TIP3    H177930   4.160   6.473  13.396 -0.7650 -1.4235  0.0269
18813TIP3    H277931   4.145   6.568  13.514  1.6582  0.1402 -0.8518
18814TIP3   OH277932   4.139   0.191   0.489 -0.4880 -0.1396 -0.2399
18814TIP3    H177933   4.208   0.135   0.525 -0.6039 -0.9096 -1.2003
18814TIP3    H277934   4.097   0.229   0.567 -0.4259 -1.3954  0.4367
18815TIP3   OH277935   4.224   0.685   5.146  0.3893 -0.8629  0.4054
18815TIP3    H177936   4.304   0.639   5.120  1.1823  0.1297  1.0255
18815TIP3    H277937   4.222   0.678   5.241 -2.1084 -3.8279  0.2799
18816TIP3   OH277938   1.553   0.243   0.257  0.4456 -0.4438  0.0998
18816TIP3    H177939   1.481   0.306   0.262 -0.2172 -1.1198 -0.5474
18816TIP3    H277940   1.623   0.282   0.310 -0.1520  0.5446  0.1949
18817TIP3   OH277941   3.632   2.908  11.470  0.6283 -0.8288 -0.2267
18817TIP3    H177942   3.566   2.977  11.460  1.5750  0.2408  0.6704
18817TIP3    H277943   3.615   2.869  11.555  0.5147 -1.2548 -0.4408
18818TIP3   OH277944   1.645   1.515  16.565 -0.1231  0.4958  0.3546
18818TIP3    H177945   1.590   1.507  16.643 -0.9699  0.3935 -0.2426
18818TIP3    H277946   1.733   1.533  16.600  0.0873 -2.1551  1.4434
18819TIP3   OH277947   6.657   3.492   4.996 -0.2113  0.1621  0.5253
18819TIP3    H177948   6.658   3.409   5.045  2.5098  0.3670  0.9631
18819TIP3    H277949   6.703   3.553   5.053 -0.9067  1.6185 -0.4288
18820TIP3   OH277950   6.777   3.640  10.508  0.0084 -0.7211 -0.1760
18820TIP3    H177951   6.746   3.641  10.599  1.8452  0.4144  0.5168
18820TIP3    H277952   6.741   3.560  10.471  1.1452 -2.5484  2.3130
18821TIP3   OH277953   3.056   5.679  12.280 -0.4315 -0.0079  0.0737
18821TIP3    H177954   2.993   5.613  12.251 -0.7771  0.9863 -1.5290
18821TIP3    H277955   3.059   5.743  12.209  2.3718  0.0028  0.0973
18822TIP3   OH277956   5.729   1.079  13.046 -0.3466 -0.1858 -0.2700
18822TIP3    H177957   5.765   1.161  13.011  0.2676 -0.2867  0.1259
18822TIP3    H277958   5.801   1.040  13.095 -0.3590 -1.4156 -1.1915
18823TIP3   OH277959   2.525   2.099  12.947  0.4887  0.3122  0.0873
18823TIP3    H177960   2.565   2.041  13.012 -0.3437 -1.7196 -1.1114
18823TIP3    H277961   2.588   2.171  12.937  1.7829 -0.5980  1.3234
18824TIP3   OH277962   5.907   3.028   0.731  0.3497  0.1741 -0.1403
18824TIP3    H177963   5.886   3.113   0.692 -1.7765 -0.6249 -0.8637
18824TIP3    H277964   5.942   3.050   0.817  0.5797  1.8041 -0.6095
18825TIP3   OH277965   1.410   3.635  13.383  0.6851 -0.0036  0.1833
18825TIP3    H177966   1.347   3.595  13.323  1.0574  0.3249 -0.4395
18825TIP3    H277967   1.358   3.694  13.437  0.5107  0.5909 -0.6105
18826TIP3   OH277968   2.719   1.512   3.227  0.0937  0.1684 -0.0326
18826TIP3    H177969   2.771   1.431   3.233 -2.5223 -1.6020  0.2740
18826TIP3    H277970   2.777   1.574   3.183  1.2212 -2.7734 -3.0847
18827TIP3   OH277971   0.305   4.734  11.232 -0.1398  0.7274 -0.3466
18827TIP3    H177972   0.351   4.689  11.161 -1.8268 -0.7984 -0.5411
18827TIP3    H277973   0.319   4.827  11.215 -1.2355  0.4622 -3.2446
18828TIP3   OH277974   4.112   5.486   2.500 -0.5562  0.4675  0.0692
18828TIP3    H177975   4.090   5.579   2.509  0.4654  0.6266  1.1884
18828TIP3    H277976   4.122   5.472   2.406 -1.0358  1.4158 -0.1325
18829TIP3   OH277977   0.951   4.422   0.734 -0.4803  0.4358  0.2284
18829TIP3    H177978   1.017   4.353   0.746 -0.0442  1.0664  1.7540
18829TIP3    H277979   0.874   4.376   0.700  0.7444 -0.2951 -1.7518
18830TIP3   OH277980   3.827   6.651  15.696 -0.1972 -0.0175 -0.5514
18830TIP3    H177981   3.761   6.675  15.632 -0.7926  0.8623  0.3531
18830TIP3    H277982   3.816   6.557  15.708  0.5562 -0.3871 -2.3886
18831TIP3   OH277983   4.973   4.107  16.482 -0.2462  0.0398  0.2038
18831TIP3    H177984   4.930   4.188  16.454  0.6160  0.4825  0.1346
18831TIP3    H277985   4.970   4.110  16.577 -1.5918 -0.6070  0.2062
18832TIP3   OH277986   0.453   6.750  13.290 -0.1971  0.1027 -0.3135
18832TIP3    H177987   0.382   6.697  13.326  0.7314 -0.6539  0.4415
18832TIP3    H277988   0.434   6.839  13.321  0.0633 -0.3731  1.2631
18833TIP3   OH277989   6.506   0.552   0.525  0.2379  0.0089 -0.1745
18833TIP3    H177990   6.523   0.579   0.615  0.6978  1.4639 -0.6833
18833TIP3    H277991   6.592   0.532   0.489  0.1334  0.2325 -0.5495
18834TIP3   OH277992   3.472   1.976   3.632  0.0644  0.0060 -0.3248
18834TIP3    H177993   3.561   1.976   3.669  0.0655  1.1539 -0.2916
18834TIP3    H277994   3.466   1.894   3.583  1.5773  0.4682 -1.3516
18835TIP3   OH277995   5.597   6.031  14.225 -0.2913 -0.3015 -0.0079
18835TIP3    H177996   5.511   6.054  14.188  0.9794  3.8449 -0.9441
18835TIP3    H277997   5.658   6.044  14.153  1.2708 -2.8050  0.7435
18836TIP3   OH277998   3.949   1.107   0.182  0.2740  0.3591 -0.2132
18836TIP3    H177999   3.999   1.171   0.131 -0.3769  1.8152  0.8989
18836TIP3    H278000   3.865   1.150   0.199 -0.5134 -1.1440 -0.1413
18837TIP3   OH278001   3.913   1.988  14.577  0.1777  0.6211 -0.2861
18837TIP3    H178002   3.885   1.900  14.602 -0.0381  0.1699 -1.9992
18837TIP3    H278003   3.944   2.027  14.659 -0.7880 -0.6266  0.7185
18838TIP3   OH278004   0.636   6.172  11.614  0.0959  0.1469 -0.4929
18838TIP3    H178005   0.700   6.216  11.670  0.9573 -0.9196 -0.5859
18838TIP3    H278006   0.587   6.114  11.673 -0.0805  0.2069 -0.5811
18839TIP3   OH278007   1.722   3.344  14.330  0.0375 -0.0592 -0.7443
18839TIP3    H178008   1.785   3.369  14.397  1.1468  0.6382 -2.0064
18839TIP3    H278009   1.692   3.257  14.357  0.5104  0.1582  0.5942
18840TIP3   OH278010   0.399   5.969  17.169 -0.4440 -0.0787  0.9017
18840TIP3    H178011   0.308   5.968  17.196  0.0036 -0.9182  2.5352
18840TIP3    H278012   0.413   5.884  17.127 -0.3918  0.0212  0.7135
18841TIP3   OH278013   1.246   1.388   1.385  0.0778  0.0037  0.2410
18841TIP3    H178014   1.260   1.423   1.473  2.3771 -1.7438  0.6787
18841TIP3    H278015   1.177   1.322   1.397  2.3310 -2.2951  1.4546
18842TIP3   OH278016   3.899   6.156  16.469 -0.1236 -0.2241  0.1236
18842TIP3    H178017   3.910   6.251  16.475  0.2620 -0.2789  0.2570
18842TIP3    H278018   3.804   6.144  16.464 -0.1463  0.3331 -2.6090
18843TIP3   OH278019   5.254   6.141   0.955  0.6568  0.5738  0.2057
18843TIP3    H178020   5.315   6.215   0.949  1.6937 -0.1720  1.1057
18843TIP3    H278021   5.176   6.170   0.908  1.9887  1.2836 -1.6959
18844TIP3   OH278022   1.724   5.611  13.035  0.1754 -0.7492  0.1402
18844TIP3    H178023   1.749   5.623  12.944  1.2530  2.8065  0.7582
18844TIP3    H278024   1.808   5.598  13.081 -0.1420 -0.3148  0.8587
18845TIP3   OH278025   0.925   1.011   0.405 -0.1720 -0.1606  0.5040
18845TIP3    H178026   0.975   0.946   0.355 -0.0033 -0.5155  1.1355
18845TIP3    H278027   0.857   1.040   0.344  1.5731  1.2929 -0.8379
18846TIP3   OH278028   2.340   3.627   3.459  0.1100 -0.6344  0.3062
18846TIP3    H178029   2.403   3.648   3.390  0.9737 -1.3673  0.8580
18846TIP3    H278030   2.337   3.705   3.514  1.7420 -1.1564  1.1746
18847TIP3   OH278031   5.298   4.252  15.691  0.1946 -0.3961 -0.0096
18847TIP3    H178032   5.387   4.289  15.696  0.2888 -0.6470  0.1921
18847TIP3    H278033   5.302   4.190  15.619  0.2757 -0.6511  0.2115
18848TIP3   OH278034   3.293   5.169   3.254 -0.0402  0.7429 -0.2202
18848TIP3    H178035   3.220   5.140   3.200 -0.5859 -0.5268  1.1309
18848TIP3    H278036   3.352   5.094   3.258  0.7107  1.3236 -0.2500
18849TIP3   OH278037   1.974   0.574   0.151 -0.0030 -0.1188  0.2599
18849TIP3    H178038   1.958   0.643   0.215  1.5698  0.7487 -0.2396
18849TIP3    H278039   2.049   0.605   0.100  0.2625 -1.8608 -0.4790
18850TIP3   OH278040   4.013   2.036   2.312 -0.3421 -0.6570 -0.4297
18850TIP3    H178041   3.957   1.971   2.270  2.1652 -3.2732 -0.0549
18850TIP3    H278042   4.097   2.028   2.267 -0.2311  3.5001 -1.3938
18851TIP3   OH278043   1.095   5.774  12.704  0.2510 -0.3956  0.1764
18851TIP3    H178044   1.166   5.718  12.736 -0.0674 -1.5245 -0.9827
18851TIP3    H278045   1.016   5.739  12.747 -0.0358 -1.2811 -1.0026
18852TIP3   OH278046   5.630   1.899  17.081  0.3675  0.0625  0.2339
18852TIP3    H178047   5.608   1.864  16.995  0.0661  3.2687 -1.1202
18852TIP3    H278048   5.721   1.930  17.072  1.1107 -1.4566  1.8009
18853TIP3   OH278049   3.174   5.643   4.268 -0.4047 -0.7051 -0.0312
18853TIP3    H178050   3.255   5.651   4.218 -2.5336  2.6319 -3.4407
18853TIP3    H278051   3.131   5.565   4.232  0.0491 -0.9008 -0.1589
18854TIP3   OH278052   4.656   5.201   0.856 -0.6737  0.0521  0.9209
18854TIP3    H178053   4.678   5.132   0.918 -0.3013 -0.3391  0.3626
18854TIP3    H278054   4.573   5.236   0.887 -0.1606  0.3271  2.0366
18855TIP3   OH278055   1.126   2.165   5.643  0.5075 -0.9743 -0.5202
18855TIP3    H178056   1.032   2.175   5.662  0.3382 -0.6535 -1.4994
18855TIP3    H278057   1.170   2.205   5.718 -0.1439  3.2759 -2.1684
18856TIP3   OH278058   1.883   5.774  11.323 -0.4740  0.0405  0.1049
18856TIP3    H178059   1.854   5.771  11.414 -0.1838 -0.8545  0.1799
18856TIP3    H278060   1.850   5.692  11.285 -0.0282  0.0995 -0.4188
18857TIP3   OH278061   0.027   2.266   2.806 -0.0784  0.0444 -0.7707
18857TIP3    H178062   0.054   2.343   2.856 -0.5225  0.0931 -0.5989
18857TIP3    H278063   0.082   2.195   2.839 -0.0672  0.1673 -0.5186
18858TIP3   OH278064   1.870   1.757   5.633 -0.3633 -0.5414  0.1567
18858TIP3    H178065   1.933   1.709   5.686 -0.9484 -0.0207  1.3661
18858TIP3    H278066   1.793   1.766   5.689 -0.3744  1.5497 -0.1011
18859TIP3   OH278067   5.717   2.183   5.021 -0.0442  0.0568 -0.0879
18859TIP3    H178068   5.722   2.169   4.927 -2.0184 -1.9675  0.0150
18859TIP3    H278069   5.808   2.187   5.050  0.6187 -1.3073 -1.8276
18860TIP3   OH278070   5.404   1.823  13.836 -0.2883  0.0304  0.4529
18860TIP3    H178071   5.312   1.812  13.812 -0.0180 -0.7774 -0.2650
18860TIP3    H278072   5.401   1.866  13.922 -1.3632 -1.0245  0.9847
18861TIP3   OH278073   5.994   1.502  12.788 -0.5650  0.4795 -0.1127
18861TIP3    H178074   5.980   1.441  12.716  1.4255 -2.2919  1.6362
18861TIP3    H278075   6.078   1.544  12.769 -1.3486  1.8502 -0.6978
18862TIP3   OH278076   6.645   6.046  17.144 -0.0181  0.4970  0.4474
18862TIP3    H178077   6.630   6.009  17.057 -2.3909  1.8471  0.1859
18862TIP3    H278078   6.721   5.998  17.178  0.9410 -0.1032 -2.3062
18863TIP3   OH278079   6.480   6.018  12.032  0.0038  0.2047 -0.0305
18863TIP3    H178080   6.488   5.992  12.124 -0.4265  1.2883  0.3228
18863TIP3    H278081   6.561   5.986  11.992  0.0602 -0.5512  0.6522
18864TIP3   OH278082   4.439   1.776  10.356  0.1721  0.0690  0.4529
18864TIP3    H178083   4.345   1.794  10.354  0.1373 -0.0150  1.1180
18864TIP3    H278084   4.450   1.713  10.427  0.9422  1.3562  1.5319
18865TIP3   OH278085   0.989   1.927   1.672 -0.5852  0.0890 -0.1696
18865TIP3    H178086   1.054   1.926   1.601  1.0025 -2.3917  1.1787
18865TIP3    H278087   1.021   1.994   1.732 -0.0798 -0.1018 -0.2171
18866TIP3   OH278088   3.548   1.341   1.049  0.7038  0.2472 -0.0333
18866TIP3    H178089   3.574   1.282   1.120  0.7060  0.7191  0.3634
18866TIP3    H278090   3.453   1.329   1.042  0.9895 -1.5154 -1.5201
18867TIP3   OH278091   6.227   3.435  11.891  0.0872 -0.0734 -0.3638
18867TIP3    H178092   6.217   3.484  11.973  0.6060 -0.5236 -0.0322
18867TIP3    H278093   6.159   3.367  11.895 -0.2843  0.2728 -0.5879
18868TIP3   OH278094   4.019   2.135   5.149  0.2396 -0.4492 -0.0312
18868TIP3    H178095   4.070   2.104   5.224 -1.7503 -1.7077  0.9004
18868TIP3    H278096   3.966   2.207   5.184 -1.3985 -1.6576  0.0992
18869TIP3   OH278097   1.970   1.795  15.565  0.6012  0.3164  0.6250
18869TIP3    H178098   1.950   1.855  15.637  2.7629  1.4732  0.3525
18869TIP3    H278099   2.002   1.716  15.609  0.2264  0.3391  0.9514
18870TIP3   OH278100   3.132   2.624  14.519 -0.1512 -0.3436 -0.4401
18870TIP3    H178101   3.121   2.641  14.613 -1.3911 -2.8183 -0.0427
18870TIP3    H278102   3.048   2.651  14.481 -0.7892 -2.0168 -0.3216
18871TIP3   OH278103   5.701   2.081  12.634 -0.1911  0.2203  0.0359
18871TIP3    H178104   5.734   2.070  12.723  0.4889  0.9808 -0.1027
18871TIP3    H278105   5.732   2.003  12.588  1.7641  1.0448 -0.1614
18872TIP3   OH278106   1.643   3.509  14.716 -0.2438  0.4467  0.3195
18872TIP3    H178107   1.623   3.569  14.788 -0.5492  1.6285 -0.7049
18872TIP3    H278108   1.643   3.565  14.638 -2.3658 -1.1650 -0.9513
18873TIP3   OH278109   0.282   5.665  15.895  0.2221  0.2834  0.1652
18873TIP3    H178110   0.194   5.628  15.904  1.2041 -2.2663  0.2218
18873TIP3    H278111   0.295   5.675  15.800  0.4051 -0.8890  0.0469
18874TIP3   OH278112   2.862   6.340  14.687  0.0934  0.0536  0.2839
18874TIP3    H178113   2.848   6.341  14.593 -0.5100 -1.5053  0.3196
18874TIP3    H278114   2.775   6.332  14.725  0.3277  0.6723  0.9876
18875TIP3   OH278115   5.694   4.911  16.802  0.0913  0.1605 -0.2692
18875TIP3    H178116   5.692   4.965  16.882  0.2685 -0.2118 -0.0127
18875TIP3    H278117   5.744   4.833  16.827  2.5081  1.2122 -1.4574
18876TIP3   OH278118   2.790   6.197   6.807 -0.5221  0.2818 -0.8724
18876TIP3    H178119   2.730   6.264   6.839 -2.0105 -1.0767 -0.6973
18876TIP3    H278120   2.735   6.120   6.795  1.3251 -1.2246 -0.0658
18877TIP3   OH278121   1.743   5.292  14.961  0.0765  0.5564 -0.2999
18877TIP3    H178122   1.814   5.356  14.969 -0.1811  0.7626  0.3676
18877TIP3    H278123   1.788   5.209  14.948  0.4350  0.7390 -0.2458
18878TIP3   OH278124   1.232   3.967   2.281  0.3250 -0.0495  0.1804
18878TIP3    H178125   1.172   3.932   2.347  0.4844 -1.4357 -0.3614
18878TIP3    H278126   1.240   4.060   2.302 -1.3659 -0.0055  0.7495
18879TIP3   OH278127   4.036   4.598  13.038 -1.0346 -0.1092  0.2703
18879TIP3    H178128   3.985   4.658  12.984  0.1936  0.5829 -0.1441
18879TIP3    H278129   4.081   4.653  13.101 -1.2845 -0.7764  1.0538
18880TIP3   OH278130   6.747   3.504  17.123 -0.0459  0.3248  0.6067
18880TIP3    H178131   6.684   3.432  17.131 -0.4475  0.7261  1.1801
18880TIP3    H278132   6.712   3.559  17.053  0.5601 -0.3262 -0.2188
18881TIP3   OH278133   5.541   2.918   2.071  0.3918 -0.5355  0.4252
18881TIP3    H178134   5.551   2.971   1.992  0.0002 -1.7416 -0.4661
18881TIP3    H278135   5.628   2.881   2.087  0.6341  0.2666  0.9713
18882TIP3   OH278136   6.319   0.270  16.785  0.1042  0.0668 -0.1870
18882TIP3    H178137   6.397   0.307  16.826 -0.8011  1.0926  0.6760
18882TIP3    H278138   6.283   0.212  16.852 -0.4084  0.3725 -0.1940
18883TIP3   OH278139   2.177   5.471   0.472  0.5242 -0.3396  0.2419
18883TIP3    H178140   2.121   5.421   0.531 -1.9254  0.1197 -1.5293
18883TIP3    H278141   2.142   5.559   0.474  0.0407 -0.4077 -2.1608
18884TIP3   OH278142   2.124   6.380  15.675 -0.4216 -0.2031 -0.0836
18884TIP3    H178143   2.198   6.430  15.709 -0.3191  1.3291 -2.3341
18884TIP3    H278144   2.160   6.295  15.653  0.3028 -0.0001  0.2897
18885TIP3   OH278145   0.904   4.817  14.015  0.2205  0.2755  0.4941
18885TIP3    H178146   0.969   4.806  14.085 -0.7180  0.2661  1.3849
18885TIP3    H278147   0.948   4.785  13.936  1.8054  1.5978  0.7939
18886TIP3   OH278148   0.551   1.949   4.463 -0.0889  0.4685 -0.4905
18886TIP3    H178149   0.503   1.942   4.546 -0.2610 -0.1329 -0.6331
18886TIP3    H278150   0.498   1.899   4.401  0.5469  0.0768 -0.7290
18887TIP3   OH278151   0.122   6.080   3.013  0.2769  0.3670  0.1821
18887TIP3    H178152   0.189   6.052   3.075  0.6688  2.2454  0.6742
18887TIP3    H278153   0.106   6.172   3.034 -0.0597  0.8971 -2.0574
18888TIP3   OH278154   1.679   0.779  16.639  0.3716 -0.7864 -0.6647
18888TIP3    H178155   1.680   0.704  16.698  0.2892 -0.3162 -0.0458
18888TIP3    H278156   1.767   0.815  16.646 -0.1834  0.4209  0.7181
18889TIP3   OH278157   2.517   1.036   6.197 -0.2973  0.5256 -0.1419
18889TIP3    H178158   2.595   0.981   6.203 -1.0966 -0.8967 -1.9648
18889TIP3    H278159   2.467   1.013   6.275  0.9842  1.3274  0.9607
18890TIP3   OH278160   6.538   0.839   5.679 -0.0491 -0.4568 -0.4698
18890TIP3    H178161   6.582   0.763   5.717  2.1676  0.4474 -1.0640
18890TIP3    H278162   6.580   0.914   5.720 -0.4738  0.4851 -1.6930
18891TIP3   OH278163   5.759   3.593  15.536  0.1845 -0.3464  0.0950
18891TIP3    H178164   5.851   3.596  15.509  0.1266 -2.1178 -0.4557
18891TIP3    H278165   5.713   3.643  15.469  0.4926 -1.5278 -1.0460
18892TIP3   OH278166   2.551   3.980  11.139 -0.1529 -0.1981 -0.4671
18892TIP3    H178167   2.506   4.052  11.094 -0.0539 -0.1113 -0.4271
18892TIP3    H278168   2.545   4.003  11.232 -0.9490 -0.7111 -0.3767
18893TIP3   OH278169   0.244   4.342  16.803  0.1071  0.7445 -0.0618
18893TIP3    H178170   0.162   4.294  16.796  1.4171 -1.5757 -0.7145
18893TIP3    H278171   0.247   4.398  16.725  0.0955 -0.7920 -1.1957
18894TIP3   OH278172   6.580   3.011   1.539 -0.0781 -0.0852 -0.0709
18894TIP3    H178173   6.548   3.078   1.599 -0.4129 -0.2009 -0.1185
18894TIP3    H278174   6.634   3.059   1.476 -0.2291  0.1247 -0.0404
18895TIP3   OH278175   4.612   5.550  13.735  0.0950  0.1114  0.2291
18895TIP3    H178176   4.703   5.524  13.754  0.2053 -0.0976 -0.5444
18895TIP3    H278177   4.610   5.644  13.754  0.2906 -0.0089  0.8838
18896TIP3   OH278178   3.665   4.318  11.275 -0.0173  0.0377 -0.1473
18896TIP3    H178179   3.636   4.368  11.352  0.1527  0.0073 -0.0626
18896TIP3    H278180   3.680   4.384  11.208 -1.7377 -0.0623 -0.6717
18897TIP3   OH278181   3.275   6.244  15.144 -0.2228  0.3075  0.0016
18897TIP3    H178182   3.300   6.184  15.074 -0.2155 -0.3685  0.5705
18897TIP3    H278183   3.254   6.326  15.100  2.4562  0.7721 -0.5894
18898TIP3   OH278184   4.910   2.445   3.517  0.4331 -0.4604  0.2847
18898TIP3    H178185   4.953   2.359   3.517  1.1386 -0.1075  0.3422
18898TIP3    H278186   4.918   2.476   3.607 -0.2639 -0.5424  0.3846
18899TIP3   OH278187   4.581   3.318  12.726  0.1621 -0.3012  0.0473
18899TIP3    H178188   4.562   3.266  12.648  1.0011 -1.4586  0.5903
18899TIP3    H278189   4.590   3.408  12.693 -1.8723 -0.3768 -0.8164
18900TIP3   OH278190   0.131   5.131   5.317  0.4505  0.3499  0.6436
18900TIP3    H178191   0.156   5.198   5.253  1.0479  0.5029  1.0371
18900TIP3    H278192   0.155   5.049   5.275 -1.4063  0.2628 -0.3737
18901TIP3   OH278193   1.920   1.063   3.392  0.9334  0.0899  0.2069
18901TIP3    H178194   1.965   1.035   3.471 -0.0739  0.2001  0.8448
18901TIP3    H278195   1.966   1.142   3.363  0.0568  1.2735  1.8867
18902TIP3   OH278196   4.334   1.220   2.704 -0.3384 -0.2957  0.4196
18902TIP3    H178197   4.417   1.179   2.680 -0.1644  0.0314  0.4462
18902TIP3    H278198   4.278   1.148   2.732 -0.0582 -0.5186  0.4070
18903TIP3   OH278199   2.160   1.499   1.250  0.3799 -0.3092 -0.1613
18903TIP3    H178200   2.219   1.441   1.298  1.0604  0.9036  0.5180
18903TIP3    H278201   2.112   1.546   1.318 -1.9289 -1.7544 -0.6879
18904TIP3   OH278202   3.525   1.450   5.109  0.4211 -0.7847  0.1253
18904TIP3    H178203   3.550   1.396   5.034  1.7726  1.1771 -0.9260
18904TIP3    H278204   3.463   1.396   5.158  0.8964 -2.8381 -1.4094
18905TIP3   OH278205   1.675   0.167  14.004 -0.0156 -0.2043  0.6716
18905TIP3    H178206   1.726   0.227  14.059  0.4457 -0.5097  0.5815
18905TIP3    H278207   1.584   0.190  14.023  0.1477  0.5599  0.6021
18906TIP3   OH278208   5.297   6.215   3.487 -0.5284  0.2340  0.5700
18906TIP3    H178209   5.278   6.210   3.581 -1.9187  1.2604  0.3829
18906TIP3    H278210   5.220   6.260   3.450  1.0544  2.0695 -0.6983
18907TIP3   OH278211   3.675   3.509  17.099  0.3462  0.0369  0.0429
18907TIP3    H178212   3.698   3.513  17.192  1.5075  1.7652 -0.2729
18907TIP3    H278213   3.663   3.600  17.073  0.3681 -0.3919 -1.5710
18908TIP3   OH278214   4.502   2.104   3.507  0.5333  0.9063  0.3258
18908TIP3    H178215   4.466   2.152   3.582  1.6134  2.3549 -0.0339
18908TIP3    H278216   4.593   2.133   3.502  0.2882  1.4297 -1.9887
18909TIP3   OH278217   5.670   3.506  16.402 -0.3539 -0.1864  0.1693
18909TIP3    H178218   5.727   3.549  16.338 -0.7598  0.0022 -0.0675
18909TIP3    H278219   5.629   3.577  16.450 -0.5418 -0.3181  0.2060
18910TIP3   OH278220   4.839   0.002   4.793 -0.2171 -0.4288  0.2728
18910TIP3    H178221   4.853   0.096   4.806  1.4718 -0.2934 -1.8639
18910TIP3    H278222   4.755  -0.004   4.747 -0.0067  0.1099 -0.1946
18911TIP3   OH278223   4.316   1.931   3.858  0.3663  0.0964  0.2415
18911TIP3    H178224   4.346   2.012   3.817 -0.1115  0.5126  0.7048
18911TIP3    H278225   4.267   1.960   3.935 -0.0848 -0.6181  0.2282
18912TIP3   OH278226   0.240   6.788  12.460  0.6063 -0.0151  0.5302
18912TIP3    H178227   0.323   6.817  12.498  0.6327  1.3013 -0.4681
18912TIP3    H278228   0.176   6.801  12.530  0.4236  3.5484 -0.0788
18913TIP3   OH278229   5.287   2.129   4.908  0.0265  0.0384 -0.4959
18913TIP3    H178230   5.347   2.162   4.841 -0.2089  1.2901 -0.1128
18913TIP3    H278231   5.293   2.193   4.979 -3.0390  1.1816 -1.1471
18914TIP3   OH278232   3.817   1.114  14.561  0.1123  0.1068  0.0811
18914TIP3    H178233   3.887   1.173  14.588 -1.0022  1.5126  0.0039
18914TIP3    H278234   3.858   1.055  14.497  0.9020  1.7797 -1.0090
18915TIP3   OH278235   6.313   3.494   6.200  0.0065  0.1899 -0.2181
18915TIP3    H178236   6.279   3.405   6.191  0.9831 -0.3748  1.2095
18915TIP3    H278237   6.354   3.494   6.287  1.9546  1.3718 -1.0771
18916TIP3   OH278238   2.064   2.371  15.743  0.1650  0.1243  0.1603
18916TIP3    H178239   2.047   2.308  15.813 -1.6595 -0.3940 -0.6989
18916TIP3    H278240   2.144   2.339  15.701 -0.5749 -1.4946 -0.0832
18917TIP3   OH278241   1.290   5.351  13.959 -0.2751 -0.7710  0.0605
18917TIP3    H178242   1.333   5.267  13.971 -1.1797 -1.0146  2.0150
18917TIP3    H278243   1.227   5.356  14.031 -0.4299  1.4636 -0.1593
18918TIP3   OH278244   1.788   3.330   4.945 -0.2973 -0.1654  0.1374
18918TIP3    H178245   1.762   3.377   4.866 -0.0562  0.2876  0.3227
18918TIP3    H278246   1.745   3.377   5.016 -1.7777 -1.4918  0.1659
18919TIP3   OH278247   3.722   4.022  15.665  0.2351  0.2893  0.2352
18919TIP3    H178248   3.762   3.938  15.687 -2.0242 -0.4425  1.9380
18919TIP3    H278249   3.636   4.019  15.707 -0.0865  3.2977 -0.0194
18920TIP3   OH278250   4.401   1.953  12.109 -0.7197 -0.3913 -0.3869
18920TIP3    H178251   4.322   2.008  12.109 -0.9176 -0.6750  0.3989
18920TIP3    H278252   4.456   1.991  12.177 -0.8545 -1.1543  0.1595
18921TIP3   OH278253   1.901   2.202  14.766 -0.3763  0.1741  0.0165
18921TIP3    H178254   1.820   2.226  14.722 -0.4807 -2.3949 -1.3680
18921TIP3    H278255   1.960   2.175  14.696  1.9594  2.3805  0.9186
18922TIP3   OH278256   4.268   1.773   2.191  0.1451  0.1013 -0.1251
18922TIP3    H178257   4.242   1.731   2.274 -1.6159  0.0712 -0.6491
18922TIP3    H278258   4.241   1.864   2.201  1.5750  0.5319 -0.0018
18923TIP3   OH278259   1.528   0.657  13.645 -0.2744  0.1075  0.2169
18923TIP3    H178260   1.517   0.708  13.725 -1.2836  2.4685 -1.3168
18923TIP3    H278261   1.513   0.566  13.672  1.9815  0.4618  3.1470
18924TIP3   OH278262   4.153   1.074   6.305  0.2286 -0.4040  0.0586
18924TIP3    H178263   4.230   1.128   6.324  1.8534 -3.1087  1.7831
18924TIP3    H278264   4.079   1.126   6.335  1.4436  1.7959 -0.5481
18925TIP3   OH278265   1.722   3.464  12.688  0.1864 -0.0511  0.4329
18925TIP3    H178266   1.733   3.449  12.594  1.4819 -0.8432  0.6975
18925TIP3    H278267   1.630   3.492  12.696  0.0873  0.1617 -1.0705
18926TIP3   OH278268   3.735   3.462   6.356  0.7018  0.1477 -0.2154
18926TIP3    H178269   3.696   3.395   6.300  1.1689 -1.0482  0.8368
18926TIP3    H278270   3.807   3.417   6.401  0.6498  1.1830  0.9572
18927TIP3   OH278271   5.583   4.865   1.149 -0.3304  0.7134  0.2520
18927TIP3    H178272   5.523   4.806   1.103 -0.0837  1.0118 -0.4676
18927TIP3    H278273   5.646   4.807   1.191 -0.5285  0.4383  0.1725
18928TIP3   OH278274   4.453   5.332   3.817 -0.1776 -0.2352  0.1065
18928TIP3    H178275   4.433   5.275   3.743  0.6665  1.6456 -1.7019
18928TIP3    H278276   4.494   5.409   3.777 -0.6267  1.3411  2.4570
18929TIP3   OH278277   4.922   3.341   2.150 -0.0853  0.5152  0.2772
18929TIP3    H178278   4.937   3.288   2.229  1.3552 -2.0392 -1.5360
18929TIP3    H278279   4.874   3.283   2.091 -0.8941  2.2532 -0.8531
18930TIP3   OH278280   1.386   6.801   4.329  0.1733  0.3267 -0.3049
18930TIP3    H178281   1.316   6.867   4.329  0.5622  0.7431 -0.2612
18930TIP3    H278282   1.361   6.740   4.260  0.3113  1.0595 -1.0215
18931TIP3   OH278283   3.154   1.852   3.539  0.1809  0.0448  0.0280
18931TIP3    H178284   3.221   1.795   3.501  1.2382  1.5071 -0.4138
18931TIP3    H278285   3.202   1.930   3.567 -1.1755  0.6453  0.8024
18932TIP3   OH278286   6.524   2.504  14.418 -0.2109  0.5258 -0.6443
18932TIP3    H178287   6.506   2.481  14.509 -0.7028  0.2870 -0.8005
18932TIP3    H278288   6.474   2.441  14.366  0.5331  0.2784 -1.0883
18933TIP3   OH278289   4.515   6.094  11.327  0.0774 -0.1632  0.2891
18933TIP3    H178290   4.455   6.142  11.270  1.9390  1.9123 -0.0643
18933TIP3    H278291   4.513   6.141  11.410 -0.8051 -1.7346  1.2135
18934TIP3   OH278292   5.014   5.453  13.170 -0.4594 -0.8583 -0.1361
18934TIP3    H178293   4.990   5.545  13.173  2.5153  0.0713  2.7778
18934TIP3    H278294   4.931   5.406  13.172 -2.0964  1.6643 -2.2949
18935TIP3   OH278295   1.377   4.401  13.024 -0.0317  0.1511 -0.2707
18935TIP3    H178296   1.304   4.460  13.005  0.9773  0.9331 -1.9679
18935TIP3    H278297   1.372   4.334  12.956  2.1969  1.5977 -2.0351
18936TIP3   OH278298   4.131   2.330  15.331  0.1944 -0.8889  0.1653
18936TIP3    H178299   4.124   2.407  15.275 -0.0614 -0.5978  0.5990
18936TIP3    H278300   4.118   2.363  15.420 -1.6624 -1.6905  0.2279
18937TIP3   OH278301   2.832   4.328   1.607  0.0936  0.1898  0.5055
18937TIP3    H178302   2.805   4.415   1.637 -1.9025 -0.2272  0.1029
18937TIP3    H278303   2.927   4.333   1.599  0.2357  1.6899  2.4716
18938TIP3   OH278304   6.641   2.367   0.517  0.7758  0.2876 -0.2158
18938TIP3    H178305   6.724   2.320   0.513 -0.1281 -1.3017 -1.0222
18938TIP3    H278306   6.666   2.459   0.528  2.5857 -0.4058  2.5981
18939TIP3   OH278307   2.830   1.279   4.771  0.0192 -0.0628 -0.2238
18939TIP3    H178308   2.872   1.364   4.762  0.4427 -0.1384  0.9278
18939TIP3    H278309   2.903   1.216   4.764  0.2420 -0.1724  2.3652
18940TIP3   OH278310   5.536   1.568   4.653 -0.0967  0.1542  0.1157
18940TIP3    H178311   5.496   1.567   4.740  0.8038  3.2603  0.7091
18940TIP3    H278312   5.461   1.561   4.593 -1.0057  0.5270  1.1668
18941TIP3   OH278313   2.607   6.182   6.515  0.4253  0.1388 -0.0951
18941TIP3    H178314   2.548   6.245   6.556 -0.6262 -1.5064  1.0259
18941TIP3    H278315   2.553   6.105   6.498  1.0179  0.3365 -3.8028
18942TIP3   OH278316   6.448   1.173   3.149 -0.0893 -0.1891 -0.3705
18942TIP3    H178317   6.510   1.118   3.100  2.2682  2.9669 -1.3345
18942TIP3    H278318   6.368   1.171   3.097  0.7280 -0.8501 -1.6692
18943TIP3   OH278319   1.218   4.709   1.761 -0.2979  0.1155 -0.0834
18943TIP3    H178320   1.262   4.764   1.825 -0.0063 -0.2271  0.0187
18943TIP3    H278321   1.158   4.656   1.813  0.4950 -0.7149  0.0244
18944TIP3   OH278322   0.073   6.536  12.103  0.2033  0.4004  0.2304
18944TIP3    H178323   0.088   6.609  12.163 -0.2525  0.3913  0.3658
18944TIP3    H278324   0.117   6.462  12.143  0.3752  0.5229  0.2677
18945TIP3   OH278325   6.748   2.922  12.332 -0.4554 -0.6173 -0.2366
18945TIP3    H178326   6.655   2.905  12.350 -0.2394 -1.6340 -0.0248
18945TIP3    H278327   6.793   2.844  12.364  0.5094 -0.0027 -0.0718
18946TIP3   OH278328   0.249   2.385  15.892  0.2257  0.0185  0.2377
18946TIP3    H178329   0.308   2.329  15.942 -0.3890  0.1018  1.0697
18946TIP3    H278330   0.250   2.469  15.938 -0.9422 -0.1393  0.5717
18947TIP3   OH278331   2.008   2.965  13.746  0.3416 -0.3902 -0.2921
18947TIP3    H178332   2.077   2.902  13.724  1.5784  0.8749 -0.2215
18947TIP3    H278333   1.995   2.956  13.840  1.8006  0.6392  0.0452
18948TIP3   OH278334   5.465   3.668  10.601  0.5328 -0.2169 -0.1832
18948TIP3    H178335   5.543   3.693  10.550  0.3816 -0.1704 -0.3963
18948TIP3    H278336   5.466   3.728  10.676  1.6695 -1.3760  0.7684
18949TIP3   OH278337   1.134   1.490   5.454  0.1088  0.1895 -0.2888
18949TIP3    H178338   1.141   1.559   5.521 -1.9160  1.0543 -0.9164
18949TIP3    H278339   1.175   1.529   5.376 -0.2340  0.3546 -0.3893
18950TIP3   OH278340   4.526   2.680  17.180  0.2365  0.3750  0.3844
18950TIP3    H178341   4.517   2.757  17.123 -0.8803  1.7256  2.2641
18950TIP3    H278342   4.589   2.624  17.135 -1.0963  1.0042 -2.5239
18951TIP3   OH278343   2.168   3.834  11.200 -0.3036 -0.2193 -0.3314
18951TIP3    H178344   2.171   3.792  11.286  0.4795  2.1118  0.8630
18951TIP3    H278345   2.250   3.809  11.158  0.8418  1.1378  0.9514
18952TIP3   OH278346   1.565   5.308   0.609  0.2908  0.6709  0.1051
18952TIP3    H178347   1.476   5.326   0.638 -0.6641 -1.4141 -1.2650
18952TIP3    H278348   1.563   5.322   0.514  1.4490  0.6734  0.0603
18953TIP3   OH278349   1.637   1.937   2.263 -0.4675  0.2988 -0.3035
18953TIP3    H178350   1.658   1.898   2.348  1.1610 -1.3455 -1.3765
18953TIP3    H278351   1.629   2.031   2.281 -0.1829 -0.0086  1.6678
18954TIP3   OH278352   4.128   4.722   4.686  0.7410 -0.5572 -0.0457
18954TIP3    H178353   4.081   4.693   4.764  2.2298 -1.0201  0.7158
18954TIP3    H278354   4.072   4.695   4.613 -1.1376  0.7268  0.8538
18955TIP3   OH278355   0.953   4.856   1.149  0.6419  0.2246  0.7808
18955TIP3    H178356   0.875   4.901   1.117  1.5719  1.4714  0.2096
18955TIP3    H278357   0.940   4.765   1.122  0.4527  0.8458 -1.4097
18956TIP3   OH278358   6.726   3.931  17.035 -0.1506  0.5416  0.5195
18956TIP3    H178359   6.682   3.940  17.119 -0.1511 -0.6134  0.6633
18956TIP3    H278360   6.666   3.878  16.982  1.4882 -2.1245  1.1120
18957TIP3   OH278361   1.205   0.447  13.342 -0.4848 -0.1140 -0.7441
18957TIP3    H178362   1.228   0.479  13.255  0.7344  0.7317 -0.1476
18957TIP3    H278363   1.263   0.495  13.401 -2.1456  0.2833  0.6598
18958TIP3   OH278364   3.452   0.494  12.805  0.0235 -0.2322 -0.4874
18958TIP3    H178365   3.369   0.454  12.779 -0.2239 -0.5303  0.6778
18958TIP3    H278366   3.429   0.553  12.876  0.4897  1.5583 -1.7732
18959TIP3   OH278367   1.726   2.389   2.883 -0.2803  0.0107 -0.2690
18959TIP3    H178368   1.770   2.410   2.801 -1.1428  0.8986 -0.5366
18959TIP3    H278369   1.670   2.314   2.862  0.7957 -0.8794 -0.0226
18960TIP3   OH278370   0.094   6.295   1.855 -0.2834  0.3421  0.5983
18960TIP3    H178371   0.159   6.275   1.922  1.7111  1.6378 -0.8640
18960TIP3    H278372   0.012   6.302   1.904  1.1793  1.8607  3.0394
18961TIP3   OH278373   0.769   3.298   5.228  0.4173 -0.1265 -0.9961
18961TIP3    H178374   0.752   3.205   5.216 -2.5447 -0.2561  2.4931
18961TIP3    H278375   0.846   3.302   5.285 -0.4154 -0.5708  0.1908
18962TIP3   OH278376   5.985   3.939  14.743 -0.3288 -0.0480  0.6012
18962TIP3    H178377   6.055   3.915  14.804 -0.0094  0.4966  0.4569
18962TIP3    H278378   6.018   4.016  14.698 -1.0547  0.2619  0.5799
18963TIP3   OH278379   4.559   1.871  16.930 -0.1638  0.1091 -0.4659
18963TIP3    H178380   4.557   1.781  16.961  0.5784  1.0006  2.5376
18963TIP3    H278381   4.472   1.888  16.896 -0.9134 -1.1875  0.7452
18964TIP3   OH278382   2.716   3.680   2.048  0.0425 -0.3653 -0.0138
18964TIP3    H178383   2.704   3.608   1.985 -1.2259 -0.0001 -0.2080
18964TIP3    H278384   2.736   3.636   2.131  3.1948 -0.8377 -0.8775
18965TIP3   OH278385   0.344   1.108   5.625  0.3444  0.7120  0.4531
18965TIP3    H178386   0.417   1.098   5.685  0.3794  0.1380  0.3186
18965TIP3    H278387   0.319   1.200   5.633  1.7946  1.2131 -0.3305
18966TIP3   OH278388   4.669   6.612   5.727  0.7253  0.4814 -0.2923
18966TIP3    H178389   4.597   6.589   5.786  1.1868 -0.3473 -0.0305
18966TIP3    H278390   4.656   6.556   5.650  1.2055  0.1534 -0.1449
18967TIP3   OH278391   4.790   4.278  14.842  0.3105 -0.0406  0.4743
18967TIP3    H178392   4.764   4.370  14.841  2.6649  0.7521  1.8978
18967TIP3    H278393   4.809   4.257  14.751  2.7465  1.9427  0.3940
18968TIP3   OH278394   0.180   1.100   6.365  0.0685 -0.1567  0.0482
18968TIP3    H178395   0.231   1.179   6.380 -0.3626  0.3279 -0.9740
18968TIP3    H278396   0.090   1.124   6.389 -0.2664  0.0213 -1.3516
18969TIP3   OH278397   4.382   1.628  13.624  0.0251 -0.4724 -0.1057
18969TIP3    H178398   4.445   1.605  13.556  0.8648 -0.0051  0.4925
18969TIP3    H278399   4.436   1.647  13.701 -0.9137 -1.1404  0.7403
18970TIP3   OH278400   3.872   3.739   6.401 -0.0514 -0.1505 -0.1856
18970TIP3    H178401   3.808   3.668   6.403 -0.0018 -0.2063 -0.4733
18970TIP3    H278402   3.907   3.737   6.312 -0.7873  0.8973 -0.5199
18971TIP3   OH278403   6.317   2.749  15.325  0.2138  1.0209 -0.9705
18971TIP3    H178404   6.325   2.840  15.354 -0.1184  0.0825  2.6551
18971TIP3    H278405   6.399   2.730  15.280  1.3877  2.4530  0.4603
18972TIP3   OH278406   0.186   3.049  15.313 -0.1413  0.1200  0.2370
18972TIP3    H178407   0.135   3.110  15.365 -1.8839  0.9317 -2.1984
18972TIP3    H278408   0.141   2.965  15.324  1.8180 -0.7045  2.9932
18973TIP3   OH278409   0.742   2.240   2.505 -0.6071  0.2157  0.4419
18973TIP3    H178410   0.791   2.292   2.569  1.0655 -1.0046  0.2361
18973TIP3    H278411   0.791   2.250   2.424 -2.1418  0.9377 -0.4321
18974TIP3   OH278412   4.336   2.935  16.788  0.3964 -0.2675 -0.9146
18974TIP3    H178413   4.374   2.991  16.855 -1.3850  1.9424 -1.6365
18974TIP3    H278414   4.306   2.857  16.836 -0.0195  0.8485  0.7111
18975TIP3   OH278415   1.698   0.282   5.552  0.6374  0.2420 -0.3141
18975TIP3    H178416   1.790   0.286   5.527  0.5188 -0.2332 -0.8436
18975TIP3    H278417   1.684   0.191   5.577 -0.2878 -0.3317 -2.6392
18976TIP3   OH278418   5.588   1.059  15.426 -0.6020 -0.2030  0.0832
18976TIP3    H178419   5.662   1.119  15.418 -0.9585  0.0990 -1.1769
18976TIP3    H278420   5.564   1.038  15.336 -2.2295 -0.0635  0.4493
18977TIP3   OH278421   3.433   6.358   5.812 -0.0106 -0.6089  0.0020
18977TIP3    H178422   3.361   6.301   5.837 -2.3300  1.1445 -2.1370
18977TIP3    H278423   3.438   6.351   5.717  1.6831  0.4217 -0.0316
18978TIP3   OH278424   6.251   2.412  12.199 -0.0307 -0.3384 -0.0956
18978TIP3    H178425   6.212   2.350  12.137 -0.9019  0.1785 -0.0774
18978TIP3    H278426   6.208   2.496  12.180  2.3522  0.7290 -1.3230
18979TIP3   OH278427   3.446   1.594  12.561 -0.0394 -0.6939  0.1638
18979TIP3    H178428   3.438   1.648  12.483  3.9704  0.6428  0.4362
18979TIP3    H278429   3.370   1.537  12.559 -0.9398  0.3558 -3.8339
18980TIP3   OH278430   6.383   4.687   4.540 -0.0631  0.9814  0.1908
18980TIP3    H178431   6.334   4.701   4.621 -0.1983 -0.3216  0.3445
18980TIP3    H278432   6.474   4.681   4.567 -0.3107 -2.1543  0.6573
18981TIP3   OH278433   0.409   1.396  15.165  0.1264  0.1079  0.5182
18981TIP3    H178434   0.433   1.414  15.256  0.7981 -1.1657  0.6104
18981TIP3    H278435   0.345   1.326  15.171  0.8104 -0.5731 -0.0195
18982TIP3   OH278436   1.861   6.579   5.991 -0.1261  0.2218  0.3244
18982TIP3    H178437   1.920   6.508   5.966 -0.3493  0.3207 -0.5331
18982TIP3    H278438   1.863   6.580   6.086  1.4763  0.4225  0.3095
18983TIP3   OH278439   3.267   1.972  14.600  0.4394 -0.2603 -0.0575
18983TIP3    H178440   3.280   2.005  14.511  0.5097 -0.2075 -0.0273
18983TIP3    H278441   3.283   1.878  14.593  1.9143 -0.0549  0.1875
18984TIP3   OH278442   4.799   2.932  15.951 -0.2693  0.3077 -0.0813
18984TIP3    H178443   4.813   3.024  15.974 -1.7111  0.1613  1.6346
18984TIP3    H278444   4.742   2.899  16.021  1.3563 -2.2633  0.1416
18985TIP3   OH278445   4.720   5.502   2.578 -0.7500 -0.0154  0.1596
18985TIP3    H178446   4.708   5.585   2.625 -0.3287  0.2951 -0.2685
18985TIP3    H278447   4.736   5.438   2.647 -0.5202  0.3632  0.4679
18986TIP3   OH278448   2.781   3.635   5.070 -0.4884 -1.4740 -0.6217
18986TIP3    H178449   2.832   3.570   5.117 -0.5074 -0.9591  0.1177
18986TIP3    H278450   2.702   3.647   5.122  0.3374  0.4977  0.2742
18987TIP3   OH278451   3.356   3.857   1.651  0.0937  0.7442 -0.4183
18987TIP3    H178452   3.377   3.808   1.572  1.1026 -0.2735  0.4388
18987TIP3    H278453   3.390   3.803   1.722 -0.9287  1.5590  0.7262
18988TIP3   OH278454   5.128   0.383   4.271 -0.1427 -0.6485  0.2811
18988TIP3    H178455   5.063   0.435   4.224 -0.2780 -0.7451  0.3600
18988TIP3    H278456   5.159   0.319   4.207  0.8876  0.2709 -0.1750
18989TIP3   OH278457   0.207   2.442  11.573  0.0604  0.0644  0.4768
18989TIP3    H178458   0.245   2.409  11.655 -0.0552 -2.1237 -0.2960
18989TIP3    H278459   0.264   2.406  11.505 -1.7160 -0.8862 -0.5581
18990TIP3   OH278460   4.987   0.191   5.664 -0.3734 -0.3626  0.5712
18990TIP3    H178461   4.905   0.148   5.690 -0.6701  1.4282  2.9164
18990TIP3    H278462   4.963   0.244   5.589 -0.9423 -1.1300  0.1890
18991TIP3   OH278463   0.309   1.743  17.159  0.2522 -0.1917 -0.1976
18991TIP3    H178464   0.402   1.742  17.137  0.1397 -1.8519 -0.7445
18991TIP3    H278465   0.266   1.699  17.085 -0.9758  0.5857  0.0270
18992TIP3   OH278466   1.013   5.382   2.103  0.4137 -0.4077 -0.4801
18992TIP3    H178467   1.087   5.328   2.132  0.0270 -0.0249  1.2970
18992TIP3    H278468   0.954   5.386   2.178 -1.4724 -0.7420 -1.8734
18993TIP3   OH278469   6.178   5.828  14.096 -0.2613  0.4009 -0.8074
18993TIP3    H178470   6.218   5.867  14.174 -0.7542  1.6909 -1.1776
18993TIP3    H278471   6.229   5.863  14.023  2.5203 -3.5047 -1.0346
18994TIP3   OH278472   4.387   6.683  12.969 -0.7160  0.5277 -0.4130
18994TIP3    H178473   4.473   6.704  12.934 -0.5821 -0.0863 -0.4577
18994TIP3    H278474   4.380   6.736  13.049 -0.4603  0.8782 -0.6228
18995TIP3   OH278475   4.701   4.967   4.000  0.1606 -0.0871  0.6451
18995TIP3    H178476   4.724   4.913   3.924  2.9932 -1.1787  2.1350
18995TIP3    H278477   4.702   5.057   3.967  0.3774 -0.6027 -0.8189
18996TIP3   OH278478   2.221   1.126   5.702  0.5139 -0.5728  0.3945
18996TIP3    H178479   2.170   1.129   5.784 -0.0684 -0.6294  0.0399
18996TIP3    H278480   2.187   1.050   5.655  1.7666 -1.3414  0.6766
18997TIP3   OH278481   0.924   0.351  12.727 -0.4223 -0.1480  0.0710
18997TIP3    H178482   0.865   0.420  12.759  0.7565  0.4606  0.9957
18997TIP3    H278483   0.956   0.308  12.806 -1.4888 -2.1067 -0.4993
18998TIP3   OH278484   0.495   6.167   4.684  0.1242  0.5201 -0.0247
18998TIP3    H178485   0.571   6.224   4.669  0.0030  0.1590 -2.3322
18998TIP3    H278486   0.512   6.090   4.631 -1.0868 -0.3340  0.7799
18999TIP3   OH278487   0.328   3.311   3.273 -0.3045  0.4674 -0.3123
18999TIP3    H178488   0.284   3.367   3.209 -0.3344 -2.7280 -3.4489
18999TIP3    H278489   0.277   3.231   3.274  1.7076 -0.9130  1.0957
19000TIP3   OH278490   2.854   2.133   3.021 -0.6160 -0.4763 -0.2549
19000TIP3    H178491   2.893   2.148   2.935 -1.0260 -0.7401 -0.4929
19000TIP3    H278492   2.765   2.167   3.013 -0.5254 -0.1326  0.1936
19001TIP3   OH278493   2.158   1.416   3.823  0.5517 -0.3872  0.2300
19001TIP3    H178494   2.243   1.430   3.864  2.1736  1.1348 -3.2342
19001TIP3    H278495   2.125   1.503   3.804 -3.1918 -0.7425  3.5999
19002TIP3   OH278496   6.563   2.137   6.144 -0.5024 -0.1508  0.5722
19002TIP3    H178497   6.584   2.058   6.193 -0.8595 -0.8560 -0.3761
19002TIP3    H278498   6.648   2.167   6.110 -0.1798  0.6464  2.0350
19003TIP3   OH278499   2.658   6.799  13.686  0.7039  0.2541  0.7930
19003TIP3    H178500   2.574   6.758  13.709  0.2265  0.7874  0.0637
19003TIP3    H278501   2.671   6.866  13.753  0.6636  0.0180  1.0397
19004TIP3   OH278502   5.685   3.729   0.442  0.6643 -0.5170  0.0818
19004TIP3    H178503   5.688   3.681   0.524  2.3514 -0.1711  0.2595
19004TIP3    H278504   5.658   3.818   0.466 -0.2216 -0.7774  0.0621
19005TIP3   OH278505   4.905   2.941   0.820  0.3277 -0.1419  0.0775
19005TIP3    H178506   4.852   2.932   0.741  0.9929 -0.4055 -0.3483
19005TIP3    H278507   4.975   2.876   0.810  0.8035  0.2793  0.5686
19006TIP3   OH278508   4.310   1.609   0.136  0.4670 -0.2506  0.1220
19006TIP3    H178509   4.290   1.619   0.043  1.8395 -0.1364 -0.1839
19006TIP3    H278510   4.330   1.516   0.147  0.2583 -0.2749  0.3187
19007TIP3   OH278511   3.195   2.173  11.724 -0.6320 -0.0833  0.4235
19007TIP3    H178512   3.118   2.194  11.670 -1.4141  0.4427  1.7022
19007TIP3    H278513   3.195   2.239  11.792  0.6681 -0.4069  0.7515
19008TIP3   OH278514   5.504   6.352   4.690 -0.0423  0.2499  0.3933
19008TIP3    H178515   5.514   6.258   4.677 -1.5210  0.0557  0.5047
19008TIP3    H278516   5.444   6.360   4.765 -0.1289  1.2659  0.2299
19009TIP3   OH278517   5.157   1.647  13.785  0.1510 -0.5639 -0.5913
19009TIP3    H178518   5.077   1.699  13.797  0.6339  0.3691 -1.2788
19009TIP3    H278519   5.192   1.635  13.873  1.4573  2.6164 -0.5708
19010TIP3   OH278520   2.475   1.001   5.181 -1.0647 -0.1301  0.3724
19010TIP3    H178521   2.561   1.023   5.216 -1.0636  0.4967 -0.0043
19010TIP3    H278522   2.487   0.918   5.135 -0.8131 -0.3767  0.8791
19011TIP3   OH278523   4.640   0.938   4.158 -1.2723  0.3396 -0.9553
19011TIP3    H178524   4.597   1.004   4.212  1.9528  0.5865  1.6280
19011TIP3    H278525   4.689   0.989   4.093  1.7403  0.7610  1.4412
19012TIP3   OH278526   4.268   4.557  13.806 -0.2391  0.1489  0.6717
19012TIP3    H178527   4.342   4.542  13.747  0.7092  0.5839  1.7052
19012TIP3    H278528   4.197   4.586  13.749  0.9730  1.6376 -0.1698
19013TIP3   OH278529   6.406   5.589  12.460  0.1784 -0.3335 -0.5099
19013TIP3    H178530   6.457   5.527  12.513 -0.4224 -0.5249 -0.1390
19013TIP3    H278531   6.321   5.594  12.504  0.2980  0.9651 -0.3742
19014TIP3   OH278532   4.585   1.814  17.232  0.0173  0.0431 -0.4098
19014TIP3    H178533   4.668   1.850  17.199  1.1578 -0.8201  1.3684
19014TIP3    H278534   4.564   1.868  17.308 -2.4449  1.8508 -2.2121
19015TIP3   OH278535   3.486   1.302   6.040 -0.1535 -0.3408  0.3214
19015TIP3    H178536   3.420   1.238   6.013 -1.3329  0.5510  0.9845
19015TIP3    H278537   3.491   1.293   6.135 -1.2705  1.3740  0.5877
19016TIP3   OH278538   5.208   6.502   0.252  0.0977  0.2778 -0.3245
19016TIP3    H178539   5.203   6.591   0.218 -0.8993  1.3060  2.2256
19016TIP3    H278540   5.210   6.513   0.347  2.8399 -2.3241  0.0837
19017TIP3   OH278541   3.839   4.752   1.466  0.1309  0.3640 -0.1683
19017TIP3    H178542   3.917   4.705   1.495  0.3846  1.2584  0.6409
19017TIP3    H278543   3.822   4.718   1.378  2.0414  0.8938 -0.7878
19018TIP3   OH278544   2.070   6.691  14.598  0.1661  0.4845  0.3293
19018TIP3    H178545   2.128   6.755  14.640  1.6851  0.0705 -1.0535
19018TIP3    H278546   1.999   6.679  14.661  1.1397  1.6442  1.7240
19019TIP3   OH278547   1.816   0.804   6.543  0.0831 -0.2237 -0.0288
19019TIP3    H178548   1.737   0.815   6.490 -0.2973 -1.8361  0.1339
19019TIP3    H278549   1.872   0.878   6.519 -0.8515  0.1130 -1.2846
19020TIP3   OH278550   3.915   5.117   3.599  0.0518 -0.3645  0.0526
19020TIP3    H178551   3.860   5.195   3.606 -0.2346 -0.5630  0.0278
19020TIP3    H278552   3.945   5.101   3.688 -0.2821 -0.5073  0.1424
19021TIP3   OH278553   3.372   1.756   3.233  0.2221  0.7791  0.5891
19021TIP3    H178554   3.427   1.710   3.169  0.2658 -0.8035  1.7065
19021TIP3    H278555   3.430   1.773   3.307 -0.0200  1.9301  0.5312
19022TIP3   OH278556   0.235   4.072   5.768  0.6570  0.2819 -0.0751
19022TIP3    H178557   0.203   3.998   5.716 -0.2472 -0.7999  1.9150
19022TIP3    H278558   0.255   4.139   5.703 -2.0639 -0.3423 -1.7638
19023TIP3   OH278559   0.513   5.248   4.191 -0.1763 -0.0918 -0.2274
19023TIP3    H178560   0.532   5.288   4.106 -1.8263 -1.1337 -1.1483
19023TIP3    H278561   0.452   5.309   4.233  0.0256  0.0373 -0.1185
19024TIP3   OH278562   6.178   5.683   3.227  0.0065  0.3833 -0.0596
19024TIP3    H178563   6.088   5.664   3.198 -0.1317  0.0268  0.5837
19024TIP3    H278564   6.171   5.769   3.269  0.2044  0.8950 -1.0586
19025TIP3   OH278565   3.872   6.455  14.809  0.1486 -0.0539 -0.4533
19025TIP3    H178566   3.949   6.397  14.810 -0.2031 -0.5188  0.3078
19025TIP3    H278567   3.799   6.398  14.832 -0.2170  0.6819  0.2417
19026TIP3   OH278568   0.951   6.093  16.859  0.5383  0.4399  0.1511
19026TIP3    H178569   1.010   6.064  16.788  0.9711  1.1319  0.2231
19026TIP3    H278570   0.937   6.014  16.911 -0.3996 -0.2728 -1.1152
19027TIP3   OH278571   2.378   2.985   1.406 -0.2143 -0.5252  0.1474
19027TIP3    H178572   2.449   2.924   1.384  0.1013  0.1548 -0.7911
19027TIP3    H278573   2.400   3.065   1.359 -0.9457  0.1211  0.8739
19028TIP3   OH278574   3.275   0.025   1.701  0.0948  0.2467  0.0147
19028TIP3    H178575   3.189   0.067   1.695 -0.0013  0.5657  2.3568
19028TIP3    H278576   3.257  -0.068   1.690 -0.6721  0.2673  0.9116
19029TIP3   OH278577   0.900   6.269  11.710 -0.9260  0.2841 -0.1153
19029TIP3    H178578   0.955   6.237  11.782 -3.7284  1.6457  2.9325
19029TIP3    H278579   0.941   6.350  11.682  1.3301 -1.2801 -1.6271
19030TIP3   OH278580   5.917   6.037   0.129  0.1884 -0.0764  0.2484
19030TIP3    H178581   5.943   5.950   0.101 -0.1224  0.7372 -3.0298
19030TIP3    H278582   5.837   6.024   0.180 -1.1652 -1.6580 -2.0944
19031TIP3   OH278583   1.261   5.922  11.467 -0.5538  0.1064 -0.3713
19031TIP3    H178584   1.219   5.858  11.410  0.1386 -0.5931 -0.1149
19031TIP3    H278585   1.317   5.973  11.408 -0.2096 -0.3008 -0.4073
19032TIP3   OH278586   6.418   3.489  16.010 -0.2296  0.2459  0.5972
19032TIP3    H178587   6.345   3.428  15.998  0.7880 -0.5974 -2.1783
19032TIP3    H278588   6.491   3.434  16.038  0.3410  0.3752 -0.5769
19033TIP3   OH278589   5.766   4.678   5.993 -0.1442 -0.2870 -0.2197
19033TIP3    H178590   5.755   4.762   5.947 -0.6494 -0.9225 -1.3228
19033TIP3    H278591   5.826   4.697   6.065  0.1112  0.9204 -0.7238
19034TIP3   OH278592   1.890   5.855   4.209  0.3900  0.2287  0.3293
19034TIP3    H178593   1.901   5.846   4.114  0.3267  1.4767  0.1931
19034TIP3    H278594   1.961   5.802   4.246  0.2458 -0.5001 -0.3995
19035TIP3   OH278595   2.465   2.074  14.229 -0.5710 -0.5143  0.7015
19035TIP3    H178596   2.469   2.076  14.324  0.9816 -1.8297  0.7101
19035TIP3    H278597   2.433   1.987  14.208 -0.5054 -0.3826  0.0201
19036TIP3   OH278598   5.406   1.999  12.609  0.1226  0.3141 -0.1120
19036TIP3    H178599   5.413   2.072  12.670  0.1307 -0.8785  1.3885
19036TIP3    H278600   5.467   2.021  12.538  0.8922  1.2803  0.8122
19037TIP3   OH278601   5.193   5.435   1.247  0.2534 -0.1206  0.0702
19037TIP3    H178602   5.168   5.361   1.302 -0.2216  0.3425  0.4888
19037TIP3    H278603   5.254   5.398   1.183 -0.0035 -0.8749  0.2545
19038TIP3   OH278604   4.615   3.989  12.451 -0.3818  0.2873 -0.4014
19038TIP3    H178605   4.657   4.069  12.483  0.3891  0.2303 -1.2246
19038TIP3    H278606   4.684   3.944  12.401 -1.2958 -0.0335 -1.4186
19039TIP3   OH278607   0.327   3.778   2.263 -0.3523 -0.9304  0.4917
19039TIP3    H178608   0.332   3.851   2.325  0.4043  1.0387 -1.7350
19039TIP3    H278609   0.239   3.783   2.226 -0.2475 -1.0588  0.2209
19040TIP3   OH278610   5.781   1.120  16.417  0.1163 -0.6284  0.2874
19040TIP3    H178611   5.768   1.069  16.337 -0.5334  1.3721 -0.9545
19040TIP3    H278612   5.693   1.125  16.455  0.5821 -2.4376  1.7569
19041TIP3   OH278613   0.623   1.564  13.396  0.0275 -0.0384 -0.3762
19041TIP3    H178614   0.550   1.587  13.454 -1.1991 -2.6833 -0.7381
19041TIP3    H278615   0.635   1.470  13.408  3.9410  0.3605  0.1932
19042TIP3   OH278616   6.725   6.150  16.740 -0.0201 -0.2020 -0.2035
19042TIP3    H178617   6.768   6.131  16.657 -0.3568 -1.9555 -0.0144
19042TIP3    H278618   6.685   6.236  16.727  1.2618  0.2649 -1.2889
19043TIP3   OH278619   4.197   3.758   0.696  0.0220 -0.2585  0.2295
19043TIP3    H178620   4.206   3.669   0.662 -2.2603 -1.0802  1.5506
19043TIP3    H278621   4.103   3.775   0.693  0.3952  2.1518  0.0182
19044TIP3   OH278622   6.239   0.718   5.155  0.1586  0.4613  0.0819
19044TIP3    H178623   6.236   0.813   5.155 -2.1167  0.4467 -0.8496
19044TIP3    H278624   6.170   0.691   5.216 -1.7200 -0.5163 -2.3191
19045TIP3   OH278625   3.814   2.849   4.689 -0.0034  0.7547 -0.3410
19045TIP3    H178626   3.870   2.844   4.767  0.2202 -0.6460 -0.5633
19045TIP3    H278627   3.791   2.942   4.682  0.4364  0.9946  1.0589
19046TIP3   OH278628   1.126   6.067  11.730 -0.4073  0.1008  0.5440
19046TIP3    H178629   1.049   6.039  11.680 -0.8140  0.0896  1.1652
19046TIP3    H278630   1.200   6.044  11.674 -0.7433 -1.8395  0.8248
19047TIP3   OH278631   6.641   3.635  16.893  0.0591 -0.4126 -0.3917
19047TIP3    H178632   6.553   3.635  16.857  0.1806  0.8935 -0.7327
19047TIP3    H278633   6.698   3.613  16.819 -0.0389 -2.6152  0.1101
19048TIP3   OH278634   3.340   1.190  13.959 -0.0899  0.2857  0.3081
19048TIP3    H178635   3.380   1.188  14.046  3.5075  1.7910 -1.1388
19048TIP3    H278636   3.357   1.103  13.923  1.7257  0.7873 -0.1450
19049TIP3   OH278637   6.278   2.417  11.625 -0.1143 -0.5283  0.8288
19049TIP3    H178638   6.354   2.475  11.622  0.2536 -1.0536 -0.7341
19049TIP3    H278639   6.218   2.461  11.686 -0.3042  2.1004 -1.0668
19050TIP3   OH278640   0.602   4.554  12.221  0.4965 -0.9937 -0.5112
19050TIP3    H178641   0.534   4.620  12.211  1.7671  0.3369 -0.5672
19050TIP3    H278642   0.556   4.478  12.259 -1.7608 -1.4406 -3.6999
19051TIP3   OH278643   0.598   2.389   5.085  0.3578  0.0832 -0.5934
19051TIP3    H178644   0.569   2.438   5.008  1.2692  0.0692 -0.9559
19051TIP3    H278645   0.676   2.436   5.115 -0.6487  0.7954  1.0437
19052TIP3   OH278646   3.843   2.379  13.081 -0.6012  0.1761 -0.4742
19052TIP3    H178647   3.806   2.410  13.164 -1.7167 -2.4328  0.1040
19052TIP3    H278648   3.766   2.355  13.029  0.1501 -1.2805 -0.9635
19053TIP3   OH278649   5.257   5.278  16.470 -0.0278 -0.2839 -0.1576
19053TIP3    H178650   5.286   5.255  16.558 -0.1259  0.8421  0.1871
19053TIP3    H278651   5.255   5.195  16.422 -0.1405 -0.9342  0.9502
19054TIP3   OH278652   4.302   4.810   3.527  0.1093  0.4004  0.0848
19054TIP3    H178653   4.333   4.891   3.486 -0.6351  0.9819  0.6607
19054TIP3    H278654   4.369   4.788   3.591  0.5017  0.3395 -0.3370
19055TIP3   OH278655   5.432   1.776  11.647 -0.4476 -0.3765  0.4769
19055TIP3    H178656   5.362   1.837  11.667 -0.6893  0.1228 -1.6816
19055TIP3    H278657   5.452   1.733  11.731 -1.6487  1.1924  1.6066
19056TIP3   OH278658   3.659   0.384   4.506 -0.3456  0.2306  0.0135
19056TIP3    H178659   3.694   0.404   4.419  1.2595 -1.2103  0.2742
19056TIP3    H278660   3.564   0.390   4.495 -0.1410  2.7054 -1.1372
19057TIP3   OH278661   1.861   1.014  15.682 -0.2181  0.3875  0.3322
19057TIP3    H178662   1.778   1.044  15.646  0.6818  1.7642 -0.6971
19057TIP3    H278663   1.849   0.919  15.694 -1.2251  0.1799 -1.8488
19058TIP3   OH278664   3.670   4.470   1.995  0.4451  0.3792 -0.0983
19058TIP3    H178665   3.697   4.469   1.903 -1.5920  0.7432 -0.7612
19058TIP3    H278666   3.647   4.379   2.013  0.1613  0.4300 -0.1907
19059TIP3   OH278667   4.499   3.969  16.356 -0.0769 -0.5600  0.2071
19059TIP3    H178668   4.547   4.026  16.417  0.7346 -0.9638 -0.0407
19059TIP3    H278669   4.544   3.980  16.272 -1.2453  0.0678 -0.3630
19060TIP3   OH278670   4.949   2.854  16.594  0.1380  0.3537 -0.3667
19060TIP3    H178671   4.899   2.879  16.516  0.2529  0.6782 -0.3396
19060TIP3    H278672   5.039   2.880  16.574  0.0847  0.9018  0.0702
19061TIP3   OH278673   4.407   1.628  15.526 -0.6502  0.2999  0.0048
19061TIP3    H178674   4.469   1.575  15.476 -1.1514  0.5344 -0.8667
19061TIP3    H278675   4.447   1.715  15.529 -1.6610  0.8857 -1.9598
19062TIP3   OH278676   4.521   5.145  15.179 -0.0569 -0.4075  0.1656
19062TIP3    H178677   4.594   5.123  15.121  2.3121  1.0542  2.3888
19062TIP3    H278678   4.500   5.063  15.223 -0.4505 -1.0417 -1.1377
19063TIP3   OH278679   0.744   1.270   2.010 -0.0406  0.3822  0.4373
19063TIP3    H178680   0.673   1.304   2.065  0.6971  0.9235  1.0835
19063TIP3    H278681   0.802   1.345   1.997  1.2106 -0.4118  1.2251
19064TIP3   OH278682   5.266   0.803   5.931  0.1214  0.2309 -0.3785
19064TIP3    H178683   5.204   0.816   6.003  2.0270  0.1084  1.3684
19064TIP3    H278684   5.258   0.882   5.878 -0.7109  0.7112  0.4352
19065TIP3   OH278685   4.970   2.167   2.015 -0.5524  0.2859  0.1425
19065TIP3    H178686   5.056   2.195   1.983 -1.2291 -0.4655 -2.6334
19065TIP3    H278687   4.910   2.235   1.985 -1.2374 -0.5063 -0.3555
19066TIP3   OH278688   3.759   0.713   4.889 -0.9353  0.2383  0.5730
19066TIP3    H178689   3.844   0.740   4.925 -1.9009  1.7889  1.7765
19066TIP3    H278690   3.731   0.788   4.837 -1.8686 -0.0163  0.7019
19067TIP3   OH278691   5.317   3.776  12.324  0.6325  0.7087  0.2154
19067TIP3    H178692   5.329   3.689  12.287  2.0220  0.3588  1.3886
19067TIP3    H278693   5.262   3.762  12.401 -0.7086  1.1670 -0.6266
19068TIP3   OH278694   2.251   4.529   3.723 -0.4687 -0.2838 -0.0098
19068TIP3    H178695   2.205   4.446   3.715  0.5252 -0.7098 -2.0718
19068TIP3    H278696   2.344   4.506   3.723 -0.1849  0.7741  0.3299
19069TIP3   OH278697   0.413   0.573   6.000 -0.7207  0.0142 -0.1935
19069TIP3    H178698   0.423   0.611   5.912 -0.0517  0.8316  0.2087
19069TIP3    H278699   0.502   0.573   6.035 -1.2489  1.7117  1.2761
19070TIP3   OH278700   6.559   0.326   5.835 -0.2210  0.0493  0.6464
19070TIP3    H178701   6.503   0.401   5.856  0.9759  0.8523  1.0497
19070TIP3    H278702   6.532   0.299   5.748 -0.3482  1.2531  0.3008
19071TIP3   OH278703   0.979   4.125   0.958  0.3131  0.0562  0.1810
19071TIP3    H178704   0.922   4.199   0.982  0.6538  0.2713  0.3282
19071TIP3    H278705   1.016   4.150   0.873  1.5425  0.7093  0.8859
19072TIP3   OH278706   6.820   1.798  10.861 -0.1654  0.5842  0.2248
19072TIP3    H178707   6.792   1.870  10.919 -0.6399  0.3416  0.3071
19072TIP3    H278708   6.909   1.821  10.836  0.2881  0.3917  1.5558
19073TIP3   OH278709   2.202   6.120  14.614  0.0465  0.3445 -0.4391
19073TIP3    H178710   2.117   6.087  14.585  0.9549 -0.9500 -1.7870
19073TIP3    H278711   2.226   6.186  14.550 -0.4866  1.6652  0.6714
19074TIP3   OH278712   1.293   2.140   5.448  0.3031 -0.5215 -0.0979
19074TIP3    H178713   1.249   2.147   5.363  0.9234 -0.9595 -0.4661
19074TIP3    H278714   1.223   2.140   5.512 -0.2923 -1.9519 -0.7112
19075TIP3   OH278715   5.345   5.414   2.140 -0.0304  0.0180  0.0733
19075TIP3    H178716   5.330   5.486   2.201 -0.2883  0.6626 -0.7353
19075TIP3    H278717   5.411   5.447   2.079 -0.4121 -0.2905 -0.5217
19076TIP3   OH278718   5.008   6.661   1.988  0.1678 -0.0606  0.0204
19076TIP3    H178719   4.998   6.572   1.954  1.9933 -0.3012 -0.0074
19076TIP3    H278720   5.030   6.649   2.081 -1.4084  0.4613  0.4930
19077TIP3   OH278721   5.435   4.019  15.898  0.2323  0.8166  0.3368
19077TIP3    H178722   5.417   4.113  15.889 -0.2527  0.6151 -0.9588
19077TIP3    H278723   5.409   3.981  15.814  1.3702 -0.3432  0.4837
19078TIP3   OH278724   4.148   0.388   5.847 -0.4666 -0.9072 -0.4990
19078TIP3    H178725   4.142   0.298   5.879  1.4453 -1.6422 -1.9568
19078TIP3    H278726   4.163   0.441   5.925 -0.7751 -1.9736  0.3026
19079TIP3   OH278727   6.293   4.298  12.981 -0.6601 -0.4427  0.2620
19079TIP3    H178728   6.261   4.273  13.067 -0.5849 -1.3714  0.0358
19079TIP3    H278729   6.236   4.252  12.919  0.7705 -1.7767 -0.1471
19080TIP3   OH278730   6.146   4.495   3.443  0.4030  0.0657  0.4688
19080TIP3    H178731   6.203   4.504   3.366  1.8158  0.5728  1.5281
19080TIP3    H278732   6.145   4.582   3.482  0.1020 -0.3006  1.2887
19081TIP3   OH278733   0.509   0.157  11.986 -0.5513  0.2869 -0.4443
19081TIP3    H178734   0.490   0.082  12.041 -0.5786  0.2906 -0.4492
19081TIP3    H278735   0.559   0.121  11.913 -0.9128  0.2087 -0.6555
19082TIP3   OH278736   2.293   4.812   5.610 -0.1729 -0.4517 -0.1767
19082TIP3    H178737   2.337   4.892   5.579 -1.0429  0.3327  0.5495
19082TIP3    H278738   2.359   4.743   5.600  0.4354  0.2577 -1.2824
19083TIP3   OH278739   3.907   4.801  12.226 -0.4065 -0.4905  0.3643
19083TIP3    H178740   3.816   4.772  12.237 -0.5081 -0.1681  0.3750
19083TIP3    H278741   3.900   4.880  12.173 -0.1902 -0.0130  1.0444
19084TIP3   OH278742   5.032   3.166  15.986  0.8489  0.2376  0.8730
19084TIP3    H178743   5.069   3.113  16.056  2.9275  1.1771  0.5772
19084TIP3    H278744   4.942   3.183  16.013  0.9041 -1.3272  2.1661
19085TIP3   OH278745   3.170   5.770   0.174 -0.0514 -0.2971 -0.0605
19085TIP3    H178746   3.099   5.832   0.156 -0.4437 -0.6825  0.1391
19085TIP3    H278747   3.246   5.826   0.192  0.0294  0.1153 -1.5230
19086TIP3   OH278748   5.396   5.273   3.456  0.0596  0.1450 -0.4026
19086TIP3    H178749   5.402   5.191   3.505  0.8681  0.4782  0.0816
19086TIP3    H278750   5.472   5.324   3.486 -0.4894  1.1115 -0.6114
19087TIP3   OH278751   4.036   2.264  12.622 -0.2963 -0.7341  0.1180
19087TIP3    H178752   3.960   2.251  12.679  0.5014 -1.8170  0.9719
19087TIP3    H278753   4.068   2.176  12.603  0.2447 -0.3312 -0.9422
19088TIP3   OH278754   3.150   1.282  17.294 -0.0429 -0.1874  0.1193
19088TIP3    H178755   3.126   1.301  17.384 -0.0518  0.0882  0.0603
19088TIP3    H278756   3.208   1.206  17.300 -1.9779 -1.7185  0.1400
19089TIP3   OH278757   1.367   6.383   0.762  0.7687 -0.1939  0.0118
19089TIP3    H178758   1.352   6.320   0.833  2.8717 -1.9488 -0.9968
19089TIP3    H278759   1.396   6.463   0.806  0.4151 -0.6944  1.1950
19090TIP3   OH278760   5.396   0.122   2.790  0.3549  0.3386  0.1743
19090TIP3    H178761   5.462   0.110   2.722  0.8946  1.0210  0.5570
19090TIP3    H278762   5.388   0.036   2.831  1.5773  0.4125  0.6211
19091TIP3   OH278763   1.282   3.874  11.104  0.5088 -0.4098  0.4947
19091TIP3    H178764   1.188   3.860  11.091  0.5816 -0.5957  0.1607
19091TIP3    H278765   1.317   3.887  11.016  0.8965 -0.9994  0.5507
19092TIP3   OH278766   2.119   2.052   3.798  0.0827  0.7022 -0.2186
19092TIP3    H178767   2.200   2.041   3.748  0.7497  0.5066  0.8643
19092TIP3    H278768   2.148   2.068   3.888 -1.0818 -0.0476  0.3226
19093TIP3   OH278769   2.300   5.502  16.194  0.1787 -0.0941 -0.0890
19093TIP3    H178770   2.237   5.547  16.249 -2.0363 -1.3264 -1.4679
19093TIP3    H278771   2.333   5.431  16.249  0.6510  0.7495  0.7485
19094TIP3   OH278772   3.734   2.734  10.523 -0.6261  0.5472  0.4153
19094TIP3    H178773   3.751   2.790  10.448 -2.3621  0.9901  0.3070
19094TIP3    H278774   3.783   2.654  10.505 -0.5479  0.8690 -0.9029
19095TIP3   OH278775   0.180   4.187  14.947 -0.3816  0.2512 -0.0775
19095TIP3    H178776   0.128   4.265  14.968 -0.0286  0.2953  0.6899
19095TIP3    H278777   0.247   4.184  15.016 -1.0880 -1.3768  0.5980
19096TIP3   OH278778   4.473   6.784  16.939 -0.4102 -0.2740 -0.3804
19096TIP3    H178779   4.559   6.825  16.935 -0.9406  0.7449 -2.4041
19096TIP3    H278780   4.479   6.724  17.013  1.4902  0.9810  0.5707
19097TIP3   OH278781   1.845   5.658   2.747  0.4346 -0.5258 -0.0428
19097TIP3    H178782   1.825   5.565   2.736  1.9852 -1.0239  1.0225
19097TIP3    H278783   1.839   5.673   2.842  3.6934 -0.4675  0.2800
19098TIP3   OH278784   4.692   3.205  12.999 -0.0825  0.2918  0.2676
19098TIP3    H178785   4.786   3.206  13.017 -0.2497  0.2220  1.1999
19098TIP3    H278786   4.680   3.269  12.929  0.7852 -0.4151 -0.5671
19099TIP3   OH278787   4.234   1.793   3.476 -1.0332 -0.2585  0.2771
19099TIP3    H178788   4.309   1.825   3.526  0.0325 -2.6512  0.3637
19099TIP3    H278789   4.253   1.819   3.385  0.6425 -1.9581  0.0846
19100TIP3   OH278790   5.416   4.366   1.913 -0.0850 -0.0138  0.4039
19100TIP3    H178791   5.419   4.275   1.883  0.1517  0.4874 -1.1605
19100TIP3    H278792   5.505   4.383   1.945  0.1326 -0.0669 -0.1577
19101TIP3   OH278793   4.274   0.132   1.352  0.0337  0.4278  0.4549
19101TIP3    H178794   4.246   0.049   1.313 -1.6632 -0.0993  2.5961
19101TIP3    H278795   4.361   0.115   1.387  0.5651  0.2036 -0.9318
19102TIP3   OH278796   6.266   4.341  14.499 -0.4440  0.1039 -0.1826
19102TIP3    H178797   6.227   4.304  14.579  0.6416  0.7017  0.6462
19102TIP3    H278798   6.231   4.286  14.429 -0.9932 -0.7865  0.7489
19103TIP3   OH278799   2.493   3.015  11.568  0.1604  0.1529 -0.5049
19103TIP3    H178800   2.440   3.022  11.488 -1.2025  0.8995  0.4227
19103TIP3    H278801   2.460   2.936  11.611 -2.5565  2.2186  1.6168
19104TIP3   OH278802   5.100   3.960   2.289 -0.2254  0.0107 -0.1365
19104TIP3    H178803   5.178   4.011   2.270 -1.0557  1.2327 -0.3757
19104TIP3    H278804   5.036   4.024   2.321 -0.2060 -1.3256  3.0117
19105TIP3   OH278805   2.476   5.545  15.831  0.6706  0.2534  0.1908
19105TIP3    H178806   2.541   5.481  15.804 -0.5740 -0.4196 -1.3631
19105TIP3    H278807   2.403   5.493  15.865 -0.8692  0.6762 -2.2176
19106TIP3   OH278808   0.365   5.458   1.333 -0.2080  0.0666 -0.0026
19106TIP3    H178809   0.446   5.443   1.381 -0.3758 -2.7453 -0.4487
19106TIP3    H278810   0.391   5.470   1.242 -0.2421  0.1251 -0.0053
19107TIP3   OH278811   3.484   2.589   1.330 -0.1941 -0.3635  0.4094
19107TIP3    H178812   3.525   2.562   1.413  0.3948 -0.0590  0.2237
19107TIP3    H278813   3.514   2.524   1.267 -0.3758 -0.4035  0.3638
19108TIP3   OH278814   3.721   2.977  14.791  0.7628 -0.2311  0.1605
19108TIP3    H178815   3.653   2.913  14.772 -0.0653  0.0385  1.9994
19108TIP3    H278816   3.745   2.960  14.882 -0.5429  2.9299  1.2499
19109TIP3   OH278817   6.499   4.299  12.818 -0.6467 -0.2538 -0.0969
19109TIP3    H178818   6.500   4.210  12.853  1.5991  0.7058  2.7083
19109TIP3    H278819   6.431   4.344  12.869  0.5677  0.4032  1.0207
19110TIP3   OH278820   0.884   4.113   4.015 -0.0727 -0.2993 -0.1145
19110TIP3    H178821   0.899   4.105   4.109 -0.6810  0.2599  0.0361
19110TIP3    H278822   0.941   4.047   3.976  0.6368 -0.1283  0.6058
19111TIP3   OH278823   6.385   6.168  14.514  0.4866  0.3947  0.0701
19111TIP3    H178824   6.421   6.144  14.600 -0.0499  0.2500  0.2599
19111TIP3    H278825   6.396   6.263  14.508 -0.9975  0.6588  1.0294
19112TIP3   OH278826   6.625   2.870  14.968 -0.3582 -0.1041  0.2644
19112TIP3    H178827   6.535   2.844  14.947 -1.0485  1.6804  0.8721
19112TIP3    H278828   6.621   2.903  15.057  0.8790  0.1102  0.2599
19113TIP3   OH278829   0.771   6.726  10.832  0.8331  0.1355  0.1202
19113TIP3    H178830   0.720   6.760  10.759  0.3386  2.0531  1.2761
19113TIP3    H278831   0.828   6.660  10.793 -0.6502 -0.1864 -1.6669
19114TIP3   OH278832   3.126   4.494  16.182  0.3864 -1.1101 -0.0081
19114TIP3    H178833   3.197   4.506  16.246  1.0034  0.1540 -0.8932
19114TIP3    H278834   3.049   4.532  16.224  1.3656  2.3071 -1.0037
19115TIP3   OH278835   2.673   6.606   2.975 -0.1240  0.4513 -0.0443
19115TIP3    H178836   2.596   6.565   2.938 -1.9170  3.4369  0.0438
19115TIP3    H278837   2.642   6.650   3.054  1.4005  2.4085 -0.4260
19116TIP3   OH278838   3.835   3.050  13.904  0.0130  0.5023 -0.0810
19116TIP3    H178839   3.878   2.981  13.954 -0.0609  0.8938  0.5330
19116TIP3    H278840   3.748   3.059  13.944 -0.0306  0.8521 -0.2461
19117TIP3   OH278841   3.872   0.027   4.565  0.0993 -0.0157 -0.1896
19117TIP3    H178842   3.884  -0.062   4.534 -0.3600  0.2097 -1.0594
19117TIP3    H278843   3.957   0.053   4.600  0.3121 -0.6898 -0.2103
19118TIP3   OH278844   1.436   2.190   0.236 -0.6787 -0.3778  0.0616
19118TIP3    H178845   1.389   2.127   0.290 -0.2421  0.1182  1.0519
19118TIP3    H278846   1.418   2.275   0.277 -0.2973  0.0104 -0.5476
19119TIP3   OH278847   4.082   1.288   0.732 -0.6593 -0.1250 -0.2391
19119TIP3    H178848   4.010   1.347   0.709 -0.2980  0.6562  0.5577
19119TIP3    H278849   4.135   1.283   0.652 -0.1335  1.4833 -0.0325
19120TIP3   OH278850   0.855   0.630  12.485  0.0882  0.3290  0.4525
19120TIP3    H178851   0.882   0.722  12.485  0.0786  0.3409  1.4593
19120TIP3    H278852   0.761   0.633  12.504 -0.4156  0.2168 -1.7527
19121TIP3   OH278853   2.396   5.194   4.861  0.2794  0.1800 -0.1721
19121TIP3    H178854   2.405   5.289   4.859  2.6832  0.1470  2.6551
19121TIP3    H278855   2.370   5.174   4.951 -2.3881 -1.7823 -1.2728
19122TIP3   OH278856   3.266   6.540  16.871 -0.4010  0.4091  0.7599
19122TIP3    H178857   3.209   6.464  16.860 -0.0062  0.1424  0.5176
19122TIP3    H278858   3.324   6.538  16.795  0.3774  0.2869  1.3440
19123TIP3   OH278859   1.018   2.797  12.011  0.5485  0.2189 -0.1130
19123TIP3    H178860   1.025   2.717  12.063 -0.8566 -0.0599 -0.3105
19123TIP3    H278861   1.002   2.866  12.076 -2.4947 -0.3060 -0.1433
19124TIP3   OH278862   4.887   0.226   2.211  0.0879 -0.3386  0.3107
19124TIP3    H178863   4.957   0.281   2.175  1.4721 -0.8319  2.0731
19124TIP3    H278864   4.882   0.252   2.303  0.1051 -2.4364  0.9503
19125TIP3   OH278865   3.372   5.951   3.237  0.5904 -0.5539 -0.6236
19125TIP3    H178866   3.388   5.909   3.152  1.1100  0.6474 -1.1513
19125TIP3    H278867   3.378   6.045   3.218  0.0902 -0.2536  0.6286
19126TIP3   OH278868   5.717   1.506  12.448  0.6770  0.2282 -0.6399
19126TIP3    H178869   5.635   1.480  12.490  0.3374  1.5528 -0.4303
19126TIP3    H278870   5.750   1.426  12.407 -1.3000 -0.0821 -1.7247
19127TIP3   OH278871   1.023   5.984   5.753  0.3988 -0.9141 -0.1406
19127TIP3    H178872   1.047   5.912   5.811 -0.2473  0.1048  1.4320
19127TIP3    H278873   1.107   6.019   5.722  0.7427 -1.5672  0.0308
19128TIP3   OH278874   5.847   0.521   5.758  0.3605 -0.2117  0.2651
19128TIP3    H178875   5.902   0.597   5.779 -0.3081  1.7508 -3.9528
19128TIP3    H278876   5.757   0.555   5.762 -0.0717 -1.3192  0.1902
19129TIP3   OH278877   5.892   3.945   4.921 -0.2872 -0.0320  0.1830
19129TIP3    H178878   5.956   4.016   4.926  0.2866 -0.5553  0.4992
19129TIP3    H278879   5.935   3.877   4.869 -1.3637  0.3755 -1.3223
19130TIP3   OH278880   5.247   6.229   2.362  0.2810  0.6208  0.4202
19130TIP3    H178881   5.238   6.324   2.365 -1.5606  0.4921  0.2144
19130TIP3    H278882   5.171   6.199   2.312  0.3453 -1.0248  1.2270
19131TIP3   OH278883   1.616   4.311  12.673  0.4830 -0.5374  0.0992
19131TIP3    H178884   1.634   4.235  12.617 -2.5869 -1.3025 -0.0716
19131TIP3    H278885   1.583   4.274  12.754  0.4736  0.5943  0.6349
19132TIP3   OH278886   6.457   5.829   5.166 -0.4379  0.3709 -0.1019
19132TIP3    H178887   6.470   5.900   5.104 -1.3105  0.3608 -0.3123
19132TIP3    H278888   6.541   5.783   5.168  0.0636  1.2502 -0.1479
19133TIP3   OH278889   5.315   4.626  16.789 -0.2524 -0.1422 -0.0910
19133TIP3    H178890   5.233   4.628  16.741 -0.5418  0.6928  0.4266
19133TIP3    H278891   5.355   4.712  16.773  0.0042 -0.1353  0.5290
19134TIP3   OH278892   3.813   0.049  12.845 -0.1319  0.3747 -0.0747
19134TIP3    H178893   3.734   0.050  12.899 -0.5726  0.8870 -0.7073
19134TIP3    H278894   3.789  -0.004  12.768  0.2802  0.1773 -0.0715
19135TIP3   OH278895   4.774   6.232  16.488 -0.7057  0.5171 -0.3066
19135TIP3    H178896   4.712   6.179  16.537  0.6068 -1.0653 -0.2765
19135TIP3    H278897   4.721   6.278  16.423 -1.8085 -1.5207 -0.9233
19136TIP3   OH278898   4.062   5.329   5.924  0.2371 -0.2870 -0.2807
19136TIP3    H178899   4.029   5.418   5.912 -0.0043 -0.4038 -0.5044
19136TIP3    H278900   4.018   5.278   5.856  0.5916 -0.5215 -0.3330
19137TIP3   OH278901   2.955   0.523   5.793  0.3909 -0.3578 -0.0452
19137TIP3    H178902   2.958   0.528   5.889 -0.8175 -0.2824  0.0001
19137TIP3    H278903   2.969   0.431   5.773  0.8043 -0.3492  0.1893
19138TIP3   OH278904   0.322   3.020   6.356  0.4399 -0.0612  0.3171
19138TIP3    H178905   0.332   2.943   6.412 -1.2503 -1.7009 -1.4717
19138TIP3    H278906   0.402   3.023   6.305  1.0764  0.1946  1.2998
19139TIP3   OH278907   6.176   1.575   6.015 -0.5614 -0.0917  0.5570
19139TIP3    H178908   6.194   1.500   6.072 -0.0647 -0.9628 -0.6976
19139TIP3    H278909   6.101   1.548   5.962  1.6053 -1.1312 -2.2173
19140TIP3   OH278910   5.254   1.336  15.090  0.5528 -0.4167 -0.0958
19140TIP3    H178911   5.335   1.289  15.070  0.0738 -0.2574 -2.8794
19140TIP3    H278912   5.187   1.292  15.038 -0.4195  1.6426 -0.6959
19141TIP3   OH278913   3.205   6.310  16.227  0.6114 -0.1091  0.4979
19141TIP3    H178914   3.197   6.334  16.135 -1.2007 -0.0952  0.6226
19141TIP3    H278915   3.241   6.388  16.270  2.2828 -0.4026 -0.2911
19142TIP3   OH278916   5.907   5.265   0.720 -0.7701  0.2657  0.0134
19142TIP3    H178917   5.861   5.232   0.643 -0.3916  0.0963 -0.1443
19142TIP3    H278918   5.984   5.309   0.685  0.3636 -1.3617  0.3573
19143TIP3   OH278919   3.832   5.938  16.811  0.2469 -0.5806 -0.0624
19143TIP3    H178920   3.845   5.847  16.783  2.8520 -0.1384 -0.5805
19143TIP3    H278921   3.853   5.936  16.905 -1.6329 -0.8225  0.3819
19144TIP3   OH278922   0.644   0.527   2.482 -0.2136 -0.0477  0.0264
19144TIP3    H178923   0.643   0.495   2.572 -0.2144 -1.3776 -0.4333
19144TIP3    H278924   0.679   0.616   2.489  0.7843 -0.5115  1.2168
19145TIP3   OH278925   2.611   2.995   5.397 -0.0714  0.5638  0.4700
19145TIP3    H178926   2.547   2.940   5.352 -0.1283  0.2403  0.9463
19145TIP3    H278927   2.569   3.019   5.479  1.1882 -1.3867  1.7760
19146TIP3   OH278928   3.282   3.891   5.240  0.1340 -0.1839 -0.7855
19146TIP3    H178929   3.292   3.796   5.235  1.2472 -0.0148 -3.7393
19146TIP3    H278930   3.370   3.925   5.227  0.0673  1.3311  1.9657
19147TIP3   OH278931   0.641   0.942   6.403 -0.1844 -0.2837  0.0416
19147TIP3    H178932   0.590   0.979   6.331 -3.3171 -1.3571  1.5344
19147TIP3    H278933   0.677   1.018   6.449 -0.7615  0.5400 -0.8317
19148TIP3   OH278934   0.362   3.522  16.930 -0.6717 -0.5469 -0.3055
19148TIP3    H178935   0.451   3.557  16.921 -1.4234  2.0398  1.3074
19148TIP3    H278936   0.321   3.536  16.845 -0.3517  0.8154 -0.2553
19149TIP3   OH278937   6.076   6.665   1.861 -0.0104  0.4524 -0.3754
19149TIP3    H178938   6.106   6.582   1.898  0.6493  0.8127 -0.0913
19149TIP3    H278939   6.092   6.729   1.930  0.6357  1.0298 -1.0500
19150TIP3   OH278940   4.664   4.609   1.347 -0.3831  0.0449  0.5570
19150TIP3    H178941   4.696   4.577   1.263 -1.6655  1.0378 -0.3520
19150TIP3    H278942   4.724   4.680   1.371 -1.0226  0.9455 -0.4297
19151TIP3   OH278943   4.155   4.817  13.987 -0.3081 -0.2050 -0.2285
19151TIP3    H178944   4.219   4.850  13.924 -0.6633  0.4398 -0.2565
19151TIP3    H278945   4.153   4.723  13.972  2.4918 -0.6556  1.4647
19152TIP3   OH278946   1.282   5.644   2.993 -0.8036 -0.2018  0.0639
19152TIP3    H178947   1.372   5.658   2.962 -0.8476 -1.3139 -0.6102
19152TIP3    H278948   1.281   5.680   3.081 -0.3335  1.9701 -0.7398
19153TIP3   OH278949   1.620   2.731   2.708 -0.1283 -0.1117 -0.1281
19153TIP3    H178950   1.693   2.793   2.714  0.3363 -0.3072 -2.6257
19153TIP3    H278951   1.584   2.746   2.621 -1.6868 -1.5687  0.2185
19154TIP3   OH278952   5.267   1.182  11.962 -0.4086  0.0327 -0.1316
19154TIP3    H178953   5.219   1.107  11.998 -1.7067  1.5597  1.5115
19154TIP3    H278954   5.359   1.160  11.978 -0.8350 -0.4113  2.1699
19155TIP3   OH278955   0.827   2.475   4.805  0.0976  0.2011  0.2409
19155TIP3    H178956   0.830   2.404   4.741 -0.5259  0.7809 -0.4499
19155TIP3    H278957   0.734   2.490   4.820  0.2277  0.6308  0.6517
19156TIP3   OH278958   3.814   5.035   2.494  0.8556  0.2777 -0.6740
19156TIP3    H178959   3.726   5.063   2.469  1.7199  1.9035 -2.1039
19156TIP3    H278960   3.834   5.088   2.572  0.8812  0.5001 -0.8327
19157TIP3   OH278961   2.277   6.748  16.941  0.1588 -0.1486  0.6857
19157TIP3    H178962   2.215   6.686  16.978 -0.3513  0.4824  0.9078
19157TIP3    H278963   2.253   6.832  16.979 -1.8752  0.9782 -2.6894
19158TIP3   OH278964   1.728   1.526   4.362 -0.0267  0.5138  0.0144
19158TIP3    H178965   1.815   1.561   4.383 -0.5883  3.6920 -2.1792
19158TIP3    H278966   1.687   1.512   4.447  2.3537 -0.4434  1.0920
19159TIP3   OH278967   3.897   6.205  12.678  0.3971 -0.2531  0.4646
19159TIP3    H178968   3.898   6.136  12.745  0.1134  0.9319  1.7160
19159TIP3    H278969   3.984   6.245  12.684  1.2217 -1.5623 -1.4639
19160TIP3   OH278970   6.629   4.527  13.441  0.5410  0.0188 -0.8630
19160TIP3    H178971   6.557   4.529  13.504 -1.4060 -1.0112 -2.9243
19160TIP3    H278972   6.656   4.619  13.432  0.6597  0.2218  1.1633
19161TIP3   OH278973   5.074   4.155  10.739  0.0978  0.3447  1.0469
19161TIP3    H178974   5.160   4.119  10.760  1.1279  1.0113 -1.6431
19161TIP3    H278975   5.016   4.079  10.740  0.9271 -0.3045  1.8020
19162TIP3   OH278976   3.785   0.925   0.725  0.0100 -0.1923 -0.4062
19162TIP3    H178977   3.693   0.926   0.751  0.0619 -0.2792 -0.2154
19162TIP3    H278978   3.784   0.943   0.631 -0.1788  0.1513 -0.3404
19163TIP3   OH278979   3.835   1.986   1.138 -0.4228  0.4397  0.0456
19163TIP3    H178980   3.800   2.060   1.089 -2.8517 -1.2685 -1.0089
19163TIP3    H278981   3.816   2.006   1.229 -1.6628  0.8574 -0.2874
19164TIP3   OH278982   2.904   1.653   4.097 -0.1662 -0.0645 -0.3432
19164TIP3    H178983   2.907   1.597   4.174 -1.1168 -0.5799 -0.6724
19164TIP3    H278984   2.827   1.708   4.109  0.5936  0.9788 -0.1639
19165TIP3   OH278985   6.717   0.732   4.875 -0.3310  0.6769  0.2541
19165TIP3    H178986   6.667   0.735   4.793 -0.5464 -1.0866  0.2659
19165TIP3    H278987   6.746   0.822   4.890  1.9035  0.6878 -3.0856
19166TIP3   OH278988   2.337   5.524   5.615 -0.2780  0.0279  0.9102
19166TIP3    H178989   2.356   5.565   5.700  1.3735  0.9287  0.1487
19166TIP3    H278990   2.355   5.592   5.551 -3.5592  0.0665 -0.1438
19167TIP3   OH278991   2.842   3.185   2.948 -0.2496 -0.3701 -0.4958
19167TIP3    H178992   2.813   3.244   2.878 -1.1185  0.3980  0.4796
19167TIP3    H278993   2.762   3.163   2.995  0.2722 -1.1715  0.0430
19168TIP3   OH278994   6.569   0.655  15.065  0.2763  0.3221  0.1704
19168TIP3    H178995   6.516   0.721  15.020  0.3094  0.7067  0.6884
19168TIP3    H278996   6.504   0.600  15.109  0.2811  0.5149  0.4233
19169TIP3   OH278997   2.751   5.464   1.162  0.4562  0.4301 -0.3478
19169TIP3    H178998   2.704   5.544   1.140  1.0199  0.7359 -0.4647
19169TIP3    H278999   2.786   5.479   1.250  0.2456  0.1646 -0.2174
19170TIP3   OH279000   3.842   2.578  15.565 -0.3531  0.1811 -0.3482
19170TIP3    H179001   3.936   2.569  15.580 -0.1269  2.7766  0.3137
19170TIP3    H279002   3.802   2.508  15.616  1.0958  1.0009  2.1025
19171TIP3   OH279003   6.106   3.126   5.539  0.2710  0.0709 -0.1458
19171TIP3    H179004   6.146   3.203   5.499  0.8083  1.3082  2.5743
19171TIP3    H279005   6.177   3.062   5.546  0.5237  0.3784  0.1067
19172TIP3   OH279006   1.520   6.383  12.066  0.0480 -0.5866 -0.1524
19172TIP3    H179007   1.508   6.302  12.116  0.6596 -0.1002  0.8375
19172TIP3    H279008   1.474   6.450  12.118 -0.3604 -0.2792 -0.8996
19173TIP3   OH279009   2.359   2.686  16.295 -0.1023 -0.2119 -0.3650
19173TIP3    H179010   2.411   2.662  16.218  0.3392 -0.6443  0.0620
19173TIP3    H279011   2.271   2.655  16.276  0.4482 -2.2007  0.1623
19174TIP3   OH279012   4.012   6.245  14.394 -0.0018  0.6837  0.2582
19174TIP3    H179013   4.013   6.207  14.306 -2.4154 -1.6494  1.1146
19174TIP3    H279014   3.959   6.324  14.385 -3.3766 -1.4190  0.1295
19175TIP3   OH279015   6.385   6.692  12.250 -0.3595 -0.6125 -0.1264
19175TIP3    H179016   6.350   6.656  12.331 -0.8652 -0.8838 -0.4627
19175TIP3    H279017   6.341   6.777  12.240  0.0506 -0.3657  0.1194
19176TIP3   OH279018   3.198   1.440  17.058  0.2567 -0.5139 -0.5186
19176TIP3    H179019   3.155   1.405  17.136  3.7030 -2.3610  0.7769
19176TIP3    H279020   3.154   1.398  16.984 -1.6379 -0.4114  0.4958
19177TIP3   OH279021   3.814   1.757  13.870  0.5760 -0.3234  0.1097
19177TIP3    H179022   3.741   1.815  13.890  1.4460 -0.0136  2.8181
19177TIP3    H279023   3.815   1.752  13.774 -2.2914  0.4789 -0.0561
19178TIP3   OH279024   5.592   2.014   5.502 -0.4015  0.5646 -0.0211
19178TIP3    H179025   5.564   2.022   5.594 -0.1709  0.9375  0.0184
19178TIP3    H279026   5.554   1.931   5.473 -0.8471  0.6573  0.2828
19179TIP3   OH279027   6.809   4.590   1.437 -0.3538 -0.5207 -0.2696
19179TIP3    H179028   6.853   4.505   1.437 -1.5586 -1.1617 -0.5283
19179TIP3    H279029   6.797   4.611   1.344  1.8515  0.9900 -0.3014
19180TIP3   OH279030   1.195   0.598   3.206 -0.1708 -0.5717 -0.4196
19180TIP3    H179031   1.191   0.559   3.294 -0.3241  0.6797  0.1426
19180TIP3    H279032   1.282   0.638   3.201 -0.8736  1.0839 -0.0618
19181TIP3   OH279033   1.820   5.924   2.631 -0.1670  0.0854 -0.1032
19181TIP3    H179034   1.850   5.854   2.689  2.0527  0.5218 -0.6156
19181TIP3    H279035   1.744   5.962   2.676  0.7628 -0.3510  1.9479
19182TIP3   OH279036   5.550   3.258   3.274  0.0266  0.7951  0.3986
19182TIP3    H179037   5.499   3.275   3.194 -0.8519 -0.8175  0.5798
19182TIP3    H279038   5.487   3.272   3.345 -0.4489 -1.8882  0.6007
19183TIP3   OH279039   1.697   4.867  14.972 -0.0226 -0.5093 -0.7998
19183TIP3    H179040   1.663   4.845  14.885 -0.0582 -1.7329 -0.4895
19183TIP3    H279041   1.774   4.921  14.955 -0.1790 -0.5202 -1.5853
19184TIP3   OH279042   3.355   4.902  12.990  0.0334 -0.1683 -0.3545
19184TIP3    H179043   3.372   4.811  13.013 -0.3851 -0.5051 -1.3329
19184TIP3    H279044   3.373   4.951  13.071  0.1586 -1.1231  0.2099
19185TIP3   OH279045   3.162   1.266  15.134 -0.0832  0.1948  0.2470
19185TIP3    H179046   3.237   1.327  15.133 -0.8536  1.2007 -1.7196
19185TIP3    H279047   3.100   1.306  15.196  0.0863  0.5513  0.1927
19186TIP3   OH279048   1.134   1.475   3.686 -0.5220 -0.8115  0.4315
19186TIP3    H179049   1.140   1.478   3.781 -0.5448  0.5409  0.4117
19186TIP3    H279050   1.090   1.556   3.662  1.6483  0.0903 -0.8552
19187TIP3   OH279051   1.812   0.097   3.002 -0.2176  0.0021 -0.4361
19187TIP3    H179052   1.899   0.058   2.993  0.1770  1.0439 -1.3558
19187TIP3    H279053   1.780   0.064   3.086  0.4373 -1.6017 -0.7634
19188TIP3   OH279054   0.882   0.405   1.976  0.3252  0.0133 -0.4766
19188TIP3    H179055   0.857   0.486   1.931 -0.0838  0.6923  0.9226
19188TIP3    H279056   0.963   0.377   1.932  1.2545  1.9347 -0.1034
19189TIP3   OH279057   1.830   3.757  16.960  0.5038 -0.1693 -0.2566
19189TIP3    H179058   1.793   3.830  17.009  1.0655  0.3287 -0.5529
19189TIP3    H279059   1.850   3.691  17.027 -2.0082 -0.9759 -0.2119
19190TIP3   OH279060   5.842   4.586   1.994 -0.3568  0.4602  0.1520
19190TIP3    H179061   5.926   4.580   1.948 -1.0087  1.8654 -1.3188
19190TIP3    H279062   5.819   4.678   1.990 -1.5317  0.2468  1.3802
19191TIP3   OH279063   2.087   3.315   0.183  0.1404  0.5940  0.0571
19191TIP3    H179064   2.092   3.351   0.271 -1.4524  2.1491 -0.4399
19191TIP3    H279065   2.135   3.376   0.128 -1.2032  1.1698 -0.5409
19192TIP3   OH279066   2.532   2.155   1.761  0.1800  0.0295  0.5410
19192TIP3    H179067   2.503   2.147   1.670  2.0368  1.7695 -0.2729
19192TIP3    H279068   2.543   2.249   1.774  2.9764 -0.3391  1.5243
19193TIP3   OH279069   2.849   4.778   3.004 -0.4980  0.8831  0.5098
19193TIP3    H179070   2.774   4.722   3.027 -0.4346  0.7689  0.4371
19193TIP3    H279071   2.924   4.734   3.043 -0.3380  0.5020 -0.1919
19194TIP3   OH279072   2.342   4.463   2.730  0.2274  0.0691 -0.1474
19194TIP3    H179073   2.335   4.552   2.765  0.0866  0.8626 -2.0904
19194TIP3    H279074   2.429   4.458   2.692  0.1625 -0.5765 -0.2252
19195TIP3   OH279075   4.771   4.820   3.511 -0.4407  0.7991 -0.4265
19195TIP3    H179076   4.718   4.741   3.519  2.3333 -1.0370  1.5106
19195TIP3    H279077   4.814   4.812   3.426  2.4188 -1.7085  1.0772
19196TIP3   OH279078   6.133   2.387  11.110  0.1209  0.2649 -0.4778
19196TIP3    H179079   6.168   2.301  11.088 -0.6459  0.0599 -0.9136
19196TIP3    H279080   6.208   2.435  11.145  0.7857 -0.2462 -1.1693
19197TIP3   OH279081   2.625   2.263   0.176 -0.1727 -0.5588 -0.2454
19197TIP3    H179082   2.534   2.235   0.184 -0.6960  0.9502 -0.7410
19197TIP3    H279083   2.628   2.349   0.217  0.4015  0.6290 -2.6145
19198TIP3   OH279084   0.659   3.616  15.240  0.0566  0.6768  0.1308
19198TIP3    H179085   0.670   3.522  15.253 -0.4434  0.5916 -0.0672
19198TIP3    H279086   0.749   3.649  15.228  0.2401  0.2432  0.2896
19199TIP3   OH279087   1.787   6.118   2.294 -0.2910  0.7317 -0.3131
19199TIP3    H179088   1.693   6.130   2.306 -0.3873 -0.2521  0.0489
19199TIP3    H279089   1.826   6.198   2.328 -0.9085  0.3734  1.3925
19200TIP3   OH279090   3.910   3.129   3.356  0.3879  0.2680 -0.6555
19200TIP3    H179091   3.963   3.071   3.411  0.9815  1.6354  0.2616
19200TIP3    H279092   3.969   3.154   3.284  0.0678 -0.4043 -1.1603
19201TIP3   OH279093   5.514   4.800   3.216 -0.3386 -0.3930  0.0564
19201TIP3    H179094   5.512   4.895   3.228  0.1953 -0.2705 -0.7116
19201TIP3    H279095   5.534   4.765   3.303 -3.4843 -0.0257  1.0662
19202TIP3   OH279096   2.526   4.727   4.910  0.6439  0.1691 -0.0284
19202TIP3    H179097   2.569   4.652   4.867  1.3351  0.0205  0.9010
19202TIP3    H279098   2.583   4.801   4.891  1.5626 -0.1027  1.5487
19203TIP3   OH279099   4.858   5.218   4.949 -0.0533 -0.0846  0.2905
19203TIP3    H179100   4.858   5.295   4.892 -0.2284  0.2165  0.6872
19203TIP3    H279101   4.880   5.253   5.036  3.1317 -0.8987 -0.0702
19204TIP3   OH279102   5.959   4.979   4.669  0.2510 -0.0193  0.1993
19204TIP3    H179103   5.995   5.006   4.584  1.0109 -0.8136  0.2547
19204TIP3    H279104   5.885   5.038   4.683 -0.8847 -0.8493 -1.7489
19205TIP3   OH279105   3.418   3.830   3.210 -0.2197 -0.0832 -0.6442
19205TIP3    H179106   3.472   3.763   3.252  1.5762  1.3758 -0.4798
19205TIP3    H279107   3.362   3.863   3.279  1.3801  0.9755  0.2162
19206TIP3   OH279108   3.580   0.579   6.463 -0.6686 -0.3782 -0.1747
19206TIP3    H179109   3.521   0.505   6.452  0.2533 -1.0482 -0.6387
19206TIP3    H279110   3.630   0.583   6.382 -1.1674  1.1865 -0.4500
19207TIP3   OH279111   4.841   2.578  16.593  0.2953 -0.0571 -0.0497
19207TIP3    H179112   4.917   2.565  16.651 -1.2871 -1.2316  1.8952
19207TIP3    H279113   4.819   2.670  16.602  0.6325 -0.0267  0.5050
19208TIP3   OH279114   3.310   4.080  14.385 -0.0786  0.5673  0.2804
19208TIP3    H179115   3.252   4.080  14.309  0.0519 -0.8694  0.1626
19208TIP3    H279116   3.398   4.081  14.348 -0.0168  0.0653  0.4054
19209TIP3   OH279117   0.157   1.253   4.376  0.1708  0.8619  0.4036
19209TIP3    H179118   0.174   1.348   4.378  0.2754  0.8969 -1.0612
19209TIP3    H279119   0.243   1.214   4.359 -0.3016  0.7213 -1.9673
19210TIP3   OH279120   6.375   3.059  13.423  0.2836  0.0999 -0.5268
19210TIP3    H179121   6.435   3.041  13.495 -0.4213  1.6813  0.5224
19210TIP3    H279122   6.432   3.074  13.347  1.0819 -0.7544 -0.1035
19211TIP3   OH279123   5.475   0.243   3.773 -0.1224 -0.0399 -0.2533
19211TIP3    H179124   5.430   0.267   3.692 -0.3770 -0.6277 -0.2910
19211TIP3    H279125   5.568   0.239   3.749 -0.1589  0.1548 -0.4262
19212TIP3   OH279126   4.095   3.252  16.946 -0.0071 -0.2194 -0.2164
19212TIP3    H179127   4.164   3.195  16.980  0.4110 -0.2081 -1.0215
19212TIP3    H279128   4.023   3.192  16.924 -1.6454  0.0078  3.6304
19213TIP3   OH279129   4.174   6.730  17.092  0.2936  0.0055 -0.1414
19213TIP3    H179130   4.155   6.751  17.183 -1.3248  0.2065 -0.4966
19213TIP3    H279131   4.202   6.813  17.053  0.9043 -0.0623  0.1535
19214TIP3   OH279132   5.844   2.775   0.084  0.0570  0.7091  0.0238
19214TIP3    H179133   5.759   2.731   0.085  1.0834 -1.3748  0.9580
19214TIP3    H279134   5.880   2.761   0.171  2.0334  0.1035 -0.8254
19215TIP3   OH279135   1.612   0.509  12.014  0.2885 -0.5301 -0.2414
19215TIP3    H179136   1.624   0.514  11.919  0.9990 -0.3314 -0.1419
19215TIP3    H279137   1.700   0.511  12.050 -0.0069  0.1300  0.4666
19216TIP3   OH279138   2.460   6.655  16.499 -0.2129  0.0650 -0.2359
19216TIP3    H179139   2.527   6.708  16.455  2.0397  0.0086  2.8147
19216TIP3    H279140   2.423   6.601  16.430  2.8851  0.1370 -2.1346
19217TIP3   OH279141   6.131   4.224  17.025  0.2963 -0.7905 -0.1045
19217TIP3    H179142   6.091   4.311  17.028 -0.9929 -1.2714 -1.8084
19217TIP3    H279143   6.057   4.163  17.031  1.0190 -1.7488 -0.6381
19218TIP3   OH279144   3.296   1.042   4.374 -0.1203  0.7230 -0.2626
19218TIP3    H179145   3.337   0.956   4.365 -1.0760  0.2788 -0.5764
19218TIP3    H279146   3.331   1.078   4.455  2.4241  1.2593 -1.4896
19219TIP3   OH279147   2.324   3.108   2.496  0.0830  0.2825 -0.0967
19219TIP3    H179148   2.330   3.162   2.418  1.2384  0.0342 -0.1982
19219TIP3    H279149   2.231   3.112   2.521 -0.3853  0.0644 -1.6818
19220TIP3   OH279150   1.108   6.114  17.212  0.3116 -0.1026 -0.2726
19220TIP3    H179151   1.031   6.129  17.267  0.5720 -1.3615  0.4838
19220TIP3    H279152   1.074   6.071  17.134  0.3411 -1.5599  0.4967
19221TIP3   OH279153   2.700   1.070   4.577  0.2795 -0.5016 -0.2104
19221TIP3    H179154   2.736   1.117   4.502  1.4705 -2.7294 -1.1038
19221TIP3    H279155   2.742   1.110   4.653  0.2639  0.7102 -0.8167
19222TIP3   OH279156   5.929   2.034  15.284 -0.6541  0.1108  0.2031
19222TIP3    H179157   5.888   2.000  15.205  0.6920  0.4323 -0.6798
19222TIP3    H279158   5.875   2.001  15.356 -1.1221 -1.3387 -0.7669
19223TIP3   OH279159   4.146   5.436   4.408 -0.1276 -0.2312 -0.1176
19223TIP3    H179160   4.092   5.510   4.380 -1.6999 -0.2791  2.5164
19223TIP3    H279161   4.098   5.359   4.379  0.3564 -0.2693 -0.8510
19224TIP3   OH279162   4.580   4.273  13.900 -0.1375 -0.4212 -0.3317
19224TIP3    H179163   4.609   4.359  13.868 -1.1661 -0.1626 -0.6075
19224TIP3    H279164   4.512   4.247  13.839 -0.0371 -1.3104 -0.0724
19225TIP3   OH279165   5.087   3.385   1.455  0.6489 -0.3385 -0.3169
19225TIP3    H179166   5.051   3.315   1.400 -0.4906 -0.2121  0.2503
19225TIP3    H279167   5.092   3.348   1.542  3.1794 -0.7932 -0.5732
19226TIP3   OH279168   2.755   2.059  12.248 -0.3697 -0.6571 -0.6801
19226TIP3    H179169   2.777   2.085  12.337 -0.9790 -2.0225 -0.1172
19226TIP3    H279170   2.828   2.093  12.195 -0.3475  0.7605  0.2230
19227TIP3   OH279171   3.281   2.780  17.156  0.3409 -0.0267 -0.0045
19227TIP3    H179172   3.310   2.785  17.247 -0.3988 -1.7760  0.3701
19227TIP3    H279173   3.345   2.722  17.114  0.8716  1.0356 -0.7056
19228TIP3   OH279174   6.609   3.987  13.386 -0.0303  0.1329 -0.2757
19228TIP3    H179175   6.586   3.905  13.429 -2.3278  0.4066 -0.8881
19228TIP3    H279176   6.686   3.965  13.333  0.7223 -1.0524  1.2319
19229TIP3   OH279177   6.723   1.718  15.894  0.3275  0.9934 -0.3581
19229TIP3    H179178   6.693   1.658  15.962  0.5692 -0.4543 -1.4901
19229TIP3    H279179   6.654   1.718  15.829  0.6836  1.3394 -0.7464
19230TIP3   OH279180   4.971   4.189   2.428 -0.1971  0.3266  0.8134
19230TIP3    H179181   4.963   4.168   2.521  0.4347 -0.4833  0.7023
19230TIP3    H279182   4.908   4.259   2.413 -2.3060 -1.4087  1.2447
19231TIP3   OH279183   0.151   1.119  15.483  0.3533 -0.4972  0.3650
19231TIP3    H179184   0.192   1.193  15.439  0.7225  0.9666  3.0057
19231TIP3    H279185   0.061   1.119  15.450  0.2268  1.4176  0.5963
19232TIP3   OH279186   0.876   3.549   1.236  0.1386  0.1659 -0.6302
19232TIP3    H179187   0.963   3.542   1.275  0.0512  0.4905 -0.3723
19232TIP3    H279188   0.845   3.459   1.230 -0.7737  0.2216  2.1755
19233TIP3   OH279189   3.858   2.428   5.283 -0.4647 -0.0000 -0.7226
19233TIP3    H179190   3.912   2.382   5.347 -1.0073  1.1794  0.6292
19233TIP3    H279191   3.861   2.520   5.310  0.0822  0.7267 -2.9700
19234TIP3   OH279192   0.549   4.081  14.938  0.0693 -0.1968 -0.1401
19234TIP3    H179193   0.631   4.115  14.903 -0.0875 -0.9205 -1.2845
19234TIP3    H279194   0.505   4.042  14.862 -0.7006 -1.0498  0.7121
19235TIP3   OH279195   3.321   0.615  16.738  0.2737  0.0775 -0.2129
19235TIP3    H179196   3.306   0.523  16.715  0.0175  0.4465 -1.6134
19235TIP3    H279197   3.410   0.617  16.771 -0.0363 -0.8304  0.7400
19236TIP3   OH279198   5.508   3.419   4.405 -0.4349  0.3780  0.5375
19236TIP3    H179199   5.503   3.507   4.444 -1.1839  0.2635  0.7243
19236TIP3    H279200   5.559   3.368   4.468  0.7362  0.8803  0.0212
19237TIP3   OH279201   4.529   5.212  14.853  0.3936 -0.1261 -0.4313
19237TIP3    H179202   4.611   5.261  14.857  0.3707 -0.1463  1.4805
19237TIP3    H279203   4.550   5.127  14.892 -0.0977 -0.8402 -1.6839
19238TIP3   OH279204   4.208   2.601  14.328 -0.0977  0.2631  0.1341
19238TIP3    H179205   4.139   2.557  14.377  1.2736 -1.4784  0.6089
19238TIP3    H279206   4.277   2.535  14.321  1.1965  1.6903 -0.9941
19239TIP3   OH279207   0.633   2.455   1.315  0.0682  0.6209  0.1232
19239TIP3    H179208   0.658   2.363   1.322 -2.8163 -0.7175 -3.5942
19239TIP3    H279209   0.703   2.496   1.264 -0.6290 -0.7703 -2.1203
19240TIP3   OH279210   2.654   0.438  14.069  0.7551  0.3042 -0.4920
19240TIP3    H179211   2.574   0.408  14.112  0.7679 -0.5511 -1.0569
19240TIP3    H279212   2.627   0.463  13.981  0.8150  1.6116 -0.1555
19241TIP3   OH279213   5.066   2.714   1.304  0.5089 -0.1250 -0.2067
19241TIP3    H179214   5.093   2.748   1.219  3.7008 -2.4097 -0.2938
19241TIP3    H279215   5.121   2.762   1.366 -0.1130 -0.1409  0.3681
19242TIP3   OH279216   3.265   3.478   0.444  0.1313  0.0836 -0.9000
19242TIP3    H179217   3.213   3.398   0.447  2.0070 -1.3477 -2.9574
19242TIP3    H279218   3.248   3.515   0.357  1.7406  0.1249 -1.2230
19243TIP3   OH279219   3.776   1.651   3.511 -0.2444 -0.5354 -0.1173
19243TIP3    H179220   3.727   1.597   3.573  1.4916 -0.4293  1.4127
19243TIP3    H279221   3.867   1.645   3.540  0.1602  2.4726 -0.4469
19244TIP3   OH279222   4.116   6.686  15.131 -0.2627  0.1290  0.2062
19244TIP3    H179223   4.188   6.738  15.096 -0.3226  1.1300  1.4902
19244TIP3    H279224   4.060   6.668  15.056  0.8267  0.1536 -0.6268
19245TIP3   OH279225   6.071   3.927   1.231 -0.2288 -0.1852 -0.3045
19245TIP3    H179226   6.000   3.871   1.202 -0.6883  0.1190  0.1975
19245TIP3    H279227   6.030   3.987   1.294  1.0173 -1.9860  2.4051
19246TIP3   OH279228   1.912   6.356   2.678 -0.5273  0.0988 -0.0754
19246TIP3    H179229   1.898   6.310   2.760  0.3266  2.6482  1.6122
19246TIP3    H279230   1.924   6.286   2.613 -0.1041 -2.0195  2.1460
19247TIP3   OH279231   3.670   3.492  15.677 -0.0879 -0.6240  0.5956
19247TIP3    H179232   3.637   3.528  15.758  1.1153  1.4551  0.2284
19247TIP3    H279233   3.655   3.560  15.611 -0.6535 -2.0790 -0.8807
19248TIP3   OH279234   5.193   0.802   0.416 -0.4386 -0.2393 -0.2254
19248TIP3    H179235   5.224   0.850   0.339  2.5682 -1.1877  0.2574
19248TIP3    H279236   5.250   0.725   0.420 -1.1402 -0.7022  2.4082
19249TIP3   OH279237   5.157   0.338  11.945  0.5077 -0.1526 -0.3120
19249TIP3    H179238   5.080   0.298  11.984 -0.4272  2.5098  0.7973
19249TIP3    H279239   5.218   0.265  11.930 -0.8138 -1.8595  2.0943
19250TIP3   OH279240   4.337   0.456  11.349  0.0339  0.1418 -0.3516
19250TIP3    H179241   4.307   0.460  11.440 -1.3807  0.5341 -0.8139
19250TIP3    H279242   4.274   0.509  11.300  1.2554  0.6299 -1.4494
19251TIP3   OH279243   5.970   3.863  15.511  0.2793 -0.3037  0.4772
19251TIP3    H179244   5.955   3.845  15.604  1.6908 -0.9226  0.6134
19251TIP3    H279245   5.947   3.955  15.500  0.1019 -0.2264  1.4351
19252TIP3   OH279246   6.278   4.618  14.434 -0.2679 -0.6740  0.2537
19252TIP3    H179247   6.292   4.550  14.500 -2.2021 -1.1514  0.2276
19252TIP3    H279248   6.184   4.638  14.439 -0.4192 -0.4963 -2.1485
19253TIP3   OH279249   1.163   3.661   4.199 -0.3173  0.2048 -0.1485
19253TIP3    H179250   1.089   3.685   4.255 -1.1537 -3.5358  0.5860
19253TIP3    H279251   1.123   3.625   4.120  0.8449  1.4741 -1.3863
19254TIP3   OH279252   4.220   5.950  13.776  0.0879  0.2717  0.8520
19254TIP3    H179253   4.274   6.029  13.785  2.4137 -1.3795  2.4739
19254TIP3    H279254   4.266   5.897  13.710 -1.1489  0.0065  0.1777
19255TIP3   OH279255   6.313   1.320  16.758  0.1844  0.6755  0.1540
19255TIP3    H179256   6.336   1.251  16.695  0.2359 -0.5362  1.4579
19255TIP3    H279257   6.273   1.389  16.704 -0.6499 -0.7223 -1.0901
19256TIP3   OH279258   0.538   3.278  13.881  0.0344 -1.1337  0.0268
19256TIP3    H179259   0.624   3.308  13.909 -1.0729 -0.2070  2.9091
19256TIP3    H279260   0.508   3.344  13.819 -0.1480  0.9038  2.1312
19257TIP3   OH279261   1.355   5.463  12.904  0.2127  0.3436  0.4053
19257TIP3    H179262   1.364   5.368  12.912  0.0958  0.3902  1.1841
19257TIP3    H279263   1.309   5.489  12.984  0.9493  1.1519  0.5723
19258TIP3   OH279264   3.429   0.653   0.753  0.5070  0.3482  0.0920
19258TIP3    H179265   3.384   0.586   0.702  0.3618  0.5355 -0.0272
19258TIP3    H279266   3.470   0.710   0.687  2.3772 -0.7907  0.2036
19259TIP3   OH279267   0.470   2.850  13.991  0.0811 -0.1683 -0.0958
19259TIP3    H179268   0.473   2.754  13.990 -0.5489 -0.1894 -0.4620
19259TIP3    H279269   0.528   2.875  14.064  0.0686 -0.8289  0.1476
19260TIP3   OH279270   5.526   3.266  14.594  0.1636  0.2499  0.0028
19260TIP3    H179271   5.568   3.337  14.546  1.4251 -0.5661 -0.1399
19260TIP3    H279272   5.564   3.186  14.558 -2.0144 -0.5901 -0.5953
19261TIP3   OH279273   1.956   6.795   5.087  0.1719 -0.0106  0.5814
19261TIP3    H179274   1.921   6.777   5.175 -1.9654  0.4829 -0.1229
19261TIP3    H279275   1.985   6.709   5.056 -1.3638 -0.6603  0.8316
19262TIP3   OH279276   0.388   0.978  13.616  0.0619  0.1799 -0.0013
19262TIP3    H179277   0.450   1.049  13.634  1.0501 -0.8889  1.0207
19262TIP3    H279278   0.424   0.935  13.538 -0.5046  0.7357 -0.5856
19263TIP3   OH279279   0.197   3.262  13.680 -0.3640 -0.8349  0.0229
19263TIP3    H179280   0.261   3.195  13.704  3.6071  2.1601 -1.1180
19263TIP3    H279281   0.205   3.271  13.585 -0.0530  1.7324  0.2044
19264TIP3   OH279282   2.155   6.206  13.692 -0.6682  0.2550  0.7261
19264TIP3    H179283   2.113   6.273  13.638 -0.6325 -0.2792  0.0246
19264TIP3    H279284   2.082   6.164  13.738 -0.8822 -0.3768 -0.1577
19265TIP3   OH279285   1.639   3.318  15.880 -0.4645  0.1643  0.7291
19265TIP3    H179286   1.601   3.235  15.851 -1.4533  0.7835  0.1904
19265TIP3    H279287   1.662   3.304  15.972 -1.3103 -0.4729  0.8529
19266TIP3   OH279288   3.388   4.855   2.313  0.8786  0.2711  0.1650
19266TIP3    H179289   3.377   4.901   2.230  3.0923  0.0009 -0.3422
19266TIP3    H279290   3.413   4.766   2.287  0.5020 -0.1280  1.1343
19267TIP3   OH279291   0.647   1.081  14.638 -0.0328 -0.1491 -0.5010
19267TIP3    H179292   0.721   1.083  14.577 -0.5703 -1.0353 -1.2035
19267TIP3    H279293   0.585   1.143  14.602 -0.1415 -0.3091 -0.5921
19268TIP3   OH279294   4.927   4.453  16.857 -0.0282 -0.3316 -0.2698
19268TIP3    H179295   4.885   4.534  16.884 -1.2695 -1.1914  0.4722
19268TIP3    H279296   4.917   4.394  16.931  0.8744 -1.1757 -0.7848
19269TIP3   OH279297   1.481   4.975   5.136  0.1258 -0.3702  0.3427
19269TIP3    H179298   1.470   4.972   5.231 -0.0534 -0.9881  0.3087
19269TIP3    H279299   1.576   4.979   5.123  0.3864 -3.4894  0.5175
19270TIP3   OH279300   2.771   2.855  13.076 -0.4737  0.3257 -0.2896
19270TIP3    H179301   2.735   2.874  13.163  0.8103  0.7291  0.1765
19270TIP3    H279302   2.809   2.768  13.085  3.2897  1.8561  0.8738
19271TIP3   OH279303   2.100   1.225   2.360  0.3209  0.8110 -0.2728
19271TIP3    H179304   2.075   1.159   2.425  0.9968  1.5047  0.7146
19271TIP3    H279305   2.016   1.262   2.330  0.0326  1.7429  1.5601
19272TIP3   OH279306   3.943   2.196  11.378 -0.0666 -0.0189 -0.5586
19272TIP3    H179307   3.915   2.163  11.464 -2.0046 -0.8114 -1.4251
19272TIP3    H279308   3.950   2.117  11.324 -1.4722  0.6424 -1.7945
19273TIP3   OH279309   3.500   1.630   4.214 -0.3553  0.4965 -0.8515
19273TIP3    H179310   3.476   1.666   4.300 -1.9477  0.4667 -1.2431
19273TIP3    H279311   3.567   1.689   4.181 -1.1021  1.6435 -0.3924
19274TIP3   OH279312   1.249   6.112  11.966  0.7970 -0.1255  0.1502
19274TIP3    H179313   1.343   6.097  11.976  1.0521 -0.0057 -1.7162
19274TIP3    H279314   1.223   6.058  11.892 -0.1227  1.5516 -0.8149
19275TIP3   OH279315   5.591   0.111   2.557 -0.2713 -0.5714 -0.4328
19275TIP3    H179316   5.636   0.155   2.484  0.0157  0.4816  0.3414
19275TIP3    H279317   5.502   0.098   2.526 -0.3022  0.3736 -0.7820
19276TIP3   OH279318   1.248   5.098  10.629  0.2039  0.4580 -0.3833
19276TIP3    H179319   1.301   5.127  10.554 -0.4066  0.5443 -0.7901
19276TIP3    H279320   1.297   5.025  10.667  1.4571  1.6109  0.2780
19277TIP3   OH279321   6.104   4.680   0.043 -0.4124 -0.0509  0.7122
19277TIP3    H179322   6.105   4.767   0.004  1.9815  0.9216  2.7139
19277TIP3    H279323   6.012   4.663   0.061 -1.3103  0.6306 -2.5344
19278TIP3   OH279324   6.745   0.218  15.019  0.0280  0.0597 -0.4530
19278TIP3    H179325   6.650   0.215  15.030  0.2405 -1.0988  1.4221
19278TIP3    H279326   6.764   0.311  15.004 -1.4455  0.1988 -1.6902
19279TIP3   OH279327   4.011   3.651  11.719 -0.2201  0.4302  0.2750
19279TIP3    H179328   4.106   3.655  11.715 -0.2997  3.3390 -1.1425
19279TIP3    H279329   3.989   3.691  11.803 -0.2388 -1.9803  1.5106
19280TIP3   OH279330   1.861   4.632  17.119  0.6523 -0.3575  0.3217
19280TIP3    H179331   1.867   4.589  17.205 -0.2696 -0.7918  0.1878
19280TIP3    H279332   1.784   4.592  17.078  1.2492 -0.3602 -0.8350
19281TIP3   OH279333   2.796   3.504   2.971 -0.5452  0.5002  0.2724
19281TIP3    H179334   2.876   3.537   2.931 -0.8934  0.1930 -0.6884
19281TIP3    H279335   2.801   3.409   2.963 -1.9279  0.5250 -1.6941
19282TIP3   OH279336   2.184   6.532   6.977  0.1473 -0.6752 -0.3617
19282TIP3    H179337   2.156   6.443   6.998  1.4860 -1.7639 -2.7455
19282TIP3    H279338   2.228   6.523   6.892  0.9908  2.1491 -0.3028
19283TIP3   OH279339   6.367   4.019   4.438 -0.5064  0.5177  0.7644
19283TIP3    H179340   6.437   4.000   4.375 -0.0789  0.8547  1.1201
19283TIP3    H279341   6.324   4.097   4.403 -0.1613  0.8040  0.9693
19284TIP3   OH279342   5.577   1.735  16.388  0.0488 -0.3555 -0.1075
19284TIP3    H179343   5.604   1.744  16.297 -1.6434 -0.5880 -0.6726
19284TIP3    H279344   5.500   1.677  16.385 -0.0445 -0.3555  1.4568
19285TIP3   OH279345   2.166   1.732  12.437  0.1088  0.0187 -0.1175
19285TIP3    H179346   2.178   1.653  12.490  0.8545 -0.2450 -0.6531
19285TIP3    H279347   2.253   1.773  12.435 -0.7314  2.1584  2.1132
19286TIP3   OH279348   6.428   0.754  14.307  0.1710 -0.1325 -0.0753
19286TIP3    H179349   6.439   0.659  14.301  0.1281 -0.1503  0.1387
19286TIP3    H279350   6.363   0.775  14.239 -0.1036 -0.3036  0.1321
19287TIP3   OH279351   1.083   0.837  15.936  0.3864 -0.4292 -0.2485
19287TIP3    H179352   1.133   0.756  15.946  1.7049  0.4315  0.4276
19287TIP3    H279353   1.123   0.880  15.861  0.8845  0.4304  0.5056
19288TIP3   OH279354   6.336   2.278   4.494 -0.8682 -0.1985 -0.4043
19288TIP3    H179355   6.250   2.318   4.508 -0.3721  0.0970  2.1163
19288TIP3    H279356   6.317   2.185   4.484 -1.5722  0.0183 -1.3315
19289TIP3   OH279357   6.446   6.275  16.801 -0.1435 -0.2632  0.2275
19289TIP3    H179358   6.512   6.293  16.733  1.0187 -0.2830  1.3088
19289TIP3    H279359   6.388   6.210  16.762  1.0171 -0.9295 -0.4339
19290TIP3   OH279360   2.657   6.673  15.307  0.0384 -0.0281  0.0421
19290TIP3    H179361   2.743   6.631  15.317 -0.0207 -1.2707 -3.1754
19290TIP3    H279362   2.677   6.763  15.282  0.4409 -0.3148 -0.6978
19291TIP3   OH279363   4.945   0.349   0.940  0.4324 -0.3030  0.1449
19291TIP3    H179364   5.007   0.374   0.871 -0.3564 -0.5072 -0.6581
19291TIP3    H279365   5.000   0.332   1.016  1.2452  1.0000 -0.1065
19292TIP3   OH279366   0.061   1.999   5.620  0.1425  0.7330  0.2294
19292TIP3    H179367   0.142   2.018   5.668 -0.2287 -0.2107  1.2834
19292TIP3    H279368   0.089   1.991   5.529  1.5715 -1.2238  0.7676
19293TIP3   OH279369   5.397   3.136   4.738  0.1546  0.3763  0.0816
19293TIP3    H179370   5.432   3.223   4.758 -0.2167 -0.1132  3.4232
19293TIP3    H279371   5.463   3.075   4.770 -1.1183 -0.5340  1.0808
19294TIP3   OH279372   4.591   2.024  11.144 -0.5339 -0.0472 -0.6672
19294TIP3    H179373   4.560   2.093  11.086 -0.2460 -0.6342 -1.5536
19294TIP3    H279374   4.665   1.985  11.097  1.3487  1.0454  1.1684
19295TIP3   OH279375   6.795   2.949  15.572 -0.2454 -0.5558  0.1222
19295TIP3    H179376   6.772   3.036  15.539 -0.1390 -1.0217 -1.2725
19295TIP3    H279377   6.748   2.942  15.655  0.0039  0.9470  0.4331
19296TIP3   OH279378   6.282   5.467  12.232 -0.5549 -0.7151  0.4966
19296TIP3    H179379   6.228   5.399  12.271 -1.3094  0.0886  0.8837
19296TIP3    H279380   6.310   5.521  12.307  0.2986 -0.7707  0.2351
19297TIP3   OH279381   4.313   5.204   2.791  0.1299  0.5001 -0.1811
19297TIP3    H179382   4.273   5.265   2.729 -0.1021  0.2039 -0.3261
19297TIP3    H279383   4.383   5.162   2.742 -1.2359 -1.1046 -0.8556
19298TIP3   OH279384   2.844   5.485   4.298 -0.6068 -0.5933 -0.1356
19298TIP3    H179385   2.854   5.466   4.205 -1.0977 -1.5412  0.0017
19298TIP3    H279386   2.875   5.407   4.343  0.0980  0.0419  0.5287
19299TIP3   OH279387   3.724   2.555   2.865 -0.0493  0.8537 -0.3603
19299TIP3    H179388   3.779   2.494   2.816  1.5324  0.6299  1.5891
19299TIP3    H279389   3.639   2.512   2.870  0.3311 -0.0334 -1.1481
19300TIP3   OH279390   0.644   2.341  13.006 -0.0309  0.2255 -0.3398
19300TIP3    H179391   0.600   2.263  13.041 -0.2304  0.6404  0.3509
19300TIP3    H279392   0.719   2.306  12.958 -0.3960 -0.4186 -0.4509
19301TIP3   OH279393   2.555   1.970  13.439 -0.7914  0.1359  0.0493
19301TIP3    H179394   2.481   1.942  13.493 -0.2714 -1.8432 -0.1899
19301TIP3    H279395   2.608   1.891  13.428  0.7596  1.2349 -0.7588
19302TIP3   OH279396   6.153   1.080   5.861 -0.4026  0.4780 -0.1192
19302TIP3    H179397   6.060   1.092   5.881 -0.6526  1.0393 -1.5199
19302TIP3    H279398   6.165   0.985   5.862 -0.5546  0.4322  1.8279
19303TIP3   OH279399   5.917   1.552  13.584  0.1069  0.6002 -0.0449
19303TIP3    H179400   5.822   1.560  13.590 -0.0010  1.2138 -1.7555
19303TIP3    H279401   5.947   1.545  13.674 -1.5106  1.0330  0.5597
19304TIP3   OH279402   1.714   0.951   0.231 -0.2982 -1.0243 -0.6421
19304TIP3    H179403   1.660   0.920   0.304 -2.7235  0.7048 -1.5748
19304TIP3    H279404   1.687   0.898   0.157  0.5649 -1.2958 -0.7700
19305TIP3   OH279405   5.493   2.664   4.133 -0.3077  0.4900  0.4832
19305TIP3    H179406   5.445   2.738   4.095  0.2967  1.9125  2.3687
19305TIP3    H279407   5.429   2.594   4.136 -1.3547  1.3903  0.0571
19306TIP3   OH279408   4.825   1.499  15.566  0.3730  0.2030 -0.5616
19306TIP3    H179409   4.789   1.531  15.649 -0.4252 -1.4697 -0.2026
19306TIP3    H279410   4.847   1.578  15.517  1.7091  1.2540  1.5740
19307TIP3   OH279411   1.910   0.765  16.787 -0.4017  0.4770  0.0287
19307TIP3    H179412   1.828   0.764  16.836 -0.3323  0.6255  0.1496
19307TIP3    H279413   1.978   0.781  16.853 -0.4342  2.0399 -0.2853
19308TIP3   OH279414   1.082   3.999   1.544  0.3065  0.4482 -0.0750
19308TIP3    H179415   1.039   3.980   1.628  0.5052 -2.8743 -0.6010
19308TIP3    H279416   1.024   4.062   1.501 -0.9754  0.4925  1.6171
19309TIP3   OH279417   5.366   5.526  10.864  0.6137  0.1016 -0.2963
19309TIP3    H179418   5.360   5.488  10.951  0.4030 -0.1895 -0.4361
19309TIP3    H279419   5.300   5.479  10.812  1.4593 -0.4908 -0.8775
19310TIP3   OH279420   0.015   5.438  12.785 -0.0378  0.3093  0.4846
19310TIP3    H179421   0.047   5.371  12.846 -0.9611 -1.2168 -0.6413
19310TIP3    H279422  -0.061   5.476  12.829 -1.2981 -1.4529 -0.0346
19311TIP3   OH279423   0.997   3.805   2.374 -0.0070 -0.1953  0.1124
19311TIP3    H179424   0.936   3.739   2.340  2.9360 -2.1902 -1.7172
19311TIP3    H279425   1.036   3.763   2.451  1.0812 -0.1822 -0.4119
19312TIP3   OH279426   5.437   1.966  15.789  0.2349 -0.1019  0.4248
19312TIP3    H179427   5.393   1.962  15.704  1.1138 -1.6279  0.0014
19312TIP3    H279428   5.399   1.893  15.839 -1.0942  1.4589  1.7952
19313TIP3   OH279429   1.242   2.489   3.304 -0.9623  0.1012 -0.1668
19313TIP3    H179430   1.183   2.421   3.336 -0.0455 -0.9623 -0.6561
19313TIP3    H279431   1.327   2.465   3.341 -0.9778  2.2016  1.4204
19314TIP3   OH279432   6.028   4.590  16.995 -0.1157  0.3746  0.1716
19314TIP3    H179433   5.933   4.599  16.988 -0.4138  0.1659  2.7698
19314TIP3    H279434   6.061   4.679  16.999 -0.1478  0.4522 -1.0626
19315TIP3   OH279435   6.559   2.006   0.233 -0.1475  0.0355  0.0353
19315TIP3    H179436   6.654   2.013   0.239 -0.2112  0.9205  0.1316
19315TIP3    H279437   6.542   1.990   0.140  0.0944 -0.1739  0.0271
19316TIP3   OH279438   5.804   1.465   4.657  0.8842  0.2782 -0.3846
19316TIP3    H179439   5.846   1.393   4.703  1.6059  0.8287 -0.1714
19316TIP3    H279440   5.714   1.466   4.690  0.9182 -0.4057 -0.2600
19317TIP3   OH279441   1.086   3.218  11.000 -0.3331 -0.1926  0.1510
19317TIP3    H179442   1.128   3.226  11.085 -0.2372  1.1902 -0.0099
19317TIP3    H279443   1.099   3.126  10.976  3.8745  0.3786 -0.5081
19318TIP3   OH279444   4.618   5.323   5.352 -0.0880 -0.0139 -0.1818
19318TIP3    H179445   4.603   5.231   5.329  0.9495 -0.7570  1.9185
19318TIP3    H279446   4.531   5.354   5.378 -0.3974 -0.4649 -0.6353
19319TIP3   OH279447   2.269   1.576  14.709  0.0139 -0.3323 -0.6986
19319TIP3    H179448   2.229   1.553  14.793  0.9360 -0.2313 -0.2117
19319TIP3    H279449   2.360   1.596  14.731 -0.0792  1.1302 -1.5048
19320TIP3   OH279450   5.444   4.713   5.676  0.7099  0.3030  0.3789
19320TIP3    H179451   5.533   4.747   5.672  0.3050  1.2377 -1.8225
19320TIP3    H279452   5.421   4.693   5.586 -1.2884  0.0043  0.8974
19321TIP3   OH279453   4.543   3.857  11.520 -0.6483  0.2695 -0.1212
19321TIP3    H179454   4.599   3.906  11.581 -1.9794  0.2062  1.2208
19321TIP3    H279455   4.583   3.770  11.515  0.4472  0.7814 -0.7327
19322TIP3   OH279456   5.423   6.773   0.689 -0.0536  0.4493 -0.0365
19322TIP3    H179457   5.395   6.856   0.727  1.1888  0.9302 -0.1153
19322TIP3    H279458   5.517   6.785   0.673  0.1855 -1.0275  0.1199
19323TIP3   OH279459   5.126   1.459   1.106  0.1487 -0.1784 -0.0497
19323TIP3    H179460   5.081   1.424   1.183  1.1470  0.0183  0.6315
19323TIP3    H279461   5.218   1.463   1.131  0.3324  1.0079 -0.8322
19324TIP3   OH279462   4.846   5.838  13.575 -0.2586  0.1326  0.5705
19324TIP3    H179463   4.877   5.928  13.580  0.1328  0.1137 -1.1298
19324TIP3    H279464   4.926   5.785  13.585 -0.2403  0.0107 -0.2139
19325TIP3   OH279465   6.393   5.669  15.677  0.2306  0.2896 -0.1225
19325TIP3    H179466   6.328   5.738  15.669  1.1422  1.4509  1.6591
19325TIP3    H279467   6.349   5.590  15.646 -2.1670  0.9431  1.3359
19326TIP3   OH279468   5.319   1.197  11.166  0.0014  0.1360  0.7529
19326TIP3    H179469   5.331   1.230  11.255  2.1839 -0.4349  0.7308
19326TIP3    H279470   5.387   1.131  11.155  0.3286  0.7631 -1.6181
19327TIP3   OH279471   0.248   6.777  14.638  0.0164  0.0118 -0.5618
19327TIP3    H179472   0.223   6.786  14.730  0.2532  0.0804 -0.5024
19327TIP3    H279473   0.328   6.829  14.630  0.3172 -0.4627 -0.6749
19328TIP3   OH279474   0.894   1.463   5.966 -0.4083  0.2209 -0.5603
19328TIP3    H179475   0.970   1.519   5.985 -0.7396  0.5395 -0.1590
19328TIP3    H279476   0.849   1.507   5.895 -0.8685  0.6651 -0.0033
19329TIP3   OH279477   1.127   1.558   3.983  0.1875  0.2819 -0.1574
19329TIP3    H179478   1.182   1.637   3.991 -0.6238  0.8936 -0.5150
19329TIP3    H279479   1.060   1.569   4.051  1.2118 -1.0849  1.1498
19330TIP3   OH279480   1.190   2.908   0.680  0.1345 -0.5065  0.4523
19330TIP3    H179481   1.239   2.826   0.682 -1.0216 -1.2287  0.0160
19330TIP3    H279482   1.103   2.883   0.651 -0.5986  0.7030  1.5137
19331TIP3   OH279483   4.186   0.123  14.034  1.3491  0.4116  0.3435
19331TIP3    H179484   4.097   0.155  14.016  0.6328 -0.7795  1.4956
19331TIP3    H279485   4.214   0.174  14.110  1.4103  0.3869  0.3374
19332TIP3   OH279486   0.562   1.099   1.300  0.5419 -0.1059 -0.5195
19332TIP3    H179487   0.499   1.160   1.263  0.9996  0.2853 -0.6542
19332TIP3    H279488   0.646   1.144   1.295  0.6116  0.0281  1.1087
19333TIP3   OH279489   1.857   3.203   1.254 -0.1473  0.0675  0.4515
19333TIP3    H179490   1.945   3.235   1.275 -0.2234 -0.6349  1.9730
19333TIP3    H279491   1.800   3.242   1.319 -0.5593 -1.4568  1.0576
19334TIP3   OH279492   6.550   2.684  12.388 -0.2455  0.6707 -0.0872
19334TIP3    H179493   6.553   2.628  12.466 -1.4237 -0.4987 -0.8379
19334TIP3    H279494   6.591   2.632  12.319 -2.4765  0.1448 -1.1046
19335TIP3   OH279495   1.613   0.166  14.470 -0.2903 -0.1906  0.0105
19335TIP3    H179496   1.582   0.108  14.401  1.0632  0.3396 -1.0820
19335TIP3    H279497   1.582   0.253  14.445  0.0443 -0.0229  0.1683
19336TIP3   OH279498   1.343   2.001  14.934 -0.2765  0.1320 -0.8113
19336TIP3    H179499   1.323   2.091  14.960 -0.0821  0.6035 -2.2155
19336TIP3    H279500   1.433   1.987  14.965  0.0497  0.7684 -1.4488
19337TIP3   OH279501   4.129   6.293  13.703 -0.1197 -0.2926 -0.7463
19337TIP3    H179502   4.047   6.250  13.682  0.0958 -0.4684 -1.2371
19337TIP3    H279503   4.153   6.340  13.623 -0.3934  0.8087 -0.1985
19338TIP3   OH279504   6.729   3.262   0.158  0.1319  0.6958  0.1678
19338TIP3    H179505   6.641   3.226   0.145 -0.3014  0.8940  2.1515
19338TIP3    H279506   6.785   3.184   0.165  0.1383  0.5682 -1.0919
19339TIP3   OH279507   3.476   2.540   3.355  0.0613  0.1119  0.5617
19339TIP3    H179508   3.390   2.533   3.314  0.7060 -1.2165 -0.6599
19339TIP3    H279509   3.501   2.450   3.375  1.4935  0.3859  0.1429
19340TIP3   OH279510   5.564   3.052  14.247 -0.3844  0.3819  0.0274
19340TIP3    H179511   5.528   3.132  14.208  0.4259 -0.1068 -1.8299
19340TIP3    H279512   5.657   3.053  14.222  0.2347  0.1093  2.1548
19341TIP3   OH279513   5.550   0.575   4.980  0.2425 -0.0505 -0.2209
19341TIP3    H179514   5.583   0.665   4.983  1.3983 -0.4817  1.4102
19341TIP3    H279515   5.549   0.553   4.887 -0.2822  1.7157 -0.6622
19342TIP3   OH279516   0.072   1.734   5.139 -0.2273 -0.1231  0.5051
19342TIP3    H179517   0.067   1.640   5.119 -0.9770  0.3717 -1.9334
19342TIP3    H279518   0.126   1.771   5.070 -2.1656  1.6069 -0.1780
19343TIP3   OH279519   6.572   5.126   4.840  0.5304 -0.1297  0.0590
19343TIP3    H179520   6.545   5.096   4.926  2.4182 -2.3097 -0.0192
19343TIP3    H279521   6.652   5.175   4.856 -0.1414  1.1208 -0.2959
19344TIP3   OH279522   6.064   4.472  15.999  0.3214 -0.1526 -0.3100
19344TIP3    H179523   6.108   4.486  16.082  2.4285  1.3263 -1.5890
19344TIP3    H279524   6.068   4.377  15.984 -0.0922 -0.4314  1.2169
19345TIP3   OH279525   1.515   1.516   6.487 -0.3511 -0.2470  0.4216
19345TIP3    H179526   1.499   1.604   6.521 -1.3724 -0.1579 -0.2437
19345TIP3    H279527   1.465   1.513   6.405  0.6587 -1.0359 -0.1803
19346TIP3   OH279528   6.712   5.816  13.476 -0.1780  0.1558 -0.6606
19346TIP3    H179529   6.675   5.869  13.547  0.6282  0.5052 -0.4830
19346TIP3    H279530   6.655   5.834  13.401  0.4058  1.7775 -0.7705
19347TIP3   OH279531   5.886   3.653  16.272  0.2386  0.1338  0.4762
19347TIP3    H179532   5.868   3.742  16.305  1.6667  0.1709  1.2396
19347TIP3    H279533   5.858   3.656  16.180 -0.7824  1.0190  0.7824
19348TIP3   OH279534   1.436   2.755   5.562  0.1066  0.5549 -0.1086
19348TIP3    H179535   1.511   2.727   5.616 -0.4719  0.0180  0.4410
19348TIP3    H279536   1.360   2.732   5.615 -0.4436  3.4045  0.4898
19349TIP3   OH279537   3.390   4.173   1.977 -0.0797 -0.1564  0.1695
19349TIP3    H179538   3.433   4.170   1.892 -0.1196 -2.4753  0.1693
19349TIP3    H279539   3.297   4.162   1.958 -0.2391  0.6505  0.4409
19350TIP3   OH279540   5.805   0.667  12.885 -0.2399 -0.1879  0.2066
19350TIP3    H179541   5.887   0.705  12.854 -0.2221 -1.0202 -0.7905
19350TIP3    H279542   5.797   0.699  12.975  0.6034  0.8103 -0.0538
19351TIP3   OH279543   1.690   2.767   0.620 -0.2313  0.0156 -0.2428
19351TIP3    H179544   1.633   2.699   0.584 -0.0152 -0.3876  0.1592
19351TIP3    H279545   1.653   2.849   0.588 -1.1000 -0.2283  0.0895
19352TIP3   OH279546   5.371   5.493  16.289 -0.4115  0.0996 -0.3824
19352TIP3    H179547   5.317   5.472  16.366 -0.6641 -0.7277 -0.7685
19352TIP3    H279548   5.361   5.417  16.232 -0.3622  0.7778 -1.3152
19353TIP3   OH279549   0.233   1.600   1.277  0.0137  0.2549 -0.2617
19353TIP3    H179550   0.325   1.579   1.290 -0.2601 -0.3059  0.9136
19353TIP3    H279551   0.220   1.597   1.182  0.8242 -1.3040 -0.3429
19354TIP3   OH279552   5.646   3.503  13.316 -0.2754  0.5907 -0.8156
19354TIP3    H179553   5.683   3.523  13.230  0.9119 -2.3390 -1.0858
19354TIP3    H279554   5.720   3.468  13.366 -1.6047 -0.5765  0.3902
19355TIP3   OH279555   3.842   3.130  15.534 -0.1608 -0.1301 -0.1491
19355TIP3    H179556   3.934   3.145  15.513 -0.1430 -1.6005 -1.3197
19355TIP3    H279557   3.832   3.035  15.530 -1.3792 -0.1318  1.6075
19356TIP3   OH279558   4.619   3.726   1.249  0.3508  0.6248  0.3565
19356TIP3    H179559   4.693   3.787   1.245 -0.9374  2.1660 -1.1647
19356TIP3    H279560   4.600   3.705   1.158 -1.7460  1.1390  0.6176
19357TIP3   OH279561   2.114   5.893   1.064 -0.2553  0.3025 -0.2760
19357TIP3    H179562   2.194   5.889   1.116  0.1860 -1.9108 -0.9919
19357TIP3    H279563   2.141   5.867   0.976 -1.6460  0.1089 -0.6784
19358TIP3   OH279564   5.404   5.243   4.121  0.1115 -0.7444 -0.6349
19358TIP3    H179565   5.365   5.162   4.153  1.3543 -0.3894  2.0753
19358TIP3    H279566   5.370   5.311   4.180  1.9300  0.1007 -0.4844
19359TIP3   OH279567   4.561   5.559  12.796  0.6715  0.0551  0.0124
19359TIP3    H179568   4.469   5.582  12.809  0.7430  0.0575  0.5493
19359TIP3    H279569   4.576   5.485  12.854  0.9458 -0.1050 -0.2592
19360TIP3   OH279570   2.565   5.181  16.143 -0.1651 -0.1813  0.1339
19360TIP3    H179571   2.636   5.224  16.190  0.2529 -0.4006 -0.2887
19360TIP3    H279572   2.577   5.088  16.160  0.7832 -0.3857 -1.4537
19361TIP3   OH279573   5.794   0.102  16.990 -0.6414  0.1551  0.2833
19361TIP3    H179574   5.857   0.174  16.997 -1.8511  1.0521  3.2458
19361TIP3    H279575   5.827   0.036  17.049 -0.6254 -0.9359 -0.8971
19362TIP3   OH279576   6.281   6.811  13.207 -0.4935 -0.6157  0.3587
19362TIP3    H179577   6.256   6.824  13.299  1.1258 -1.7482  1.0150
19362TIP3    H279578   6.275   6.898  13.168 -0.7695 -0.0277  1.6560
19363TIP3   OH279579   0.955   6.635  13.510  0.5186 -0.4614  0.0523
19363TIP3    H179580   1.006   6.560  13.541 -2.1963 -1.5158  2.3170
19363TIP3    H279581   0.955   6.626  13.415  1.1879 -2.7169  0.2109
19364TIP3   OH279582   0.922   4.028  15.092 -0.4757 -0.7029 -0.2895
19364TIP3    H179583   0.961   4.007  15.177 -2.1194  0.8826  0.9134
19364TIP3    H279584   0.841   3.977  15.089  0.6303 -2.5549 -1.9934
19365TIP3   OH279585   1.003   4.978  10.642  0.4513  0.5069  0.1378
19365TIP3    H179586   1.093   5.000  10.619  1.4832  0.5979  3.6895
19365TIP3    H279587   0.983   5.034  10.717 -2.6502  0.5404 -0.5941
19366TIP3   OH279588   5.465   5.868  13.888 -0.0721  0.9007 -0.4780
19366TIP3    H179589   5.371   5.860  13.902  0.1466  1.2076  1.4863
19366TIP3    H279590   5.504   5.806  13.950  1.0387  0.8826 -1.1546
19367TIP3   OH279591   4.842   3.909   2.878  0.5165 -0.1060  0.1518
19367TIP3    H179592   4.781   3.938   2.946 -0.1946  0.5927 -0.7671
19367TIP3    H279593   4.892   3.839   2.920  0.1247  0.3308  1.4073
19368TIP3   OH279594   6.537   0.087  14.783 -0.1000 -0.3986 -0.3178
19368TIP3    H179595   6.527   0.013  14.842  0.7722 -0.6088 -0.4067
19368TIP3    H279596   6.491   0.061  14.703 -1.5459  0.0165  0.3650
19369TIP3   OH279597   1.134   3.368   3.717 -0.2006 -1.0155  0.2437
19369TIP3    H179598   1.185   3.397   3.642 -1.6660 -1.9664 -1.1865
19369TIP3    H279599   1.046   3.356   3.683 -0.8861 -1.6258  2.1006
19370TIP3   OH279600   2.218   0.488   2.644  0.1775 -0.4865 -0.4197
19370TIP3    H179601   2.207   0.394   2.655  0.8167 -0.8767 -2.5458
19370TIP3    H279602   2.150   0.514   2.582  0.6652  0.2402 -0.6720
19371TIP3   OH279603   0.209   3.225  17.291  0.2232  0.1446  0.3535
19371TIP3    H179604   0.177   3.267  17.211  0.4706 -1.5430 -0.6839
19371TIP3    H279605   0.261   3.293  17.335  1.4064  0.6783 -1.7189
19372TIP3   OH279606   5.830   1.286  11.676  0.4924 -0.0069  0.5144
19372TIP3    H179607   5.773   1.354  11.641  1.2785  1.1687  1.4421
19372TIP3    H279608   5.881   1.257  11.600 -1.4349 -1.2494 -0.3842
19373TIP3   OH279609   6.088   2.878  16.289 -0.1377  0.2587  0.1215
19373TIP3    H179610   6.036   2.849  16.363  0.6165  1.8380  1.3226
19373TIP3    H279611   6.165   2.821  16.290 -0.5369 -0.2937 -0.0017
19374TIP3   OH279612   0.660   6.003  15.761 -0.2100  0.1850  0.2258
19374TIP3    H179613   0.587   5.998  15.823  0.1559  0.0420  0.6559
19374TIP3    H279614   0.706   6.084  15.785  0.6747 -0.5232  0.9913
19375TIP3   OH279615   6.624   1.366  14.811  0.3895  0.6632 -0.5058
19375TIP3    H179616   6.570   1.338  14.884  0.3213 -1.4906 -1.3124
19375TIP3    H279617   6.571   1.348  14.733  1.2521  0.9775 -1.1898
19376TIP3   OH279618   4.630   5.763  16.157  0.2759 -0.0048  0.4453
19376TIP3    H179619   4.649   5.804  16.073  0.5586 -0.9386  0.0442
19376TIP3    H279620   4.560   5.816  16.194 -0.8888 -0.4136 -1.0470
19377TIP3   OH279621   4.813   1.206  14.148 -0.1172 -0.2073  0.3453
19377TIP3    H179622   4.830   1.145  14.220 -2.8749 -2.5976 -0.7980
19377TIP3    H279623   4.820   1.152  14.069  1.2303  1.9525 -1.1239
19378TIP3   OH279624   4.086   1.295   5.701  0.0889 -0.0675 -0.0872
19378TIP3    H179625   4.001   1.334   5.684 -0.1587 -0.3987  0.3899
19378TIP3    H279626   4.131   1.358   5.758  0.3345  0.3124 -0.6892
19379TIP3   OH279627   5.428   4.668  13.808 -0.0509  0.3346 -0.7771
19379TIP3    H179628   5.474   4.695  13.888 -0.7510 -1.4576  0.2933
19379TIP3    H279629   5.387   4.748  13.776 -0.3027  0.9833  1.0492
19380TIP3   OH279630   1.747   5.702  17.269 -0.2843 -0.0304 -0.2828
19380TIP3    H179631   1.808   5.733  17.336  0.8672 -1.1198 -0.7845
19380TIP3    H279632   1.661   5.732  17.299  0.4575  1.3869  0.5338
19381TIP3   OH279633   3.030   2.951  16.362 -0.0905  0.6223 -0.2550
19381TIP3    H179634   3.027   3.046  16.372  2.1823  0.8700 -1.3716
19381TIP3    H279635   2.963   2.933  16.295  0.2709  1.5967 -0.9073
19382TIP3   OH279636   3.263   2.155  12.189 -0.1541  0.3191 -0.6251
19382TIP3    H179637   3.223   2.236  12.221  0.1397 -0.3196  1.5088
19382TIP3    H279638   3.290   2.109  12.268 -1.0680 -2.2707 -1.7243
19383TIP3   OH279639   3.705   4.624  13.494  0.4079  0.2596  0.2515
19383TIP3    H179640   3.661   4.603  13.412 -0.7105 -1.2159  1.1771
19383TIP3    H279641   3.708   4.720  13.496  1.5863  0.3380 -2.0371
19384TIP3   OH279642   5.872   1.733   5.549 -0.1959  0.6957  0.0938
19384TIP3    H179643   5.807   1.744   5.618  0.7285 -0.5653  1.2267
19384TIP3    H279644   5.925   1.813   5.553  1.7322 -0.5723  2.9915
19385TIP3   OH279645   3.046   6.302   1.237 -0.2909 -0.3651  0.6452
19385TIP3    H179646   3.008   6.217   1.216  1.4086 -1.0184  0.0895
19385TIP3    H279647   3.068   6.296   1.330  0.0041 -0.5933  0.5587
19386TIP3   OH279648   2.554   3.439   4.264  0.6236  0.5407  0.0696
19386TIP3    H179649   2.477   3.404   4.221  0.7462  1.1955 -0.7209
19386TIP3    H279650   2.584   3.509   4.206  1.1095  1.0980  0.9614
19387TIP3   OH279651   0.912   6.228   2.822  0.6280  0.2857 -0.6785
19387TIP3    H179652   0.850   6.156   2.808  0.9661  0.0021 -0.7367
19387TIP3    H279653   0.983   6.211   2.761  0.2995  1.1613 -1.3270
19388TIP3   OH279654   2.935   0.170  14.904  0.2105  0.4071 -0.1547
19388TIP3    H179655   2.929   0.080  14.870  2.1334 -0.0915  0.7213
19388TIP3    H279656   2.987   0.217  14.839  1.3453  0.2203  0.5979
19389TIP3   OH279657   5.862   1.274   2.477 -0.2851  0.0843  0.2272
19389TIP3    H179658   5.915   1.234   2.407  0.2007 -0.4722  0.8906
19389TIP3    H279659   5.863   1.209   2.547  0.9635  1.4534  1.5559
19390TIP3   OH279660   0.043   4.837  10.970 -0.2970 -0.1253  0.3039
19390TIP3    H179661  -0.030   4.855  10.911  0.0216  2.6230  0.5968
19390TIP3    H279662   0.042   4.742  10.981 -1.4014 -0.5772 -2.7292
19391TIP3   OH279663   2.634   6.090   5.953  0.3691  0.2928  0.6114
19391TIP3    H179664   2.642   6.139   6.035  0.2847 -0.7541  1.2687
19391TIP3    H279665   2.568   6.023   5.971  0.0093  0.3395 -0.4709
19392TIP3   OH279666   1.475   5.221   1.147  0.5642  0.4065  0.2335
19392TIP3    H179667   1.455   5.252   1.236 -2.9928  3.3819 -1.3147
19392TIP3    H279668   1.465   5.126   1.152 -0.2069  0.5273  2.8722
19393TIP3   OH279669   4.889   2.558   0.717  0.3647 -0.2605 -0.2398
19393TIP3    H179670   4.839   2.476   0.724  1.0323 -0.5540  2.0575
19393TIP3    H279671   4.828   2.625   0.748  0.8046 -0.3672  0.8900
19394TIP3   OH279672   3.019   4.525   2.768  0.0413  0.3597  0.5916
19394TIP3    H179673   3.093   4.542   2.710  0.4521  0.9370  1.2751
19394TIP3    H279674   2.947   4.575   2.730 -0.5969 -1.7171 -1.2067
19395TIP3   OH279675   1.654   6.302  14.559  0.5836 -0.0933  0.2670
19395TIP3    H179676   1.726   6.314  14.621 -0.7178  3.5220  1.3130
19395TIP3    H279677   1.667   6.371  14.494  1.3689 -3.1816 -3.1908
19396TIP3   OH279678   4.447   6.425   2.658 -0.1819 -0.1413  0.1712
19396TIP3    H179679   4.454   6.342   2.610  1.4592 -0.1269  0.3092
19396TIP3    H279680   4.526   6.428   2.712  0.5349  2.1455 -0.8593
19397TIP3   OH279681   2.016   4.461  13.213  0.0266  0.0223  0.0202
19397TIP3    H179682   1.923   4.460  13.237  0.2990 -0.2816  1.1298
19397TIP3    H279683   2.022   4.528  13.144 -0.7729  1.1443  0.9956
19398TIP3   OH279684   0.723   4.251   3.861 -0.4000 -0.3062  0.1971
19398TIP3    H179685   0.786   4.188   3.896 -1.0718  0.0402  2.1620
19398TIP3    H279686   0.776   4.309   3.806  0.4526 -1.7468 -0.5747
19399TIP3   OH279687   4.229   5.825   4.377  0.4566  0.6443  0.1764
19399TIP3    H179688   4.153   5.785   4.334 -1.0714  0.1164  3.0949
19399TIP3    H279689   4.201   5.914   4.397  0.1917  0.1840  2.0332
19400TIP3   OH279690   0.644   1.971  16.741 -0.3940 -0.8025  0.5139
19400TIP3    H179691   0.671   1.880  16.752 -0.3141 -0.7941  0.3845
19400TIP3    H279692   0.673   2.014  16.821  0.3930 -0.6927  0.1787
19401TIP3   OH279693   1.240   3.782  12.749 -0.4906  0.4995 -0.0560
19401TIP3    H179694   1.243   3.764  12.843 -0.5737  1.2996  0.1105
19401TIP3    H279695   1.157   3.828  12.736 -0.6933 -0.0089 -0.6002
19402TIP3   OH279696   6.328   3.336  11.336 -0.0793 -0.4059  0.1672
19402TIP3    H179697   6.356   3.336  11.245 -2.0506  0.0857 -0.4626
19402TIP3    H279698   6.298   3.246  11.352 -1.5173 -0.0196 -0.2620
19403TIP3   OH279699   6.557   4.726   2.513 -0.4688 -0.3043 -0.4752
19403TIP3    H179700   6.640   4.701   2.471 -0.6494 -0.0695 -0.9769
19403TIP3    H279701   6.581   4.791   2.578 -0.3217  0.1549 -0.9850
19404TIP3   OH279702   4.705   2.063  13.250  0.0891  0.3741  0.0243
19404TIP3    H179703   4.687   2.033  13.161  1.3479  0.2470 -0.2179
19404TIP3    H279704   4.695   1.985  13.304 -1.5385  0.6374  0.1441
19405TIP3   OH279705   1.011   4.449  15.115 -0.3737 -0.3852  0.2136
19405TIP3    H179706   1.098   4.417  15.090 -0.1261  0.3687  0.0903
19405TIP3    H279707   0.959   4.441  15.035 -0.2217 -0.1737  0.0930
19406TIP3   OH279708   1.615   1.883  11.976  0.2876 -0.2918  0.2087
19406TIP3    H179709   1.610   1.973  12.008  4.5195  0.5492 -0.9475
19406TIP3    H279710   1.643   1.832  12.052  0.1220 -0.2065  0.3257
19407TIP3   OH279711   0.071   3.924   5.589  0.4458  0.8811 -0.4993
19407TIP3    H179712   0.018   3.995   5.624  0.0772 -0.2037  1.2450
19407TIP3    H279713   0.111   3.961   5.510 -1.1977  2.4114 -0.6827
19408TIP3   OH279714   5.146   4.699   6.153 -0.0972 -0.1846 -0.3721
19408TIP3    H179715   5.163   4.666   6.241  1.1720  0.2447 -0.4291
19408TIP3    H279716   5.072   4.648   6.121  0.7536 -1.8004  0.1644
19409TIP3   OH279717   6.719   1.461   1.346  0.2377 -0.0487  0.0958
19409TIP3    H179718   6.637   1.480   1.392 -0.1750  0.2112 -0.7359
19409TIP3    H279719   6.773   1.415   1.411 -0.0617  0.9182  1.0685
19410TIP3   OH279720   3.371   6.734   4.829 -0.7296  0.8055 -0.1585
19410TIP3    H179721   3.309   6.796   4.791 -0.3817  0.6802 -0.9538
19410TIP3    H279722   3.388   6.768   4.916  0.2242  2.4204 -0.9268
19411TIP3   OH279723   1.644   5.132   3.345  0.2506  0.2630 -0.5706
19411TIP3    H179724   1.602   5.058   3.389  0.6175  0.2163 -0.2948
19411TIP3    H279725   1.574   5.196   3.334 -0.3111 -0.5232 -1.7322
19412TIP3   OH279726   4.005   2.140   1.773 -0.0027  0.5382 -0.3559
19412TIP3    H179727   4.073   2.148   1.841  0.3505 -2.2995 -0.2437
19412TIP3    H279728   4.032   2.202   1.705  1.5057  1.0147  0.6156
19413TIP3   OH279729   1.140   0.699  11.311 -0.3231  0.3402  0.6826
19413TIP3    H179730   1.072   0.649  11.266 -1.1454  2.9026 -1.1403
19413TIP3    H279731   1.222   0.659  11.282 -0.9504 -0.3214 -0.2571
19414TIP3   OH279732   5.861   1.918   0.164 -0.3197 -0.0145  0.5466
19414TIP3    H179733   5.848   1.972   0.242  0.4909 -0.0745  0.7441
19414TIP3    H279734   5.902   1.976   0.101 -0.9282  0.0187  0.1838
19415TIP3   OH279735   1.733   6.149   1.046 -0.3996  0.0954 -0.3235
19415TIP3    H179736   1.765   6.215   0.984  0.8372 -0.9192 -0.8147
19415TIP3    H279737   1.778   6.069   1.020  2.0822  0.0660  3.3201
19416TIP3   OH279738   3.805   5.924   0.405  0.3610 -0.2024  0.0788
19416TIP3    H179739   3.722   5.932   0.452  0.9039  0.6947  0.9442
19416TIP3    H279740   3.854   5.856   0.452  0.2940 -0.4088 -0.1497
19417TIP3   OH279741   6.303   3.613   0.363 -0.2473  0.3991  0.0272
19417TIP3    H179742   6.293   3.604   0.457 -2.0982 -1.3881 -0.2676
19417TIP3    H279743   6.301   3.708   0.347  0.9936  0.7659  1.8156
19418TIP3   OH279744   4.248   3.044  13.619  0.1549 -0.0702  0.3099
19418TIP3    H179745   4.200   2.961  13.616 -1.9033  1.0768 -0.9941
19418TIP3    H279746   4.298   3.045  13.537 -0.3411  0.2524  0.0080
19419TIP3   OH279747   1.565   1.622  14.833 -0.1027  0.1237  1.2731
19419TIP3    H179748   1.484   1.590  14.873 -1.6599  2.1035 -0.0992
19419TIP3    H279749   1.604   1.678  14.899 -0.5385  0.1694  1.4989
19420TIP3   OH279750   6.719   2.129  12.044  0.0114 -0.0619  0.0628
19420TIP3    H179751   6.669   2.147  12.124  0.8267 -0.0067  0.5703
19420TIP3    H279752   6.788   2.195  12.043  1.3725 -1.4202  0.5012
19421TIP3   OH279753   4.638   5.076  16.457  0.7594  0.5289  0.1183
19421TIP3    H179754   4.597   5.056  16.541 -0.9600  0.7996 -0.5948
19421TIP3    H279755   4.599   5.160  16.430  1.4210  0.5487 -0.8560
19422TIP3   OH279756   5.476   3.121   3.715 -0.2117 -0.0467 -0.6492
19422TIP3    H179757   5.391   3.096   3.749 -0.3720 -1.0233 -1.6990
19422TIP3    H279758   5.518   3.170   3.786 -1.5428  0.2420 -0.0467
19423TIP3   OH279759   0.093   6.463   1.631  0.1635  0.4052 -0.1111
19423TIP3    H179760   0.084   6.399   1.701  0.9115  1.1415  0.6746
19423TIP3    H279761   0.170   6.514   1.654 -0.1821  1.3385 -0.9308
19424TIP3   OH279762   2.470   1.905   3.709  0.2381 -0.3977 -0.0448
19424TIP3    H179763   2.407   1.971   3.679 -0.4505  0.3798  2.8540
19424TIP3    H279764   2.555   1.938   3.680 -0.3897 -0.0798 -1.6546
19425TIP3   OH279765   3.010   2.309  14.640 -0.3610  0.2914 -0.4687
19425TIP3    H179766   3.068   2.342  14.572  0.5650  0.2276  0.2615
19425TIP3    H279767   3.052   2.336  14.722 -1.9264  1.1981  0.0830
19426TIP3   OH279768   2.360   2.938  14.022 -0.1544  0.1544 -0.4582
19426TIP3    H179769   2.299   2.942  14.096  0.1705 -0.8596 -0.1257
19426TIP3    H279770   2.318   2.879  13.960 -0.6055  1.2914 -1.2830
19427TIP3   OH279771   5.383   3.059   5.038 -0.0082  0.3651  0.4081
19427TIP3    H179772   5.318   3.043   4.969  1.1289  0.0705 -0.6268
19427TIP3    H279773   5.430   2.976   5.046  1.4996  1.1193 -0.2349
19428TIP3   OH279774   1.538   6.572   2.896 -0.4138 -0.2982 -0.2969
19428TIP3    H179775   1.489   6.654   2.891 -1.3930 -0.7601  1.3478
19428TIP3    H279776   1.592   6.580   2.975  0.6221 -0.6536 -0.9363
19429TIP3   OH279777   6.706   5.734   5.145 -0.5759  0.3641  0.3422
19429TIP3    H179778   6.748   5.648   5.141 -0.7636  0.2897 -0.0704
19429TIP3    H279779   6.773   5.792   5.181 -0.8994 -0.2442  2.0465
19430TIP3   OH279780   1.362   1.222  16.781  0.1326  0.5001  0.3557
19430TIP3    H179781   1.322   1.249  16.698 -0.0461  1.4733  0.7422
19430TIP3    H279782   1.426   1.156  16.756 -0.9627 -0.3158 -0.3928
19431TIP3   OH279783   1.265   0.736  14.113  0.4716  0.2837 -0.1065
19431TIP3    H179784   1.249   0.688  14.032  1.1242 -0.4408  0.1856
19431TIP3    H279785   1.184   0.725  14.163  0.5422 -0.3644 -0.1211
19432TIP3   OH279786   2.751   3.358   4.921  0.3068  0.4621  0.0143
19432TIP3    H179787   2.716   3.270   4.912  1.9979 -0.2114 -0.3347
19432TIP3    H279788   2.769   3.367   5.015 -0.2687  0.6051  0.1124
19433TIP3   OH279789   6.691   2.199  14.672  0.3605  0.4899  0.6922
19433TIP3    H179790   6.713   2.233  14.759  2.2785  0.7023  0.1589
19433TIP3    H279791   6.773   2.167  14.637 -0.6244 -0.7667 -0.5665
19434TIP3   OH279792   3.474   0.546   0.086 -0.5024  0.6457 -0.2100
19434TIP3    H179793   3.450   0.464   0.043  0.2066  0.3556 -0.0576
19434TIP3    H279794   3.545   0.582   0.033 -1.2192  1.4890 -0.6361
19435TIP3   OH279795   4.434   3.745   5.549  0.1812 -0.2175 -0.2490
19435TIP3    H179796   4.405   3.827   5.508  0.9101 -0.6117 -1.6069
19435TIP3    H279797   4.495   3.772   5.618  0.0871  0.3976 -0.4055
19436TIP3   OH279798   0.734   0.777   3.154 -0.3546 -0.0762  0.2678
19436TIP3    H179799   0.768   0.835   3.086 -3.0554 -0.8667 -1.9700
19436TIP3    H279800   0.767   0.690   3.131 -2.4976 -0.6084 -1.0960
19437TIP3   OH279801   0.109   2.236  16.998  0.0319  0.3217 -0.1840
19437TIP3    H179802   0.127   2.161  17.055 -1.9082  0.1860  0.3408
19437TIP3    H279803   0.191   2.252  16.952  0.7802 -1.4905  0.4301
19438TIP3   OH279804   5.783   5.475   0.310  0.3492 -0.1823 -0.0696
19438TIP3    H179805   5.819   5.548   0.362  0.5935 -0.6991  0.5000
19438TIP3    H279806   5.796   5.502   0.219 -0.5649  0.9834  0.1119
19439TIP3   OH279807   2.040   6.595   3.540 -0.2376 -0.2631  0.6601
19439TIP3    H179808   2.036   6.549   3.624 -0.0169 -0.5122  0.5349
19439TIP3    H279809   2.058   6.686   3.564  0.8324 -0.5040  0.8501
19440TIP3   OH279810   3.747   6.643   4.789  0.4941  0.6494 -0.0230
19440TIP3    H179811   3.734   6.617   4.880 -0.5203  0.6729 -0.1495
19440TIP3    H279812   3.838   6.673   4.785  0.2391  1.6899  1.2480
19441TIP3   OH279813   2.975   5.913  15.233  0.0722  0.5672 -0.3879
19441TIP3    H179814   2.900   5.914  15.292  0.5735  0.7437  0.2499
19441TIP3    H279815   3.045   5.957  15.281  1.2751 -1.5782 -0.0353
19442TIP3   OH279816   5.913   2.429  13.431  1.0041  0.2416  0.2790
19442TIP3    H179817   5.945   2.519  13.437 -1.4437  1.1474  0.7608
19442TIP3    H279818   5.898   2.402  13.522 -0.0057  0.0381  0.0677
19443TIP3   OH279819   3.617   2.444  13.769  0.5667 -0.8613  0.2557
19443TIP3    H179820   3.576   2.358  13.778  0.3202 -0.6924  0.7683
19443TIP3    H279821   3.672   2.453  13.846  1.6925 -1.1397 -0.4887
19444TIP3   OH279822   0.645   6.343   3.608 -0.0706  0.0895  0.1033
19444TIP3    H179823   0.599   6.420   3.574 -2.2605 -1.2375 -0.1715
19444TIP3    H279824   0.610   6.270   3.556 -0.1950 -1.4474  2.1988
19445TIP3   OH279825   6.403   4.642   3.945  0.3547  0.3889  0.6479
19445TIP3    H179826   6.331   4.702   3.925 -0.2561 -0.3454  0.6177
19445TIP3    H279827   6.459   4.645   3.868  1.4760  2.5145  1.4605
19446TIP3   OH279828   3.785   6.602   2.044  0.1540 -0.2787 -0.2171
19446TIP3    H179829   3.735   6.606   2.125 -1.1799 -1.4137 -0.9304
19446TIP3    H279830   3.848   6.532   2.058  1.2384  0.8145  0.5046
19447TIP3   OH279831   4.859   2.477  15.677 -0.1183  0.7046  0.0584
19447TIP3    H179832   4.890   2.435  15.757  1.4313  1.9513  0.1492
19447TIP3    H279833   4.786   2.531  15.704  0.2188  0.8979  0.5826
19448TIP3   OH279834   1.898   2.843  12.149  0.2512  0.1838 -0.0175
19448TIP3    H179835   1.814   2.798  12.153  0.3066  0.1586  2.5959
19448TIP3    H279836   1.961   2.775  12.129 -0.3368  0.3107 -2.6942
19449TIP3   OH279837   3.262   1.707  14.093 -0.0992 -0.1003  0.2775
19449TIP3    H179838   3.217   1.771  14.149 -1.0606 -2.4043  2.2992
19449TIP3    H279839   3.232   1.727  14.005 -0.6092  2.0028  0.8676
19450TIP3   OH279840   4.796   5.812   0.587 -0.3255  0.3228 -0.0824
19450TIP3    H179841   4.855   5.756   0.637 -0.5519  0.8174  0.7641
19450TIP3    H279842   4.714   5.811   0.637 -0.6261  0.6563 -0.5598
19451TIP3   OH279843   4.081   0.029  13.168 -0.2820  0.5923 -0.1296
19451TIP3    H179844   4.078   0.003  13.076  0.4674 -0.6229  0.1664
19451TIP3    H279845   4.174   0.034  13.189 -0.3763  2.8623  0.0606
19452TIP3   OH279846   3.776   2.938   2.488 -0.4300 -0.1358  0.1938
19452TIP3    H179847   3.856   2.967   2.443 -0.4146  1.4832  1.1775
19452TIP3    H279848   3.705   2.970   2.434 -0.4088  1.1734  0.9203
19453TIP3   OH279849   6.502   3.970   5.407  0.7981 -0.7717 -0.3901
19453TIP3    H179850   6.495   4.005   5.496 -0.9937 -2.2771  0.1158
19453TIP3    H279851   6.413   3.946   5.383  1.1367  0.1152 -2.8631
19454TIP3   OH279852   0.129   4.843   5.779 -0.3327 -0.3791  0.3588
19454TIP3    H179853   0.119   4.845   5.684 -0.4856  0.5456  0.3862
19454TIP3    H279854   0.210   4.794   5.794  1.1519  1.7148 -0.3838
19455TIP3   OH279855   3.759   4.986  15.765  0.1684 -0.5886  0.4309
19455TIP3    H179856   3.783   4.914  15.706 -2.2657  0.1049 -1.6006
19455TIP3    H279857   3.801   5.063  15.727 -0.8486 -0.2505 -0.0322
19456TIP3   OH279858   6.443   1.195  10.816 -1.0244  0.3238 -0.1017
19456TIP3    H179859   6.372   1.216  10.756 -2.9821 -0.6934  1.7335
19456TIP3    H279860   6.467   1.105  10.796 -0.3464  0.6003 -0.5841
19457TIP3   OH279861   6.230   5.752   3.525  0.2611 -0.8634 -0.5748
19457TIP3    H179862   6.192   5.741   3.612  0.4280 -0.2080 -0.4110
19457TIP3    H279863   6.207   5.842   3.501  1.1183 -0.6919 -0.7599
19458TIP3   OH279864   2.629   4.664  11.563  0.3278 -0.5107 -0.2954
19458TIP3    H179865   2.696   4.604  11.597  0.9783  0.0615 -0.5318
19458TIP3    H279866   2.639   4.743  11.615  0.5480 -0.0439 -1.0217
19459TIP3   OH279867   3.922   5.136  12.695  0.3166  0.2394 -0.1809
19459TIP3    H179868   3.889   5.123  12.607  0.8633  2.6869 -0.8334
19459TIP3    H279869   3.851   5.180  12.742  0.0096 -1.0814  0.6546
19460TIP3   OH279870   5.942   6.421   4.495 -0.0787  0.0460  0.2669
19460TIP3    H179871   6.033   6.452   4.499 -1.0320  3.6191 -1.1894
19460TIP3    H279872   5.906   6.442   4.581  0.4804 -1.5816  0.9231
19461TIP3   OH279873   6.438   0.726   4.408  0.2853 -0.4640  0.3367
19461TIP3    H179874   6.364   0.683   4.450  0.1078 -0.7538 -0.2766
19461TIP3    H279875   6.408   0.746   4.320  1.2384 -1.4216 -0.2322
19462TIP3   OH279876   3.612   0.954   3.741 -0.0584  0.3579 -0.4589
19462TIP3    H179877   3.532   0.909   3.767 -0.4201  1.9450  1.4147
19462TIP3    H279878   3.584   1.042   3.716  0.7646  0.0071 -2.9216
19463TIP3   OH279879   0.971   0.289   3.208  0.4247 -0.4183  0.0612
19463TIP3    H179880   1.023   0.212   3.231  2.0009 -0.2852 -2.5852
19463TIP3    H279881   0.892   0.254   3.167  1.7031 -0.7960 -2.3207
19464TIP3   OH279882   6.448   4.211   5.837 -0.9033  0.1797 -0.0449
19464TIP3    H179883   6.405   4.293   5.862 -1.6993 -0.4176  0.5841
19464TIP3    H279884   6.481   4.227   5.748  0.6291  1.8268  0.7529
19465TIP3   OH279885   0.828   2.164   5.616  0.2463 -0.6598  0.0018
19465TIP3    H179886   0.846   2.228   5.684 -0.5541  0.0577 -0.4498
19465TIP3    H279887   0.862   2.082   5.651 -0.2989 -0.3397  1.3306
19466TIP3   OH279888   3.653   0.396   2.637 -0.4342  0.5558  0.4754
19466TIP3    H179889   3.568   0.402   2.592 -0.6394  0.7351  0.8826
19466TIP3    H279890   3.710   0.353   2.574 -0.7756  0.6186  0.1186
19467TIP3   OH279891   4.837   5.751   2.595 -0.0918  0.5406  0.0392
19467TIP3    H179892   4.905   5.686   2.615 -0.4442 -0.3899 -1.6236
19467TIP3    H279893   4.881   5.815   2.539 -0.2891  0.6165 -0.0280
19468TIP3   OH279894   2.764   4.473  11.322  0.4606  0.5510  0.7653
19468TIP3    H179895   2.858   4.488  11.328  0.6738 -0.9791  1.7149
19468TIP3    H279896   2.727   4.521  11.397  0.6985 -0.3101  1.4480
19469TIP3   OH279897   5.811   4.650   0.601 -0.5318  0.0968 -0.2684
19469TIP3    H179898   5.720   4.624   0.614 -0.7354  0.8100 -0.2497
19469TIP3    H279899   5.806   4.739   0.567  0.1810  0.4002  0.4031
19470TIP3   OH279900   1.516   2.694   4.785 -0.0758  1.0607  0.0101
19470TIP3    H179901   1.437   2.650   4.816  0.5478 -0.0146  0.1211
19470TIP3    H279902   1.509   2.783   4.820 -0.3542  0.4510  1.6025
19471TIP3   OH279903   2.846   4.906  14.672 -0.2842 -0.3957  0.0033
19471TIP3    H179904   2.915   4.973  14.672  0.6042 -1.2880 -0.2876
19471TIP3    H279905   2.891   4.825  14.698 -0.8122 -1.3683 -1.9128
19472TIP3   OH279906   2.340   3.173  15.487  0.2662 -0.7329 -0.0653
19472TIP3    H179907   2.246   3.169  15.506  0.3975  2.1799  1.8098
19472TIP3    H279908   2.346   3.158  15.392 -2.0390 -1.2094 -0.2004
19473TIP3   OH279909   1.959   2.764  13.169  0.5085  0.0399 -0.4269
19473TIP3    H179910   1.923   2.808  13.246 -0.3524 -0.7551 -0.3564
19473TIP3    H279911   1.973   2.834  13.105  0.8442  0.6477  0.3014
19474TIP3   OH279912   2.501   6.144   2.834  1.0081  0.4466 -0.3399
19474TIP3    H179913   2.461   6.107   2.913  0.8679  0.1440 -0.5498
19474TIP3    H279914   2.443   6.116   2.763  0.9290  1.0291 -0.5073
19475TIP3   OH279915   0.918   3.249  11.483 -0.6460  0.0175 -0.2514
19475TIP3    H179916   0.888   3.220  11.569 -1.4370  0.2161 -0.4492
19475TIP3    H279917   0.903   3.174  11.426  0.9334 -0.5144 -0.0146
19476TIP3   OH279918   2.210   6.751   4.470  0.1141  0.0074 -0.1421
19476TIP3    H179919   2.155   6.677   4.446  0.2054 -0.1069  0.0025
19476TIP3    H279920   2.224   6.741   4.564  0.4733 -0.0222 -0.2000
19477TIP3   OH279921   6.049   2.624   1.182 -0.3444 -0.9406 -0.3273
19477TIP3    H179922   6.073   2.651   1.271  1.3683 -2.4398 -0.2901
19477TIP3    H279923   5.986   2.690   1.154  1.0964  1.0992  0.9942
19478TIP3   OH279924   6.516   0.550   3.483  0.5076 -0.1290 -0.7805
19478TIP3    H179925   6.494   0.618   3.420  1.2196 -1.3155 -2.3798
19478TIP3    H279926   6.492   0.468   3.439 -0.9564 -0.9323  1.3449
19479TIP3   OH279927   6.606   2.091   0.792  0.3374  0.4187 -0.0639
19479TIP3    H179928   6.603   2.064   0.884 -0.2219  0.1923 -0.1414
19479TIP3    H279929   6.636   2.182   0.794  0.8565  0.2463  0.3022
19480TIP3   OH279930   5.308   3.459   1.323  0.1252 -0.4153  0.2054
19480TIP3    H179931   5.224   3.456   1.369  0.5163 -0.3609  0.9345
19480TIP3    H279932   5.373   3.442   1.391  0.6916 -0.7048 -0.4020
19481TIP3   OH279933   6.345   1.784  16.047 -0.0256 -0.3858  0.6316
19481TIP3    H179934   6.269   1.836  16.073 -0.3183 -0.7382  0.4805
19481TIP3    H279935   6.343   1.707  16.104 -0.4310 -0.9535 -0.1388
19482TIP3   OH279936   0.538   6.609   3.613 -0.2004  0.3363 -0.1856
19482TIP3    H179937   0.509   6.696   3.586  0.3741 -0.1574 -2.6350
19482TIP3    H279938   0.573   6.622   3.701 -3.1813  1.8722  0.9132
19483TIP3   OH279939   6.707   4.309   1.218  0.4496  0.3835  0.0612
19483TIP3    H179940   6.745   4.251   1.284  0.5955  0.1049 -0.2617
19483TIP3    H279941   6.773   4.312   1.148  0.6492  1.3070  0.2726
19484TIP3   OH279942   3.743   1.485   2.480 -0.5976 -0.4860  0.1087
19484TIP3    H179943   3.739   1.513   2.571  0.2717  0.6154 -0.1615
19484TIP3    H279944   3.653   1.495   2.448 -0.4148  1.8554  0.1146
19485TIP3   OH279945   3.553   1.487   3.327  0.6675 -0.1209  0.5593
19485TIP3    H179946   3.607   1.498   3.405  0.3040  2.1692  0.5830
19485TIP3    H279947   3.607   1.523   3.256  0.6451 -1.3597 -0.1056
19486TIP3   OH279948   4.980   3.905   3.830  0.4548  0.1560  0.3303
19486TIP3    H179949   4.953   3.840   3.765  1.2688 -0.2297  0.3636
19486TIP3    H279950   5.011   3.979   3.778 -1.2642  0.8934  0.2863
19487TIP3   OH279951   2.351   6.329   2.627  0.8149  0.3490 -0.0744
19487TIP3    H179952   2.283   6.266   2.649  0.8100  0.4082  0.0824
19487TIP3    H279953   2.343   6.342   2.532  0.4804  0.5082 -0.0238
19488TIP3   OH279954   2.085   5.073  15.527  0.2359 -1.2230 -0.4253
19488TIP3    H179955   2.130   5.122  15.596 -2.1140  1.5227 -0.6539
19488TIP3    H279956   2.134   5.091  15.448  1.0652 -1.6757 -0.0228
19489TIP3   OH279957   6.814   3.913  10.529 -0.1664 -0.2207  0.0479
19489TIP3    H179958   6.744   3.933  10.590  0.0388 -1.7486  0.8291
19489TIP3    H279959   6.795   3.824  10.499  0.8039 -0.2160 -0.6223
19490TIP3   OH279960   4.099   3.271   0.353  0.2718 -0.5135  0.1163
19490TIP3    H179961   4.028   3.247   0.413  0.3938  0.0546  0.4959
19490TIP3    H279962   4.113   3.193   0.300 -1.1525 -0.3984 -0.4812
19491TIP3   OH279963   5.519   1.337  14.644 -0.0680  0.5866  0.3668
19491TIP3    H179964   5.444   1.282  14.625  0.0529  0.7520 -0.6953
19491TIP3    H279965   5.579   1.281  14.694 -0.9705  0.5232  1.3959
19492TIP3   OH279966   3.726   4.761   4.988 -0.1377  0.1614 -0.4871
19492TIP3    H179967   3.685   4.679   5.017 -0.8680  1.1087  1.3606
19492TIP3    H279968   3.697   4.771   4.897 -0.0650 -1.5834 -0.7420
19493TIP3   OH279969   2.738   3.706   4.807  0.1883 -0.2276 -0.2129
19493TIP3    H179970   2.756   3.686   4.899 -0.5372  1.1944  0.2713
19493TIP3    H279971   2.759   3.625   4.761  1.1224 -0.7974  1.1225
19494TIP3   OH279972   2.391   2.708  12.294 -0.4783 -0.0146  0.1144
19494TIP3    H179973   2.355   2.723  12.381  1.7739  0.5980  0.9892
19494TIP3    H279974   2.424   2.618  12.296 -1.5181 -0.4438 -0.5669
19495TIP3   OH279975   0.771   3.151  12.169 -0.5696  0.4658  0.0494
19495TIP3    H179976   0.716   3.113  12.101 -1.0955 -0.2243  0.8338
19495TIP3    H279977   0.768   3.245  12.153 -0.8461  0.3316 -0.7485
19496TIP3   OH279978   3.414   3.605  10.545 -0.1769  0.3381 -0.3351
19496TIP3    H179979   3.509   3.605  10.543 -0.1800  1.1189 -0.8798
19496TIP3    H279980   3.391   3.549  10.619  0.7267  1.2506  0.6746
19497TIP3   OH279981   0.468   5.984   1.035 -0.1856 -0.4922  0.3288
19497TIP3    H179982   0.503   6.073   1.037  0.3264 -0.6832  2.7123
19497TIP3    H279983   0.462   5.963   0.942  1.1455  1.4486 -0.2574
19498TIP3   OH279984   6.480   0.061   0.825 -0.2656 -0.3391  0.1199
19498TIP3    H179985   6.402   0.036   0.875 -0.2108 -0.6004  0.0767
19498TIP3    H279986   6.543   0.087   0.891  0.6221 -2.8907  0.3829
19499TIP3   OH279987   0.949   3.803  14.682  0.2742 -0.8677 -0.2523
19499TIP3    H179988   1.014   3.804  14.752  0.0876 -1.5734 -0.0632
19499TIP3    H279989   0.931   3.896  14.665  1.1363 -0.6700 -0.1378
19500TIP3   OH279990   1.234   4.746   1.262 -0.4977 -0.0250 -0.7773
19500TIP3    H179991   1.279   4.719   1.342  1.6897  3.1815 -0.7287
19500TIP3    H279992   1.245   4.672   1.202  0.7048 -1.2267  0.8358
19501TIP3   OH279993   5.925   0.662   3.112 -0.2680  0.2642  0.0819
19501TIP3    H179994   5.943   0.595   3.046  1.6824 -0.3432  1.1351
19501TIP3    H279995   5.858   0.623   3.169 -0.3301 -0.1271 -0.2561
19502TIP3   OH279996   1.294   4.367   1.356 -0.6742  0.4805  0.6526
19502TIP3    H179997   1.341   4.408   1.429  0.7137  1.0939 -0.5181
19502TIP3    H279998   1.311   4.273   1.367  0.7188  0.6758  0.3654
19503TIP3   OH279999   2.971   6.711   6.207 -0.1527  0.0760  0.1440
19503TIP3    H180000   2.887   6.668   6.221 -0.4074  0.6102  0.2749
19503TIP3    H280001   3.019   6.697   6.289  0.7043 -2.0005 -0.6365
19504TIP3   OH280002   5.997   4.000  13.830 -0.4309  0.0131  0.1465
19504TIP3    H180003   5.980   3.927  13.889  0.0373  0.0552  0.3365
19504TIP3    H280004   6.027   3.959  13.749  0.2109  0.0060  0.3826
19505TIP3   OH280005   0.786   0.159   1.018 -0.3684  0.1558  0.3565
19505TIP3    H180006   0.834   0.212   0.954 -1.7844 -0.2649 -1.1451
19505TIP3    H280007   0.853   0.117   1.071  0.8181  1.8671  0.2635
19506TIP3   OH280008   5.025   4.004  13.082 -0.3457 -0.1488  0.4948
19506TIP3    H180009   5.052   3.914  13.069 -0.9421 -0.6738  2.4526
19506TIP3    H280010   4.968   4.001  13.160  1.3027  2.1777  1.9379
19507TIP3   OH280011   4.476   3.041  12.079  0.1562  0.4202 -0.5944
19507TIP3    H180012   4.523   3.027  12.162 -1.6699 -2.5487  0.0566
19507TIP3    H280013   4.533   3.005  12.012 -0.2669 -1.3510 -0.0412
19508TIP3   OH280014   3.804   1.594   5.725  0.2297  0.3512 -0.8099
19508TIP3    H180015   3.886   1.606   5.774 -0.4788 -0.8482  0.7404
19508TIP3    H280016   3.811   1.506   5.687  0.2490  0.8025 -1.8890
19509TIP3   OH280017   1.277   5.333   0.290 -0.1657 -0.2545  0.2563
19509TIP3    H180018   1.235   5.368   0.212 -1.6033 -1.4134  0.4505
19509TIP3    H280019   1.211   5.342   0.359 -0.4809 -2.8709  0.3993
19510TIP3   OH280020   5.070   2.325  12.232  0.0142  0.3496 -0.8421
19510TIP3    H180021   5.143   2.327  12.293  0.0305  1.3253 -0.8656
19510TIP3    H280022   4.995   2.356  12.283 -0.3942 -0.6827 -0.8065
19511TIP3   OH280023   0.567   1.490  14.140  0.4710 -1.0658 -0.0680
19511TIP3    H180024   0.483   1.533  14.153  1.0702 -0.6125  2.8568
19511TIP3    H280025   0.549   1.397  14.156  0.7047 -0.8248  1.7391
19512TIP3   OH280026   4.679   1.751   4.738  0.4702  0.3983  0.0735
19512TIP3    H180027   4.614   1.681   4.743  0.0776  0.8347  2.3942
19512TIP3    H280028   4.669   1.787   4.650 -0.2207 -1.5814 -0.7188
19513TIP3   OH280029   2.874   4.146  14.143 -0.3393  0.1525 -0.3047
19513TIP3    H180030   2.848   4.234  14.116 -1.3122 -0.1546 -0.4078
19513TIP3    H280031   2.798   4.091  14.124 -0.4935 -0.3714  1.5520
19514TIP3   OH280032   4.311   2.513  12.795 -0.6278  0.0231 -0.8421
19514TIP3    H180033   4.224   2.514  12.756 -0.6338  0.0986 -0.8256
19514TIP3    H280034   4.371   2.533  12.723 -0.5219 -1.2390 -1.1245
19515TIP3   OH280035   5.058   2.045  15.387  0.7484 -0.0831  0.3043
19515TIP3    H180036   5.051   2.140  15.398 -1.5215 -0.0519 -0.8517
19515TIP3    H280037   5.101   2.034  15.302  2.0432 -0.1342  0.9456
19516TIP3   OH280038   1.736   2.368  16.897 -0.0842 -0.4159 -0.1207
19516TIP3    H180039   1.744   2.298  16.962  1.1375 -1.9659 -1.8351
19516TIP3    H280040   1.679   2.332  16.830  1.0546 -0.0501 -1.3325
19517TIP3   OH280041   1.234   4.697  12.847 -0.0835 -0.0456 -0.6807
19517TIP3    H180042   1.257   4.770  12.904 -1.3211 -0.5801  0.5613
19517TIP3    H280043   1.156   4.659  12.887  1.5299 -3.1722 -0.2190
19518TIP3   OH280044   2.404   4.738  13.116 -0.1715 -0.2012  0.3343
19518TIP3    H180045   2.499   4.732  13.126 -0.4200 -2.2381  2.3050
19518TIP3    H280046   2.380   4.657  13.071 -0.8427  1.2506 -2.1127
19519TIP3   OH280047   5.700   2.365  16.444  1.2006  0.0239  0.0178
19519TIP3    H180048   5.745   2.283  16.462  2.0465  0.8729  2.1491
19519TIP3    H280049   5.768   2.424  16.414  0.3763 -0.3419 -2.8712
19520TIP3   OH280050   0.628   4.341   4.410 -0.2638  1.0154 -0.1621
19520TIP3    H180051   0.673   4.419   4.444  0.9149  0.4013 -0.2687
19520TIP3    H280052   0.663   4.330   4.322  1.6284 -1.1650  0.7787
19521TIP3   OH280053   5.118   2.159   3.358 -0.3522 -0.3721  0.0379
19521TIP3    H180054   5.036   2.160   3.308  0.5275 -0.8435 -1.4961
19521TIP3    H280055   5.186   2.172   3.291  1.0609 -3.3606  0.7399
19522TIP3   OH280056   3.500   3.928   3.795  0.5315  0.6982 -0.7160
19522TIP3    H180057   3.406   3.925   3.813  0.5708  0.8221 -0.4931
19522TIP3    H280058   3.507   3.907   3.701  0.3256  0.1284 -0.6054
19523TIP3   OH280059   0.285   1.872  14.135 -0.3747  0.0426  0.1406
19523TIP3    H180060   0.270   1.888  14.042 -1.2456  2.1140  0.5904
19523TIP3    H280061   0.329   1.950  14.167  0.6689 -0.9811  1.3453
19524TIP3   OH280062   1.946   5.853  11.845 -0.0384  0.3295 -0.7277
19524TIP3    H180063   2.029   5.821  11.880 -0.8825  0.4014  1.4571
19524TIP3    H280064   1.879   5.803  11.891 -1.3157  2.9478  0.4883
19525TIP3   OH280065   2.395   0.936  15.067  0.0395  0.6293 -0.1606
19525TIP3    H180066   2.304   0.911  15.051  0.2096  0.2121 -0.5169
19525TIP3    H280067   2.415   0.899  15.153  0.1794 -0.1873 -0.5299
19526TIP3   OH280068   4.041   2.894   1.778  0.2014 -0.4003 -0.4947
19526TIP3    H180069   4.067   2.874   1.688  0.8421 -2.0532  0.0236
19526TIP3    H280070   4.087   2.830   1.831  0.1907  0.8302  1.0779
19527TIP3   OH280071   4.939   4.627   1.694 -0.0310 -0.3769 -0.3125
19527TIP3    H180072   4.943   4.637   1.789 -0.8955 -0.0956 -0.3026
19527TIP3    H280073   4.896   4.542   1.681  0.2769 -0.5129 -0.4561
19528TIP3   OH280074   4.087   0.032   3.015  0.3831  0.1914 -0.2705
19528TIP3    H180075   3.997   0.046   2.986  1.0257  0.0182 -2.5516
19528TIP3    H280076   4.104  -0.060   2.997  0.1848 -0.5957  2.8717
19529TIP3   OH280077   0.061   1.801  16.708 -0.0056 -0.6348 -0.3946
19529TIP3    H180078   0.087   1.880  16.754 -0.2394 -0.7917  0.0147
19529TIP3    H280079   0.005   1.832  16.637 -1.1343 -0.5164  0.5237
19530TIP3   OH280080   0.230   2.095  15.334 -0.6017  0.1039 -0.3248
19530TIP3    H180081   0.258   2.126  15.248  1.0505  0.7237  0.4217
19530TIP3    H280082   0.229   2.173  15.389  1.6549 -0.7492  1.0524
19531TIP3   OH280083   2.815   2.621  11.074  0.6321 -0.1085  0.4786
19531TIP3    H180084   2.796   2.555  11.141 -0.6506  1.7169  2.0145
19531TIP3    H280085   2.886   2.583  11.023  1.3774 -1.7898  2.6004
19532TIP3   OH280086   2.822   0.060   4.163 -0.3174 -0.1592  0.2362
19532TIP3    H180087   2.804   0.066   4.257  1.9346 -0.5312  0.7596
19532TIP3    H280088   2.914   0.083   4.155 -1.1605  2.9163 -2.3247
19533TIP3   OH280089   2.568   3.849   1.101 -0.0412  0.6120  0.0261
19533TIP3    H180090   2.573   3.941   1.073 -1.9291  0.5639 -0.5722
19533TIP3    H280091   2.542   3.802   1.022 -0.8142 -0.1982  0.7563
19534TIP3   OH280092   0.814   4.721  17.078 -0.3475  0.0563 -0.6638
19534TIP3    H180093   0.772   4.714  16.992 -0.8199  1.0644 -0.5297
19534TIP3    H280094   0.907   4.732  17.058 -0.1291 -2.0631 -0.9677
19535TIP3   OH280095   5.553   2.549  11.699 -0.3241  0.0487  0.5473
19535TIP3    H180096   5.547   2.503  11.783 -0.6547  0.1520  0.5817
19535TIP3    H280097   5.537   2.641  11.721  2.0105  0.4658  0.7342
19536TIP3   OH280098   5.967   4.416   2.705 -0.1219  0.1036 -0.2745
19536TIP3    H180099   5.940   4.398   2.795  2.3379  0.1733  0.5655
19536TIP3    H280100   5.906   4.483   2.675 -1.8729 -0.9317  0.8167
19537TIP3   OH280101   4.072   2.123   6.166  0.1061  0.0047 -0.3794
19537TIP3    H180102   4.077   2.079   6.250 -0.6969 -1.0053 -0.8415
19537TIP3    H280103   4.102   2.058   6.102 -0.4830  0.3370 -1.0109
19538TIP3   OH280104   0.480   0.332  12.643 -0.3526  0.1876  0.2989
19538TIP3    H180105   0.565   0.343  12.601  0.2903  0.3794  1.6198
19538TIP3    H280106   0.467   0.237  12.645 -0.4182  0.1755 -0.3575
19539TIP3   OH280107   2.209   2.366  16.887  0.1920 -0.2917 -0.0317
19539TIP3    H180108   2.158   2.445  16.868 -0.2551 -0.3421  0.9168
19539TIP3    H280109   2.288   2.398  16.931  0.8551 -0.2417 -1.2069
19540TIP3   OH280110   5.843   5.665  13.943 -0.0273  0.0686 -0.2097
19540TIP3    H180111   5.935   5.658  13.918  0.4172  0.6674  1.1902
19540TIP3    H280112   5.824   5.583  13.989  0.0212  0.2552  0.1472
19541TIP3   OH280113   1.125   4.976   5.848 -0.2324 -0.4402  0.7186
19541TIP3    H180114   1.166   4.895   5.819 -0.9845 -0.0643 -1.5730
19541TIP3    H280115   1.066   5.000   5.777 -0.3605  1.8876  1.5350
19542TIP3   OH280116   0.147   0.196  11.969 -0.3832 -0.5881  0.2519
19542TIP3    H180117   0.233   0.234  11.986 -0.8790  0.8859 -0.3858
19542TIP3    H280118   0.092   0.229  12.040 -0.4542 -1.4746  0.6219
19543TIP3   OH280119   0.974   3.813  13.341 -0.9072 -0.1250  0.5586
19543TIP3    H180120   0.948   3.859  13.420 -0.7735  0.5538  0.2144
19543TIP3    H280121   0.893   3.775  13.307 -1.3730  1.4139 -0.1432
19544TIP3   OH280122   3.349   4.462  14.878  0.2570  0.0730  0.0548
19544TIP3    H180123   3.410   4.529  14.911  0.6989 -0.6438  0.7423
19544TIP3    H280124   3.318   4.418  14.957  2.9407 -3.1201 -0.4395
19545TIP3   OH280125   1.284   0.239   3.025  0.1393  0.4098  0.0524
19545TIP3    H180126   1.224   0.308   2.999 -0.8507 -0.7201 -0.7498
19545TIP3    H280127   1.232   0.159   3.020  1.6873 -0.5893 -0.5541
19546TIP3   OH280128   0.232   6.317   5.658  0.5841  0.1879 -0.0332
19546TIP3    H180129   0.148   6.283   5.689  0.2703  1.4988  0.6499
19546TIP3    H280130   0.253   6.264   5.581  0.4867 -1.9355  1.3434
19547TIP3   OH280131   6.245   2.916  13.990 -0.0963 -0.2274 -0.0826
19547TIP3    H180132   6.199   2.989  13.949  1.0279 -0.0009 -0.9872
19547TIP3    H280133   6.269   2.858  13.918  1.4307 -0.1032  0.2936
19548TIP3   OH280134   2.744   4.925  16.200 -0.2482  0.6148 -0.4515
19548TIP3    H180135   2.737   4.860  16.130 -0.0714  1.5161 -1.3226
19548TIP3    H280136   2.813   4.984  16.170  1.8836 -0.5432  1.7758
19549TIP3   OH280137   0.838   2.148  14.164 -0.4227  0.2155 -0.4110
19549TIP3    H180138   0.770   2.205  14.128 -0.9921 -1.0322 -1.3867
19549TIP3    H280139   0.810   2.059  14.140  0.7056 -0.4479  0.6122
19550TIP3   OH280140   1.888   0.290   2.686 -0.9607 -0.1023  0.0070
19550TIP3    H180141   1.806   0.308   2.732 -1.2779  0.2952 -0.7009
19550TIP3    H280142   1.901   0.196   2.695 -0.5617  0.0818  1.6545
19551TIP3   OH280143   2.738   5.267  14.466  0.5601 -0.2214 -0.1577
19551TIP3    H180144   2.700   5.355  14.464 -0.3307 -0.5362 -3.8290
19551TIP3    H280145   2.711   5.232  14.552 -2.0162  1.8681  0.0335
19552TIP3   OH280146   5.436   5.700  14.408  0.4674  0.4152 -0.0330
19552TIP3    H180147   5.477   5.710  14.494 -0.4665 -0.1381  0.4953
19552TIP3    H280148   5.374   5.772  14.402 -0.4684 -0.3412  0.3612
19553TIP3   OH280149   0.682   1.554   2.815 -0.5837  0.5494 -0.3458
19553TIP3    H180150   0.771   1.539   2.848 -0.7870  1.5540  0.7156
19553TIP3    H280151   0.695   1.606   2.736 -0.1772 -0.3563 -0.8931
19554TIP3   OH280152   2.057   6.786   0.148 -0.2868  0.2201  0.4907
19554TIP3    H180153   2.069   6.703   0.102  1.0339  0.1871  0.8516
19554TIP3    H280154   1.966   6.809   0.132 -1.2872 -2.2931  2.0746
19555TIP3   OH280155   5.030   2.212   5.671  0.0379  0.0308  0.4485
19555TIP3    H180156   5.016   2.151   5.599  1.1669  0.2033  0.0574
19555TIP3    H280157   5.095   2.169   5.727  0.6259  0.7267  0.3216
19556TIP3   OH280158   2.278   6.540   0.167 -0.2269 -0.0360 -0.4849
19556TIP3    H180159   2.300   6.627   0.199  2.1227  0.1340 -2.2826
19556TIP3    H280160   2.278   6.484   0.245  2.2144  0.8947  0.2785
19557TIP3   OH280161   3.918   2.300   5.926 -0.0741 -0.2181  0.1503
19557TIP3    H180162   3.840   2.338   5.886  1.2454  0.8022 -1.5598
19557TIP3    H280163   3.918   2.209   5.897  0.0415  0.1168 -0.9275
19558TIP3   OH280164   3.764   2.312   4.720 -0.1398 -0.0064  0.2611
19558TIP3    H180165   3.823   2.308   4.645 -2.0783 -1.4960 -1.2933
19558TIP3    H280166   3.813   2.361   4.786  2.1754  0.2010 -1.4704
19559TIP3   OH280167   5.870   5.781  17.287  0.0814  0.1589 -0.4182
19559TIP3    H180168   5.865   5.800  17.194 -0.5538 -1.2885 -0.7024
19559TIP3    H280169   5.788   5.737  17.308  1.4148 -2.2223  0.1546
19560TIP3   OH280170   4.887   2.574   5.042 -0.1093  0.1517  0.3372
19560TIP3    H180171   4.974   2.607   5.063 -1.0263  2.7235  0.4440
19560TIP3    H280172   4.847   2.556   5.127  0.3375 -1.2096  0.2831
19561TIP3   OH280173   2.695   2.075  15.729 -0.0694 -0.1145  0.0347
19561TIP3    H180174   2.632   2.140  15.699  0.5088  0.5850  0.3200
19561TIP3    H280175   2.683   2.071  15.824  0.2134 -0.0892  0.0731
19562TIP3   OH280176   3.421   1.400   4.460  0.0935 -0.5585 -0.0631
19562TIP3    H180177   3.514   1.423   4.469 -0.0184  0.5828 -1.4488
19562TIP3    H280178   3.420   1.330   4.396 -0.0976  0.6483 -1.4299
19563TIP3   OH280179   5.042   5.603   2.679  0.2566 -0.1059  0.4501
19563TIP3    H180180   5.123   5.652   2.688 -0.4012  1.2839 -0.7424
19563TIP3    H280181   5.006   5.600   2.768 -0.0619  2.3546  0.4962
19564TIP3   OH280182   4.135   2.628   5.577  0.5787  0.1431  0.1816
19564TIP3    H180183   4.110   2.619   5.485 -0.1712  1.3647  0.2438
19564TIP3    H280184   4.132   2.539   5.612  2.0367 -0.5212 -1.2419
19565TIP3   OH280185   2.938   3.807  12.837  0.5815 -0.1058  0.0190
19565TIP3    H180186   2.933   3.772  12.926  0.2087 -1.4516 -0.5087
19565TIP3    H280187   2.889   3.889  12.841  2.3100  0.9364  1.5204
19566TIP3   OH280188   4.430   1.870   0.158  0.0831  0.0995 -0.3767
19566TIP3    H180189   4.368   1.943   0.165 -1.3358 -1.1531  0.5956
19566TIP3    H280190   4.376   1.792   0.156  1.6424 -1.0741  0.6591
19567TIP3   OH280191   0.333   4.317  11.125  0.9889 -0.5663 -0.1706
19567TIP3    H180192   0.351   4.408  11.151 -1.4237  0.2337 -0.9963
19567TIP3    H280193   0.313   4.322  11.032 -0.5002 -1.7088  0.0486
19568TIP3   OH280194   4.459   1.370  13.106 -0.8464 -0.2230  0.3664
19568TIP3    H180195   4.547   1.402  13.085 -0.3735 -2.2261 -1.1038
19568TIP3    H280196   4.465   1.339  13.196 -0.4946  1.0463  0.7916
19569TIP3   OH280197   0.604   0.629  14.908  0.1972 -0.0027  0.1810
19569TIP3    H180198   0.631   0.557  14.965 -0.4166 -0.3938 -0.0103
19569TIP3    H280199   0.511   0.641  14.926 -0.2903 -0.9070 -1.5554
19570TIP3   OH280200   5.988   2.006  14.722  0.1201 -0.3296  1.3238
19570TIP3    H180201   6.048   1.971  14.656 -1.7628 -0.2336 -0.5490
19570TIP3    H280202   6.031   2.084  14.755  1.8285 -1.2507  1.4022
19571TIP3   OH280203   6.061   5.128   5.099 -0.2567  0.4657 -0.1151
19571TIP3    H180204   5.985   5.118   5.156 -0.0587 -0.6467 -0.0316
19571TIP3    H280205   6.136   5.112   5.156 -0.0137  0.3312 -0.4677
19572TIP3   OH280206   2.799   0.505   3.336 -0.6120  0.1893  0.2961
19572TIP3    H180207   2.764   0.536   3.252 -0.6337 -0.4669  0.0599
19572TIP3    H280208   2.737   0.438   3.364 -0.0496 -0.3197  0.3307
19573TIP3   OH280209   6.736   1.500  13.241 -0.3377  0.1328  0.2166
19573TIP3    H180210   6.663   1.523  13.184  0.1418  0.7590 -0.1523
19573TIP3    H280211   6.803   1.464  13.183 -0.8477 -1.7252  0.7084
19574TIP3   OH280212   2.829   0.616   3.733 -0.4318  0.2459 -0.3151
19574TIP3    H180213   2.736   0.639   3.728 -0.2203  1.5983  1.1427
19574TIP3    H280214   2.830   0.530   3.774 -1.0315  0.4249  0.0968
19575TIP3   OH280215   1.672   6.425  12.501 -0.1842 -0.3035  0.2516
19575TIP3    H180216   1.716   6.495  12.454  0.1909  0.8495  2.1901
19575TIP3    H280217   1.716   6.345  12.474 -0.2223  0.2566 -1.5558
19576TIP3   OH280218   1.620   4.265  15.394  0.3087 -0.2415 -0.1121
19576TIP3    H180219   1.605   4.171  15.405 -0.0051 -0.2457 -0.5519
19576TIP3    H280220   1.641   4.297  15.482 -2.2039 -0.2475  0.5540
19577TIP3   OH280221   2.321   2.097  12.460 -0.1068  0.9073  0.9308
19577TIP3    H180222   2.345   2.005  12.450 -1.4763  0.6939 -0.8132
19577TIP3    H280223   2.278   2.101  12.545 -0.0442 -0.0542  1.0197
19578TIP3   OH280224   1.716   3.678   5.699  0.1364  0.2637  0.4391
19578TIP3    H180225   1.675   3.607   5.650  1.5006  1.2749 -2.3523
19578TIP3    H280226   1.687   3.758   5.655  2.4998  1.1643  0.3481
19579TIP3   OH280227   0.616   3.024  11.961  0.1095 -0.1806  0.0637
19579TIP3    H180228   0.530   2.984  11.945 -0.3689  0.4816  0.9308
19579TIP3    H280229   0.678   2.951  11.955 -0.6022 -0.8104  0.2401
19580TIP3   OH280230   5.657   6.644   6.397  0.2418 -0.7891  0.2443
19580TIP3    H180231   5.633   6.734   6.417 -0.9983 -0.7587 -1.1678
19580TIP3    H280232   5.749   6.648   6.373 -0.5066  0.7457 -2.9469
19581TIP3   OH280233   0.958   5.778  14.133  0.2135  0.0850  0.0320
19581TIP3    H180234   0.895   5.839  14.171 -0.0562  0.4534 -0.9706
19581TIP3    H280235   1.043   5.807  14.167  0.0669  0.9042 -0.2787
19582TIP3   OH280236   1.288   4.330  14.128  0.3319  0.1865 -0.3019
19582TIP3    H180237   1.369   4.280  14.130 -0.2165 -0.7010  0.0927
19582TIP3    H280238   1.230   4.286  14.191 -0.5033  0.7300 -0.6629
19583TIP3   OH280239   5.837   5.396  17.176 -1.0753 -0.1468  0.6096
19583TIP3    H180240   5.879   5.332  17.234 -0.1552  0.1663  0.3083
19583TIP3    H280241   5.830   5.475  17.229 -2.3613 -0.5338  1.0337
19584TIP3   OH280242   5.936   3.928  12.780 -0.0887  0.1423 -0.4965
19584TIP3    H180243   5.923   3.903  12.688 -0.5609  0.6744 -0.5805
19584TIP3    H280244   5.927   3.846  12.828 -1.3777  0.0846 -0.7890
19585TIP3   OH280245   2.330   5.289  10.426  0.3045 -0.0673 -0.1699
19585TIP3    H180246   2.366   5.375  10.448 -0.3657  0.1256  0.1969
19585TIP3    H280247   2.398   5.247  10.374  0.3535  0.9592 -0.9636
19586TIP3   OH280248   2.507   6.669   5.828  0.1634 -0.3057 -0.5579
19586TIP3    H180249   2.534   6.587   5.787  2.0263  0.2498 -0.5437
19586TIP3    H280250   2.534   6.660   5.919 -0.8989 -0.2073 -0.2198
19587TIP3   OH280251   5.350   2.418  17.189  0.5836  0.4266 -0.5213
19587TIP3    H180252   5.428   2.371  17.158 -0.7950 -1.8124 -0.8576
19587TIP3    H280253   5.320   2.369  17.265 -0.5017  1.2415 -0.3868
19588TIP3   OH280254   0.312   3.646   2.747 -0.2751  0.7251  0.3527
19588TIP3    H180255   0.238   3.625   2.691  0.1070 -1.5483  0.6163
19588TIP3    H280256   0.281   3.719   2.802 -1.2438  1.8107 -1.5451
19589TIP3   OH280257   4.036   0.112  15.341  0.8533 -0.0667 -0.2051
19589TIP3    H180258   4.022   0.105  15.247  2.9346  2.1726 -0.7740
19589TIP3    H280259   3.964   0.062  15.379 -0.4223 -0.5305 -2.9512
19590TIP3   OH280260   4.316   4.388   0.468  0.1184 -0.0301 -0.1484
19590TIP3    H180261   4.297   4.339   0.548  1.9047  0.1431  0.4211
19590TIP3    H280262   4.298   4.479   0.492 -3.3703 -0.2933 -1.2584
19591TIP3   OH280263   6.109   2.888  13.085 -0.1243  0.0886 -0.0612
19591TIP3    H180264   6.032   2.918  13.134 -0.2999  1.5990 -1.2065
19591TIP3    H280265   6.127   2.958  13.022  3.1821  0.5506  1.2090
19592TIP3   OH280266   6.495   1.730   0.076 -0.0237  0.9432  0.3160
19592TIP3    H180267   6.461   1.726  -0.013  0.8308 -3.9733 -0.0479
19592TIP3    H280268   6.590   1.736   0.066  0.0190  1.5329  0.9525
19593TIP3   OH280269   0.558   4.711   0.135 -0.1923  0.2526  0.1430
19593TIP3    H180270   0.463   4.712   0.145 -0.1472 -0.0029  0.6085
19593TIP3    H280271   0.573   4.680   0.046 -0.5437  0.3031  0.0651
19594TIP3   OH280272   3.157   3.896  15.007  0.0662 -0.3159 -0.5502
19594TIP3    H180273   3.193   3.893  15.095  2.5729 -2.0843 -1.5291
19594TIP3    H280274   3.198   3.972  14.966  2.8570 -2.2092 -1.5964
19595TIP3   OH280275   4.437   0.083   4.987  0.2964 -0.0319  0.7605
19595TIP3    H180276   4.371   0.153   4.984  1.3065  1.0721 -3.6985
19595TIP3    H280277   4.513   0.123   5.028  0.8829  1.7153 -1.8008
19596TIP3   OH280278   3.250   2.759  16.557  0.4356 -0.1300 -0.3482
19596TIP3    H180279   3.274   2.759  16.465  1.7909 -0.5225 -0.0193
19596TIP3    H280280   3.165   2.715  16.560  1.5322 -2.4727 -1.1761
19597TIP3   OH280281   0.140   4.113   6.393  0.7074  0.3669 -0.0816
19597TIP3    H180282   0.106   4.026   6.415  2.5711 -0.5590 -0.6937
19597TIP3    H280283   0.089   4.172   6.449  1.1468 -1.3451  2.3212
19598TIP3   OH280284   5.812   4.478   4.529  0.2351  0.5157  0.2882
19598TIP3    H180285   5.798   4.562   4.572 -1.1034  0.1671  0.5955
19598TIP3    H280286   5.723   4.445   4.512  0.7039 -1.1293  0.7930
19599TIP3   OH280287   4.878   5.686   4.183  0.1719  0.4539 -0.1257
19599TIP3    H180288   4.868   5.622   4.254  1.5970 -0.0306 -0.3331
19599TIP3    H280289   4.846   5.769   4.221  0.6388  0.1456  0.9941
19600TIP3   OH280290   0.237   2.262   5.004  0.7534  0.6165 -0.2096
19600TIP3    H180291   0.194   2.179   4.987  2.0029 -0.5287  1.8895
19600TIP3    H280292   0.265   2.293   4.917  1.1446 -1.6256 -0.9339
19601TIP3   OH280293   4.914   2.111   0.993  0.2201 -0.0100 -0.1408
19601TIP3    H180294   4.983   2.076   0.937 -0.4413  1.0373 -1.6621
19601TIP3    H280295   4.844   2.137   0.933  0.3426  3.1852  0.9237
19602TIP3   OH280296   4.578   2.726  14.121 -0.4835  0.0163  0.0456
19602TIP3    H180297   4.544   2.776  14.195  0.2893 -2.4529  2.2120
19602TIP3    H280298   4.633   2.788  14.073 -0.3134  1.4934  2.0350
19603TIP3   OH280299   2.408   1.405   3.943 -0.0427  0.1380  0.2649
19603TIP3    H180300   2.476   1.467   3.919  0.7629 -0.7962  0.0403
19603TIP3    H280301   2.456   1.329   3.977 -0.8071 -1.5241 -2.1265
19604TIP3   OH280302   5.903   5.579   0.732 -0.0803  0.2713  0.6017
19604TIP3    H180303   5.845   5.597   0.805  1.6130  0.0779  2.0551
19604TIP3    H280304   5.940   5.493   0.751  1.5100  0.8567  0.3006
19605TIP3   OH280305   5.232   1.804   5.862  0.1834  0.2402 -0.2117
19605TIP3    H180306   5.295   1.824   5.792  3.1252 -0.4676  2.0515
19605TIP3    H280307   5.263   1.854   5.937 -2.5463  0.5335  0.8194
19606TIP3   OH280308   1.233   3.063  14.087 -0.2058 -0.4179  0.3021
19606TIP3    H180309   1.195   2.990  14.038 -2.5323  0.1375  1.1797
19606TIP3    H280310   1.320   3.075  14.048  0.2045 -3.5120  0.0130
19607TIP3   OH280311   6.442   5.677   1.416  0.0737  0.1021  0.1688
19607TIP3    H180312   6.463   5.632   1.334 -1.6668  2.0406 -1.4324
19607TIP3    H280313   6.505   5.640   1.479  0.2960 -2.8031 -1.5279
19608TIP3   OH280314   5.135   3.027  16.185  0.2020  0.2240  0.4593
19608TIP3    H180315   5.199   2.956  16.187  0.2521  0.2825  0.9062
19608TIP3    H280316   5.132   3.059  16.275  0.5277  1.1046  0.1614
19609TIP3   OH280317   3.347   4.548  16.873  0.0600  0.1502  0.5185
19609TIP3    H180318   3.379   4.636  16.894  0.9788 -0.1684  0.5004
19609TIP3    H280319   3.417   4.489  16.902 -0.0491 -0.5055 -0.4974
19610TIP3   OH280320   1.079   5.197   0.712 -0.1752 -0.0552  0.3923
19610TIP3    H180321   0.988   5.211   0.739 -1.2641 -2.1135 -1.8849
19610TIP3    H280322   1.101   5.111   0.748 -0.2924 -1.0203 -1.7121
19611TIP3   OH280323   5.289   2.911  11.386  0.4501 -0.1973  0.2404
19611TIP3    H180324   5.254   2.894  11.473 -0.9560  2.1409  0.2184
19611TIP3    H280325   5.256   2.998  11.363 -0.9874 -1.5130 -3.5033
19612TIP3   OH280326   0.959   3.715   4.373 -0.2390  0.4372 -0.3253
19612TIP3    H180327   0.894   3.652   4.344 -0.4468 -0.5488  2.0778
19612TIP3    H280328   1.017   3.666   4.432  1.1447  1.8885 -0.3948
19613TIP3   OH280329   1.799   0.399  17.043 -0.4203 -0.3377  0.0755
19613TIP3    H180330   1.780   0.383  17.135 -0.0237  0.3730  0.2877
19613TIP3    H280331   1.883   0.445  17.043 -1.2375  1.2411 -0.5116
19614TIP3   OH280332   6.339   6.285  13.941  0.0687  0.1112 -0.3520
19614TIP3    H180333   6.250   6.260  13.916  0.8139 -1.9963 -1.1062
19614TIP3    H280334   6.356   6.365  13.892 -2.1349  1.8516  1.4910
19615TIP3   OH280335   6.171   3.142  15.818 -0.2625 -0.3150 -0.6007
19615TIP3    H180336   6.144   3.216  15.764 -1.0871 -1.1676 -1.3906
19615TIP3    H280337   6.122   3.153  15.900  0.2734  0.4672 -0.3715
19616TIP3   OH280338   3.029   3.301  12.268  0.0059 -0.0991 -0.3789
19616TIP3    H180339   3.085   3.298  12.191  0.9761  1.4371  0.2304
19616TIP3    H280340   2.952   3.351  12.241 -0.2511 -0.6604 -0.7007
19617TIP3   OH280341   2.901   0.831   5.177 -0.3860  0.0030  0.3264
19617TIP3    H180342   2.846   0.798   5.248 -2.7902  0.2846 -1.2580
19617TIP3    H280343   2.904   0.925   5.191 -1.6344  0.1752 -0.3713
19618TIP3   OH280344   4.981   2.325  16.393 -0.0820  0.8463 -0.0760
19618TIP3    H180345   5.034   2.394  16.434  0.4669  1.1033 -1.1885
19618TIP3    H280346   4.948   2.365  16.313  1.9187 -0.7837 -1.8171
19619TIP3   OH280347   3.179   4.574  14.646 -0.1125 -0.0969  0.3217
19619TIP3    H180348   3.216   4.520  14.716  0.3568  0.3916  0.4618
19619TIP3    H280349   3.255   4.600  14.593 -0.3343  0.3590  0.2171
19620TIP3   OH280350   5.476   0.299  12.199 -0.1067 -0.3952  0.1814
19620TIP3    H180351   5.443   0.379  12.239  2.4308  0.4273  0.8016
19620TIP3    H280352   5.445   0.229  12.257  1.7301  0.6020  2.5578
19621TIP3   OH280353   1.374   2.426   5.282 -0.5607 -0.0246 -0.1330
19621TIP3    H180354   1.306   2.361   5.265 -0.3721 -0.4025  0.5192
19621TIP3    H280355   1.428   2.388   5.352  0.7207 -0.0283 -1.0876
19622TIP3   OH280356   2.051   6.032   5.761 -0.1456  0.2352 -0.1647
19622TIP3    H180357   2.009   6.012   5.845 -2.0237  0.8558 -0.8889
19622TIP3    H280358   1.984   6.010   5.696 -0.5931  4.0656 -1.2427
19623TIP3   OH280359   1.571   1.565   1.710  0.3346 -0.1129  0.4376
19623TIP3    H180360   1.593   1.475   1.735  4.4041  0.8935  1.2736
19623TIP3    H280361   1.608   1.575   1.622  0.4805  0.8691  0.5970
19624TIP3   OH280362   0.891   4.499  16.470  0.1273  0.2068  0.0044
19624TIP3    H180363   0.946   4.456  16.405 -1.0979 -0.9468 -0.3115
19624TIP3    H280364   0.809   4.449  16.469 -0.7887  1.6365  0.7360
19625TIP3   OH280365   5.487   4.905   4.083 -0.2935  0.2540  0.2329
19625TIP3    H180366   5.491   4.996   4.052 -0.4524  0.3072  0.3670
19625TIP3    H280367   5.523   4.854   4.011 -1.4794  0.2876 -0.4044
19626TIP3   OH280368   6.043   2.093   4.688 -0.5005  0.0936 -0.0081
19626TIP3    H180369   6.033   2.130   4.600 -0.4481  0.9442  0.3293
19626TIP3    H280370   6.111   2.026   4.679  1.3462  1.8820 -0.1523
19627TIP3   OH280371   0.855   2.549  12.461  0.2513  0.2051 -0.2485
19627TIP3    H180372   0.874   2.458  12.484 -0.4241  0.3296  0.8579
19627TIP3    H280373   0.762   2.548  12.437  0.5913  0.3474 -1.6746
19628TIP3   OH280374   4.437   6.049   3.393 -0.1139 -0.4339 -0.2055
19628TIP3    H180375   4.380   5.995   3.447  0.1476 -0.2751  0.2378
19628TIP3    H280376   4.445   6.132   3.441  0.9296 -0.6525  0.0183
19629TIP3   OH280377   0.213   2.632   3.009  0.3499 -0.3882 -0.2158
19629TIP3    H180378   0.257   2.570   2.951 -1.7612 -0.7705 -1.5317
19629TIP3    H280379   0.120   2.611   2.999 -0.1968  0.7300  1.9912
19630TIP3   OH280380   6.297   0.425  16.193 -0.5136 -0.9307 -0.3445
19630TIP3    H180381   6.292   0.339  16.152 -1.1459 -0.3561 -1.5412
19630TIP3    H280382   6.339   0.481  16.128 -0.2842 -0.2857  0.3366
19631TIP3   OH280383   5.559   5.391   0.713 -0.4228  0.5015  0.4059
19631TIP3    H180384   5.522   5.309   0.681  2.9752 -1.2184  0.4195
19631TIP3    H280385   5.559   5.449   0.638 -3.2461  0.7355  0.4923
19632TIP3   OH280386   3.421   5.289  13.824 -0.1522  0.2533 -0.0193
19632TIP3    H180387   3.411   5.381  13.849 -1.6848 -0.0114  0.4504
19632TIP3    H280388   3.454   5.292  13.734 -0.6852  1.2708 -0.1973
19633TIP3   OH280389   0.120   3.422   5.821 -0.0706  0.2579  0.2054
19633TIP3    H180390   0.123   3.518   5.824  0.2702  0.2544  0.0170
19633TIP3    H280391   0.093   3.402   5.732  1.2348  0.1601 -0.1919
19634TIP3   OH280392   1.856   4.213   1.294  0.0315  0.4080  0.1660
19634TIP3    H180393   1.843   4.267   1.216 -1.9131 -0.0010  0.1448
19634TIP3    H280394   1.893   4.131   1.260 -1.2201  0.0627 -0.4326
19635TIP3   OH280395   1.304   6.329   6.624  0.1967 -0.0271  0.0441
19635TIP3    H180396   1.223   6.280   6.608 -0.3953  1.0663 -0.3967
19635TIP3    H280397   1.325   6.311   6.716 -1.4503  0.9325  0.6546
19636TIP3   OH280398   3.369   6.787   2.005  0.6000 -0.2545  0.1814
19636TIP3    H180399   3.389   6.708   1.954 -0.0591 -0.5217  0.3328
19636TIP3    H280400   3.448   6.803   2.056  0.9312 -0.5121 -0.2398
19637TIP3   OH280401   1.166   5.186   1.571 -0.0799  0.1104  0.3474
19637TIP3    H180402   1.150   5.276   1.541  0.3512  1.4105  3.6101
19637TIP3    H280403   1.085   5.160   1.614  0.2731 -0.5180  0.6486
19638TIP3   OH280404   5.310   3.549   0.028  0.0975 -0.3447 -0.1353
19638TIP3    H180405   5.348   3.595  -0.046 -0.2554 -1.7357 -1.2248
19638TIP3    H280406   5.373   3.480   0.049  1.3465  1.4167  2.4328
19639TIP3   OH280407   4.237   3.726   1.206  0.1585 -0.3966 -0.0499
19639TIP3    H180408   4.197   3.739   1.292 -1.2269 -1.4476 -0.4991
19639TIP3    H280409   4.206   3.799   1.153  3.2530  1.8933  0.9968
19640TIP3   OH280410   0.155   3.835  15.979  0.0061 -0.4983  0.5621
19640TIP3    H180411   0.222   3.862  15.916  0.1979 -0.0199  0.9573
19640TIP3    H280412   0.102   3.771  15.932 -1.7105  1.9843 -1.1227
19641TIP3   OH280413   6.005   2.412  13.829  0.3762 -0.0826  0.2701
19641TIP3    H180414   6.006   2.507  13.838  3.3063  0.0037 -0.1993
19641TIP3    H280415   5.931   2.395  13.770 -2.2036  1.5231  2.7453
19642TIP3   OH280416   3.836   6.468  12.938 -0.5419  0.3091 -0.2394
19642TIP3    H180417   3.923   6.508  12.946 -0.6589  0.3846  0.7636
19642TIP3    H280418   3.831   6.440  12.847  0.4882  0.4174 -0.3424
19643TIP3   OH280419   3.869   2.028  10.980  0.1664  0.3741  0.3212
19643TIP3    H180420   3.900   1.964  10.916  0.0516 -0.6496  1.2513
19643TIP3    H280421   3.886   2.113  10.940 -0.2915 -0.2330 -1.2459
19644TIP3   OH280422   6.505   4.804   5.406 -0.2058  0.1198  0.7984
19644TIP3    H180423   6.413   4.788   5.424 -1.0258  2.6617 -0.5861
19644TIP3    H280424   6.520   4.767   5.320 -1.0618  2.9428 -0.6791
19645TIP3   OH280425   5.759   5.202   5.955 -0.3289  0.7334 -0.1785
19645TIP3    H180426   5.757   5.271   5.889  1.3130  0.9425 -0.0507
19645TIP3    H280427   5.849   5.168   5.952 -1.0670 -1.3649 -0.1907
19646TIP3   OH280428   1.636   4.268  13.113  0.0346  0.0626 -0.1695
19646TIP3    H180429   1.646   4.237  13.204  1.2738  1.8008  0.3267
19646TIP3    H280430   1.558   4.324  13.116  1.2841  1.8662  0.3799
19647TIP3   OH280431   4.333   6.496   1.431 -0.1115  0.6405 -0.2171
19647TIP3    H180432   4.303   6.414   1.471 -1.3534  1.5266  0.7572
19647TIP3    H280433   4.404   6.526   1.488 -0.0106  0.4956 -0.2682
19648TIP3   OH280434   3.087   6.247  15.694 -0.0377  0.0858  0.5429
19648TIP3    H180435   3.105   6.164  15.739 -1.2488 -1.0984 -1.0090
19648TIP3    H280436   2.996   6.239  15.665  0.1688  1.4950 -0.6143
19649TIP3   OH280437   3.078   0.063  16.724 -0.6544  0.1339 -0.1795
19649TIP3    H180438   3.113   0.028  16.806 -0.4622 -0.3418 -0.4580
19649TIP3    H280439   3.032   0.142  16.750  0.5064  0.7032  0.2226
19650TIP3   OH280440   5.791   1.856   0.484  0.6726 -0.2010  0.3159
19650TIP3    H180441   5.856   1.786   0.491  1.1400  0.3934  2.3752
19650TIP3    H280442   5.836   1.925   0.434  0.8315 -0.6418 -0.1641
19651TIP3   OH280443   2.760   2.939  13.775 -0.0933 -0.2039 -0.5381
19651TIP3    H180444   2.791   2.882  13.846  0.2675 -2.1180 -2.1495
19651TIP3    H280445   2.667   2.951  13.793  0.1108 -0.1117  0.5849
19652TIP3   OH280446   0.055   3.037   5.463  0.4135  0.2677  0.3617
19652TIP3    H180447   0.069   2.950   5.424  0.8043  0.0212  1.0310
19652TIP3    H280448   0.138   3.057   5.507  0.4247  1.1100 -0.0193
19653TIP3   OH280449   3.742   2.122  14.396  0.2501  0.1576  0.6600
19653TIP3    H180450   3.756   2.203  14.444  1.2273  0.3295  0.1206
19653TIP3    H280451   3.814   2.064  14.424  1.5372  0.6556 -1.3613
19654TIP3   OH280452   1.458   3.192   0.251  0.0274  0.3016  0.0187
19654TIP3    H180453   1.453   3.265   0.189 -2.6441  0.8277  0.7207
19654TIP3    H280454   1.420   3.118   0.203  2.1732 -0.5345 -0.4806
19655TIP3   OH280455   0.901   3.322   0.516 -0.2093  1.0369  0.6044
19655TIP3    H180456   0.844   3.391   0.551 -0.2630 -0.1229  2.9942
19655TIP3    H280457   0.950   3.290   0.592 -1.1106 -2.4185 -0.1055
19656TIP3   OH280458   6.021   0.423   1.418 -0.3514 -0.7130  0.6898
19656TIP3    H180459   6.006   0.382   1.333 -2.4667 -0.4181  0.8859
19656TIP3    H280460   5.980   0.364   1.481  0.8123 -0.7055  1.4958
19657TIP3   OH280461   1.438   4.998  15.715 -0.4021  0.2496 -0.3559
19657TIP3    H180462   1.441   5.080  15.666  0.6800 -1.4241 -3.3329
19657TIP3    H280463   1.387   4.938  15.660 -2.0748 -0.9120  2.1970
19658TIP3   OH280464   1.149   5.863   1.997 -0.1243 -0.5124  0.0545
19658TIP3    H180465   1.227   5.898   2.040  0.0249 -0.4793 -0.2425
19658TIP3    H280466   1.173   5.773   1.975 -0.4647 -0.7769  0.7100
19659TIP3   OH280467   4.171   5.434  12.649 -0.0266  0.2861 -0.4527
19659TIP3    H180468   4.076   5.433  12.660  0.1370 -1.1645  1.2159
19659TIP3    H280469   4.203   5.480  12.726  0.6868 -0.7322 -0.1235
19660TIP3   OH280470   1.477   3.275  15.558  0.7583 -0.6112  0.5834
19660TIP3    H180471   1.526   3.216  15.500  0.1520  0.0376 -0.6491
19660TIP3    H280472   1.472   3.357  15.509 -1.4625 -0.6381  0.6734
19661TIP3   OH280473   6.637   6.762  10.933 -0.3560 -0.6001 -0.1066
19661TIP3    H180474   6.630   6.731  10.842 -0.0016 -0.2735 -0.2460
19661TIP3    H280475   6.560   6.817  10.945 -0.7196 -1.1141 -0.0184
19662TIP3   OH280476   3.426   5.822  16.012 -0.4248  0.4044 -0.1344
19662TIP3    H180477   3.379   5.738  16.011  0.0036  0.1601 -0.0355
19662TIP3    H280478   3.455   5.833  16.103  0.3252  0.1998 -0.3386
19663TIP3   OH280479   2.168   0.075  17.145  0.1009 -0.3528  1.1357
19663TIP3    H180480   2.174   0.121  17.228  0.1047 -2.0697  2.1351
19663TIP3    H280481   2.088   0.022  17.152 -0.6393  0.4685 -0.5009
19664TIP3   OH280482   0.436   2.928   5.429 -0.4318  0.1840  0.6479
19664TIP3    H180483   0.359   2.945   5.376  0.1518 -0.3635 -0.4013
19664TIP3    H280484   0.427   2.987   5.504 -0.5821  2.0360 -0.7558
19665TIP3   OH280485   1.244   1.793  15.827 -0.2545  0.1650  0.2596
19665TIP3    H180486   1.218   1.766  15.915 -0.2393  1.2813  0.6207
19665TIP3    H280487   1.257   1.711  15.780  0.4718 -0.4598  1.5009
19666TIP3   OH280488   6.505   5.719   3.038 -0.0443 -0.0317 -0.0151
19666TIP3    H180489   6.596   5.739   3.019 -0.1437 -1.3841 -2.3314
19666TIP3    H280490   6.486   5.767   3.119  2.9303 -0.4005  1.0459
19667TIP3   OH280491   6.591   1.822   3.866  0.0869  0.2560 -0.1056
19667TIP3    H180492   6.591   1.915   3.889 -0.9132  0.0742  0.6814
19667TIP3    H280493   6.541   1.780   3.935  0.1190 -0.8165 -0.7097
19668TIP3   OH280494   3.707   3.995  14.921  0.0826  0.1491  0.1854
19668TIP3    H180495   3.656   3.914  14.924  1.1435 -0.5323  0.2490
19668TIP3    H280496   3.789   3.973  14.964  0.7420  1.0088 -0.5964
19669TIP3   OH280497   3.306   5.846  11.615  0.4786 -0.4583  0.3166
19669TIP3    H180498   3.329   5.783  11.547  3.1898  2.0407 -1.3175
19669TIP3    H280499   3.247   5.908  11.571  2.4604  1.3321  0.0240
19670TIP3   OH280500   3.205   2.809  13.410 -0.3218  0.4238 -0.1925
19670TIP3    H180501   3.169   2.733  13.458 -1.1728  2.2462  2.2808
19670TIP3    H280502   3.295   2.784  13.390  0.0042 -0.6250  2.1873
19671TIP3   OH280503   3.783   1.934   0.769 -0.2691 -0.5006  0.2865
19671TIP3    H180504   3.697   1.910   0.803 -0.6865  1.2636  0.5613
19671TIP3    H280505   3.833   1.852   0.770 -1.8117 -1.4759  0.4711
19672TIP3   OH280506   6.571   5.995  14.387  0.6497  0.3249  0.1582
19672TIP3    H180507   6.552   6.087  14.407  0.5338  0.2721  0.2916
19672TIP3    H280508   6.656   5.979  14.429 -0.9856 -0.6671  3.4372
19673TIP3   OH280509   5.507   2.746   6.564  0.1015 -0.3988  0.7410
19673TIP3    H180510   5.478   2.682   6.499 -0.5229  1.6258 -1.1005
19673TIP3    H280511   5.596   2.718   6.586 -0.9737 -3.2640  1.9365
19674TIP3   OH280512   1.655   4.253  10.769 -0.1335  0.2803  0.0835
19674TIP3    H180513   1.612   4.328  10.729 -2.3175 -1.1463 -0.4503
19674TIP3    H280514   1.626   4.255  10.861  0.8001  0.7472  0.3782
19675TIP3   OH280515   0.239   5.903  12.511 -0.3621  0.1213  0.3916
19675TIP3    H180516   0.178   5.931  12.579 -0.6276  0.1117  0.1642
19675TIP3    H280517   0.279   5.823  12.546 -0.9304 -0.2142  0.2968
19676TIP3   OH280518   0.962   4.584   1.602 -0.0056  0.4922 -0.4115
19676TIP3    H180519   0.877   4.579   1.558 -1.8511  0.2903  2.9101
19676TIP3    H280520   0.956   4.662   1.657  0.8804 -0.9143  1.8198
19677TIP3   OH280521   3.930   2.918  16.498  0.5445  0.2302 -0.3718
19677TIP3    H180522   3.887   2.966  16.426 -1.1615 -0.2139  0.3124
19677TIP3    H280523   3.931   2.981  16.570 -0.9863 -0.4505  0.2843
19678TIP3   OH280524   1.482   0.845  17.059  0.1232 -0.3594  0.0213
19678TIP3    H180525   1.433   0.772  17.021 -0.2985 -0.0823  0.0266
19678TIP3    H280526   1.415   0.900  17.100  0.3601  0.3977 -0.5919
19679TIP3   OH280527   2.916   0.974   3.331 -0.0509 -0.6159 -0.0539
19679TIP3    H180528   2.862   0.922   3.390 -1.9637  0.4132 -0.8225
19679TIP3    H280529   2.882   0.954   3.243  0.8220  0.0873 -0.5714
19680TIP3   OH280530   2.799   5.806   4.986  0.0606 -0.3582 -0.4485
19680TIP3    H180531   2.792   5.735   4.922 -1.1918 -0.6595  0.0025
19680TIP3    H280532   2.728   5.789   5.048  0.0988  0.9801 -0.0228
19681TIP3   OH280533   4.123   4.406   4.944  0.0099  0.6330  0.5371
19681TIP3    H180534   4.079   4.404   5.029 -1.3025 -0.5288 -0.1238
19681TIP3    H280535   4.119   4.316   4.913  0.0469  1.1224 -0.9665
19682TIP3   OH280536   0.115   4.301   5.359  0.1671 -0.2289  0.6402
19682TIP3    H180537   0.072   4.231   5.311 -0.6032 -0.4803  1.6722
19682TIP3    H280538   0.115   4.375   5.298  1.1477 -1.1372 -0.5235
19683TIP3   OH280539   5.791   6.562   0.538 -0.2509 -0.2615  0.4896
19683TIP3    H180540   5.790   6.474   0.574 -1.8111 -0.1071  0.8669
19683TIP3    H280541   5.884   6.587   0.539  0.4063 -2.3970 -0.9381
19684TIP3   OH280542   5.516   3.366   4.129  0.1739  0.1996  0.1561
19684TIP3    H180543   5.502   3.344   4.221 -0.7457  0.6951  0.1426
19684TIP3    H280544   5.554   3.454   4.130  1.0732 -0.1780  0.0918
19685TIP3   OH280545   4.672   5.935  14.211  0.4514  0.0632  0.0052
19685TIP3    H180546   4.640   5.993  14.280  1.0282 -1.7075  1.8925
19685TIP3    H280547   4.636   5.970  14.130 -0.0968  2.3624  1.1788
19686TIP3   OH280548   4.458   0.705  15.986  0.2778  0.0933  0.0658
19686TIP3    H180549   4.476   0.745  16.072  0.5995 -0.8903  0.4665
19686TIP3    H280550   4.541   0.712  15.939  0.3310 -0.0878  0.1316
19687TIP3   OH280551   6.802   5.070  14.567  0.5107 -0.4403 -0.2666
19687TIP3    H180552   6.842   5.153  14.541 -0.2776  0.4544  1.2498
19687TIP3    H280553   6.733   5.095  14.628  0.0718 -2.2097  0.0080
19688TIP3   OH280554   6.483   5.637   2.735  0.1480 -0.0882  0.5720
19688TIP3    H180555   6.526   5.669   2.815  1.6897 -0.4883 -0.0661
19688TIP3    H280556   6.517   5.693   2.665 -1.5667  0.5859  0.2210
19689TIP3   OH280557   5.960   1.689  15.950  0.0721 -0.0739 -0.4022
19689TIP3    H180558   5.960   1.642  16.033 -0.2153 -1.6810 -1.2887
19689TIP3    H280559   5.909   1.635  15.890  1.2027  0.4747 -1.9455
19690TIP3   OH280560   0.649   6.603   4.129  0.1131  0.6209  0.1289
19690TIP3    H180561   0.596   6.534   4.170  0.9608  0.0822  0.3567
19690TIP3    H280562   0.642   6.586   4.035  0.9770 -0.3027  0.2149
19691TIP3   OH280563   0.676   6.709   1.540 -1.0707  0.2032 -0.2786
19691TIP3    H180564   0.630   6.627   1.524 -0.2819 -0.1349 -0.8722
19691TIP3    H280565   0.768   6.689   1.523 -0.3577  0.2936  2.9443
19692TIP3   OH280566   5.278   5.896   3.710 -0.0310 -0.5620  0.1170
19692TIP3    H180567   5.259   5.988   3.728  1.8954 -0.1132 -0.0013
19692TIP3    H280568   5.373   5.888   3.721 -0.2370 -2.6959  0.8022
19693TIP3   OH280569   3.018   2.333   3.955 -0.3479 -0.9410 -0.2108
19693TIP3    H180570   3.025   2.239   3.969  2.6731 -0.5923  1.2474
19693TIP3    H280571   3.089   2.354   3.894 -1.0677  0.3984 -0.6296
19694TIP3   OH280572   1.287   0.918  14.831 -0.7982 -0.0801  0.2539
19694TIP3    H180573   1.270   0.880  14.744  1.4772 -0.6360  0.0032
19694TIP3    H280574   1.220   0.879  14.887 -0.0678 -2.6549 -0.5070
19695TIP3   OH280575   5.474   1.116  15.677 -0.1657  0.3020  0.4513
19695TIP3    H180576   5.552   1.092  15.726 -1.0762 -0.4600  1.5905
19695TIP3    H280577   5.488   1.081  15.589  0.5468 -0.2907  0.7932
19696TIP3   OH280578   5.582   0.370   1.745 -0.6711  0.2756 -0.1707
19696TIP3    H180579   5.571   0.357   1.651  1.0755  1.3883 -0.5714
19696TIP3    H280580   5.573   0.464   1.758 -1.1261  0.1092  0.8280
19697TIP3   OH280581   0.888   4.209  17.264 -0.2031  0.3662 -0.1249
19697TIP3    H180582   0.890   4.124  17.221  1.4581 -0.1293  0.8653
19697TIP3    H280583   0.962   4.257  17.227  0.4231  0.4259  1.1423
19698TIP3   OH280584   3.463   5.630  14.847 -0.1988 -0.1021  0.3657
19698TIP3    H180585   3.547   5.643  14.803 -0.1495 -0.3351  0.3849
19698TIP3    H280586   3.481   5.563  14.913  0.0372  1.1543  1.6249
19699TIP3   OH280587   5.796   4.500   5.790  0.2103 -0.0256  0.7852
19699TIP3    H180588   5.710   4.459   5.781 -0.1085  0.9170 -0.9278
19699TIP3    H280589   5.786   4.560   5.864 -0.7989  0.4786  0.2665
19700TIP3   OH280590   4.527   2.576   3.114  0.4749  0.0958 -0.1164
19700TIP3    H180591   4.450   2.628   3.090 -0.6127 -1.1114  0.6498
19700TIP3    H280592   4.548   2.604   3.203 -0.9479 -1.6610  0.8276
19701TIP3   OH280593   2.781   4.445   0.493 -0.1766  0.0869  0.1145
19701TIP3    H180594   2.710   4.380   0.491  1.0180 -1.3679  1.6324
19701TIP3    H280595   2.736   4.529   0.490 -2.0040 -0.7795  1.0708
19702TIP3   OH280596   0.209   4.544   6.783 -0.1807 -0.2317 -0.0398
19702TIP3    H180597   0.159   4.625   6.774  0.9098  0.4632  0.0651
19702TIP3    H280598   0.292   4.571   6.823 -0.0496 -1.4862  0.5919
19703TIP3   OH280599   3.458   4.167   0.782  1.0878 -0.1083 -0.3048
19703TIP3    H180600   3.444   4.086   0.733  0.7234  0.1514 -0.6348
19703TIP3    H280601   3.508   4.222   0.722  0.4182  0.3088 -0.4924
19704TIP3   OH280602   1.078   2.529   4.058 -0.2407  0.3379 -0.0076
19704TIP3    H180603   1.158   2.526   4.005 -0.0078 -0.4978  0.3804
19704TIP3    H280604   1.034   2.445   4.040 -0.4147  0.2662  0.7193
19705TIP3   OH280605   0.892   3.883   0.627 -0.3592 -0.4676  0.1802
19705TIP3    H180606   0.919   3.961   0.579 -2.1368 -0.1770 -0.4059
19705TIP3    H280607   0.798   3.892   0.637 -0.6288 -2.5844  0.0164
19706TIP3   OH280608   3.421   5.934   1.790 -0.2845 -0.2008  0.6926
19706TIP3    H180609   3.362   5.866   1.823 -1.1664 -0.2367 -0.8538
19706TIP3    H280610   3.507   5.910   1.824 -0.7252 -1.6341  0.8541
19707TIP3   OH280611   4.660   5.308   3.451  0.2722  0.4190  0.1776
19707TIP3    H180612   4.599   5.235   3.447 -1.1214  1.5107  0.6296
19707TIP3    H280613   4.726   5.281   3.515  0.6350 -1.0206 -0.7667
19708TIP3   OH280614   2.040   4.888   4.978  0.1607  0.5178 -0.4706
19708TIP3    H180615   2.041   4.971   5.025 -2.2296  0.7844 -0.7434
19708TIP3    H280616   2.085   4.826   5.036 -0.5038  1.3885  1.0324
19709TIP3   OH280617   1.146   2.040  17.005 -0.1347  0.5279  0.0456
19709TIP3    H180618   1.065   2.038  17.057 -0.1245 -2.6963  0.1129
19709TIP3    H280619   1.117   2.029  16.915  0.1687  0.0183  0.0055
19710TIP3   OH280620   6.629   6.484  15.811 -0.5032 -0.3882  1.1263
19710TIP3    H180621   6.577   6.411  15.845 -0.1813 -0.9558  0.4459
19710TIP3    H280622   6.687   6.443  15.746 -0.9064  0.5989  0.1111
19711TIP3   OH280623   1.642   3.334  13.588  0.2389 -0.0669 -0.1443
19711TIP3    H180624   1.684   3.379  13.661  0.3212  0.5486 -0.5551
19711TIP3    H280625   1.587   3.267  13.628 -0.3056  0.7574  0.5173
19712TIP3   OH280626   0.829   5.723   4.353  0.1344 -0.5689  0.7330
19712TIP3    H180627   0.792   5.636   4.365  1.4194 -1.3004 -0.3465
19712TIP3    H280628   0.898   5.711   4.288 -0.2769  1.4268 -0.1458
19713TIP3   OH280629   2.895   1.844  12.885  0.3480 -0.1631 -0.6019
19713TIP3    H180630   2.825   1.869  12.945  0.4458 -2.0860  0.3949
19713TIP3    H280631   2.954   1.919  12.884 -0.1563  0.2797  0.9557
19714TIP3   OH280632   6.469   6.666   4.846  0.0010 -0.4798  0.5924
19714TIP3    H180633   6.382   6.704   4.835 -0.4462 -1.9280 -1.5981
19714TIP3    H280634   6.505   6.709   4.924 -2.7553 -0.0519  1.7430
19715TIP3   OH280635   6.555   1.924   5.327 -1.0188 -0.2894 -0.4736
19715TIP3    H180636   6.537   1.944   5.419  2.2483  1.2367 -0.0259
19715TIP3    H280637   6.502   1.986   5.278 -0.3401  1.1608  0.5447
19716TIP3   OH280638   4.898   5.092   5.321 -0.0927  0.0799  0.2579
19716TIP3    H180639   4.964   5.143   5.274 -1.4775  1.5211 -0.2138
19716TIP3    H280640   4.819   5.146   5.317 -0.9065 -0.8884  2.1370
19717TIP3   OH280641   1.077   5.810   6.025  0.5563 -0.0490  0.3111
19717TIP3    H180642   1.005   5.841   6.081 -1.4237 -1.1886 -1.4602
19717TIP3    H280643   1.073   5.715   6.032  0.8958 -0.1677 -1.0215
19718TIP3   OH280644   5.773   5.219   1.301  0.4150 -0.1331 -0.0072
19718TIP3    H180645   5.848   5.274   1.277  0.1874  1.1016  1.8794
19718TIP3    H280646   5.811   5.134   1.321  1.0634 -0.0573 -0.8507
19719TIP3   OH280647   0.967   3.955   1.795 -0.3949 -0.3433 -0.4201
19719TIP3    H180648   0.999   4.009   1.867  0.9160  0.1533 -1.3487
19719TIP3    H280649   0.877   3.932   1.821  0.4773 -1.3388  2.0189
19720TIP3   OH280650   4.897   3.953  14.234 -0.4754 -0.4915  0.6420
19720TIP3    H180651   4.914   4.045  14.215  0.3986 -0.9764 -1.1817
19720TIP3    H280652   4.974   3.907  14.200 -1.9310 -2.0821 -0.7221
19721TIP3   OH280653   4.045   4.236  12.877 -0.0329 -0.1346 -0.5667
19721TIP3    H180654   4.011   4.176  12.944 -0.3419  0.2098 -0.4140
19721TIP3    H280655   4.092   4.179  12.817  0.1493 -0.4670 -0.1228
19722TIP3   OH280656   6.208   5.199   5.586 -0.1624  0.7653  0.0398
19722TIP3    H180657   6.276   5.201   5.518  0.3481  2.5823  0.5475
19722TIP3    H280658   6.229   5.273   5.643 -2.1397  0.9227  0.6423
19723TIP3   OH280659   1.566   5.260  12.250 -0.1581  0.2097 -0.0083
19723TIP3    H180660   1.641   5.275  12.193  0.4972 -0.6308  0.6096
19723TIP3    H280661   1.549   5.344  12.292  2.4509 -0.2457  2.2368
19724TIP3   OH280662   3.568   0.476  11.718  0.1606 -0.4629  0.0566
19724TIP3    H180663   3.508   0.509  11.651  0.9172  0.9090  0.0127
19724TIP3    H280664   3.555   0.536  11.792  0.1659 -1.2644  0.7119
19725TIP3   OH280665   0.799   2.144  13.796  0.0774 -0.3276  0.1479
19725TIP3    H180666   0.772   2.102  13.714 -2.4377 -0.7597  1.1118
19725TIP3    H280667   0.851   2.219  13.769  2.8078 -2.6801 -1.7085
19726TIP3   OH280668   2.101   3.883   3.156 -0.3141 -0.4043 -0.2235
19726TIP3    H180669   2.026   3.829   3.129 -0.7652 -0.4581  1.0962
19726TIP3    H280670   2.175   3.823   3.158 -0.6333 -0.7825  0.3475
19727TIP3   OH280671   4.826   1.436  11.878 -0.0658 -0.2846  0.0910
19727TIP3    H180672   4.881   1.447  11.800  0.0656 -2.2373 -0.1536
19727TIP3    H280673   4.737   1.430  11.844 -0.0179 -1.0363  0.0710
19728TIP3   OH280674   0.078   3.904   4.894  0.0545 -1.0587 -0.0489
19728TIP3    H180675   0.079   3.980   4.952 -0.5522 -2.1513  1.4721
19728TIP3    H280676   0.171   3.880   4.884  0.1874 -0.6728  0.2332
19729TIP3   OH280677   1.848   4.691   6.009  0.0033  0.3922 -0.2569
19729TIP3    H180678   1.925   4.703   6.064 -0.5394  1.3992  0.3278
19729TIP3    H280679   1.776   4.731   6.060 -1.0747 -1.2885 -0.3774
19730TIP3   OH280680   0.643   2.956   0.590 -0.3204  0.0197 -0.2835
19730TIP3    H180681   0.600   3.040   0.602  0.6265  0.6034 -0.8516
19730TIP3    H280682   0.611   2.926   0.504  0.7807  0.7069 -0.9550
19731TIP3   OH280683   1.874   6.089   3.848 -0.2571  0.1635 -0.2545
19731TIP3    H180684   1.821   6.156   3.892 -1.1101  0.1861 -1.2796
19731TIP3    H280685   1.961   6.098   3.888 -0.4594  1.5993 -0.0699
19732TIP3   OH280686   3.043   2.788  16.928 -0.1664  0.2592  0.0679
19732TIP3    H180687   2.975   2.809  16.864 -2.5007  0.2180  2.3712
19732TIP3    H280688   3.074   2.873  16.959  0.1462  0.2762 -0.2853
19733TIP3   OH280689   2.535   1.305  16.949  0.6774  0.1359 -0.0507
19733TIP3    H180690   2.508   1.392  16.917 -0.6281 -0.7029 -1.3536
19733TIP3    H280691   2.620   1.320  16.990  1.1165  1.7971 -1.4519
19734TIP3   OH280692   4.866   1.189  12.189  0.1885  0.3193  0.4652
19734TIP3    H180693   4.780   1.193  12.148  0.2306  0.7711  0.4150
19734TIP3    H280694   4.923   1.238  12.130  0.2219  1.0939  1.1212
19735TIP3   OH280695   3.522   6.454  16.402 -0.5471  0.6717 -0.3773
19735TIP3    H180696   3.572   6.474  16.481 -1.1094 -2.6641  0.9867
19735TIP3    H280697   3.586   6.462  16.331  0.5209  1.6921  0.6432
19736TIP3   OH280698   4.735   6.402  13.370  0.1297  0.0838  0.1121
19736TIP3    H180699   4.660   6.431  13.317 -0.1119 -0.9600 -0.1381
19736TIP3    H280700   4.805   6.462  13.345 -0.3209  0.3919 -0.4695
19737TIP3   OH280701   2.450   6.707  12.613 -0.6404 -0.1555 -0.4385
19737TIP3    H180702   2.415   6.796  12.601  0.5103  0.0770 -2.3739
19737TIP3    H280703   2.478   6.680  12.526 -0.7015 -2.3458  0.1653
19738TIP3   OH280704   5.111   1.082  17.157  0.1187  0.0481 -0.0940
19738TIP3    H180705   5.146   1.150  17.214  2.8133 -1.6514  0.4558
19738TIP3    H280706   5.071   1.019  17.217 -0.1689 -0.0702 -0.4051
19739TIP3   OH280707   3.292   2.850   4.487  0.4007  0.2670 -0.0453
19739TIP3    H180708   3.265   2.860   4.396 -0.7874 -0.2388  0.2284
19739TIP3    H280709   3.296   2.755   4.500 -1.9166  0.2636  1.0884
19740TIP3   OH280710   0.543   3.392   1.475 -0.4542  0.4408  0.0113
19740TIP3    H180711   0.589   3.316   1.511 -1.0821 -0.1713 -0.4492
19740TIP3    H280712   0.507   3.436   1.551  0.7332  0.8363  0.3656
19741TIP3   OH280713   0.067   0.728  14.570 -0.4257 -0.1693 -0.9213
19741TIP3    H180714   0.089   0.818  14.543  1.2753 -0.1595  0.2950
19741TIP3    H280715  -0.028   0.722  14.558 -0.4194  1.3876 -2.1656
19742TIP3   OH280716   4.229   0.361   5.248  0.5875 -0.5546  0.0266
19742TIP3    H180717   4.215   0.324   5.161 -2.1797  1.4320 -0.5072
19742TIP3    H280718   4.280   0.440   5.232 -2.2528  1.3445 -0.2976
19743TIP3   OH280719   1.855   5.946   0.916  1.2691 -0.4889  0.0854
19743TIP3    H180720   1.927   6.006   0.897  2.3776 -1.4434  1.1120
19743TIP3    H280721   1.849   5.889   0.839  0.8006  0.3371 -0.5054
19744TIP3   OH280722   5.236   1.548   5.527 -0.4747 -0.2087  0.3996
19744TIP3    H180723   5.296   1.620   5.546 -0.5331 -0.5944  2.2280
19744TIP3    H280724   5.192   1.574   5.446 -0.2801  1.6591  0.8500
19745TIP3   OH280725   0.788   3.485   4.314  0.0415 -0.1956 -0.6680
19745TIP3    H180726   0.832   3.400   4.321 -0.3175 -0.3224  0.0277
19745TIP3    H280727   0.700   3.470   4.347  0.0006  0.4706 -0.4585
19746TIP3   OH280728   5.128   3.635  17.057  0.3641  0.4656  0.4651
19746TIP3    H180729   5.185   3.606  16.986  1.3323  0.2434  1.3032
19746TIP3    H280730   5.147   3.728  17.068 -0.8812  0.8653 -0.5336
19747TIP3   OH280731   1.721   4.651   5.168 -0.0073  0.2529 -0.4930
19747TIP3    H180732   1.794   4.689   5.216  1.1212 -0.7756 -1.3338
19747TIP3    H280733   1.731   4.684   5.079 -1.0982  0.7935 -0.4385
19748TIP3   OH280734   4.864   4.915   5.517 -0.2485 -0.1283  0.3880
19748TIP3    H180735   4.877   4.974   5.443  0.6904 -0.4051  0.3185
19748TIP3    H280736   4.779   4.939   5.553  0.2191  1.4244  0.5114
19749TIP3   OH280737   1.095   0.939   2.887 -0.0931  0.4228  0.6346
19749TIP3    H180738   1.155   0.908   2.819  2.6676  1.0083  2.6429
19749TIP3    H280739   1.092   1.034   2.875 -2.4367  0.2497 -0.7534
19750TIP3   OH280740   4.688   3.722   5.702 -0.3839  0.3367 -0.0136
19750TIP3    H180741   4.774   3.762   5.692 -0.8190  1.1371 -0.7381
19750TIP3    H280742   4.653   3.758   5.784 -0.4574  0.8571 -0.2681
19751TIP3   OH280743   1.024   4.259   1.418  0.0602  0.0351  0.4217
19751TIP3    H180744   1.086   4.303   1.477  0.2924 -1.7579  1.5800
19751TIP3    H280745   1.080   4.219   1.352  0.0679 -0.7276  0.8850
19752TIP3   OH280746   0.270   6.609  13.459 -0.5281  0.5993 -0.3368
19752TIP3    H180747   0.320   6.556  13.521  0.7360 -0.1824 -1.9288
19752TIP3    H280748   0.181   6.575  13.464 -0.8817  1.7301  2.2639
19753TIP3   OH280749   4.129   6.762  11.365  0.0566 -0.1489 -0.3706
19753TIP3    H180750   4.078   6.839  11.342 -0.3209 -0.2227  0.1795
19753TIP3    H280751   4.163   6.729  11.282 -3.3075 -1.8674 -1.2424
19754TIP3   OH280752   0.841   2.218   5.353  0.1589  0.5315 -0.5065
19754TIP3    H180753   0.787   2.150   5.313 -0.5151  0.9880 -0.4017
19754TIP3    H280754   0.836   2.201   5.447 -1.3977  1.6814 -0.3369
19755TIP3   OH280755   5.733   4.986   4.947 -0.6731 -0.3670 -0.3569
19755TIP3    H180756   5.773   4.938   5.020 -1.0404  0.4880  0.4334
19755TIP3    H280757   5.644   4.952   4.943 -0.5547 -0.6507 -0.6317
19756TIP3   OH280758   1.064   3.006   5.195 -0.2064  0.1474 -0.3984
19756TIP3    H180759   1.044   2.915   5.172 -0.5335 -0.5040  2.1518
19756TIP3    H280760   1.071   3.006   5.291  0.6030  2.6651 -0.3742
19757TIP3   OH280761   4.431   4.303   4.629  0.1023  0.2989  0.1556
19757TIP3    H180762   4.421   4.321   4.535  1.2872 -2.5656 -0.6133
19757TIP3    H280763   4.344   4.321   4.666  0.4183  4.9543 -0.6765
19758TIP3   OH280764   0.409   3.048   4.733 -0.3429  0.1471 -0.1254
19758TIP3    H180765   0.489   3.083   4.772 -1.1599  0.2790  1.5498
19758TIP3    H280766   0.419   3.060   4.639  1.5514  0.2428  0.0645
19759TIP3   OH280767   5.510   5.204   4.663  0.7206 -0.0394 -0.6890
19759TIP3    H180768   5.463   5.136   4.712 -0.6579  1.1062 -0.3540
19759TIP3    H280769   5.597   5.166   4.647  0.6382 -1.1131  1.1353
19760TIP3   OH280770   0.213   4.534   4.483 -0.6299 -0.4112  0.0469
19760TIP3    H180771   0.230   4.462   4.544 -0.7138  0.1597  0.7696
19760TIP3    H280772   0.260   4.609   4.521 -1.3843  0.1636 -0.1228
19761TIP3   OH280773   1.472   5.720  17.280 -0.8338  0.1077  0.0982
19761TIP3    H180774   1.439   5.807  17.303 -2.4345 -0.6560  0.8067
19761TIP3    H280775   1.536   5.737  17.211  0.0100  1.9797  1.2568
19762TIP3   OH280776   6.603   0.635   1.077 -0.0034 -0.1181  0.8018
19762TIP3    H180777   6.514   0.664   1.056  0.0462  0.2114  1.0410
19762TIP3    H280778   6.632   0.590   0.998 -0.2523  0.0812  0.5918
19763TIP3   OH280779   0.669   6.747  15.305 -0.2160 -0.4956  0.6808
19763TIP3    H180780   0.727   6.689  15.354 -0.2087 -0.5058  0.6602
19763TIP3    H280781   0.660   6.825  15.361 -0.0389 -0.4193  0.6031
19764TIP3   OH280782   6.303   0.887  13.554  0.3868 -1.1460  0.3273
19764TIP3    H180783   6.319   0.805  13.508 -2.5601 -0.9573 -1.2688
19764TIP3    H280784   6.244   0.864  13.625 -0.5664 -0.4538 -0.2104
19765TIP3   OH280785   0.363   0.607  11.967  0.3957  0.1639 -0.5452
19765TIP3    H180786   0.396   0.524  11.932 -0.5245  0.1019 -1.2959
19765TIP3    H280787   0.374   0.599  12.062  0.3467 -0.8060 -0.6130
19766TIP3   OH280788   1.574   1.342   3.063 -0.2243  0.0347 -0.0833
19766TIP3    H180789   1.616   1.421   3.097  1.1178 -1.2581  1.3974
19766TIP3    H280790   1.646   1.292   3.024 -0.1576 -2.4334  2.8769
19767TIP3   OH280791   1.023   0.274   5.139  0.2263  0.1926 -0.3976
19767TIP3    H180792   1.004   0.181   5.127 -0.4752  0.1737  0.7308
19767TIP3    H280793   0.957   0.318   5.085 -0.4958  0.0533  0.3582
19768TIP3   OH280794   2.164   5.190   0.337  0.4627 -0.7171 -0.2058
19768TIP3    H180795   2.189   5.280   0.360  2.3241 -1.3303  0.3824
19768TIP3    H280796   2.098   5.200   0.269 -0.6143  1.1036  1.0083
19769TIP3   OH280797   4.647   0.812  13.964  0.0367  0.3234 -0.0574
19769TIP3    H180798   4.607   0.804  13.878 -0.4944  1.4156  0.0678
19769TIP3    H280799   4.693   0.729  13.978  0.2338  0.1907 -1.4308
19770TIP3   OH280800   4.142   3.132  16.681 -0.1147 -0.2652 -0.8213
19770TIP3    H180801   4.205   3.095  16.743 -0.6400 -0.1472 -0.1987
19770TIP3    H280802   4.118   3.216  16.720  0.6513  0.4907 -1.9383
19771TIP3   OH280803   5.556   5.874  16.475 -0.6204  0.5270  0.5595
19771TIP3    H180804   5.597   5.901  16.393 -1.2024  0.6952  0.3196
19771TIP3    H280805   5.472   5.920  16.476 -0.6893  0.3944  1.1697
19772TIP3   OH280806   5.336   3.010   0.720  0.7213  0.0762 -0.2601
19772TIP3    H180807   5.405   2.979   0.779  1.6337  0.1670 -1.2410
19772TIP3    H280808   5.349   2.960   0.639 -2.1123 -1.9163  0.3834
19773TIP3   OH280809   3.841   1.880  12.971 -0.5256  0.0956  0.3669
19773TIP3    H180810   3.815   1.928  13.049 -1.5974 -0.9577  0.6846
19773TIP3    H280811   3.921   1.924  12.942  0.7795 -0.4050  2.9064
19774TIP3   OH280812   1.997   0.788  14.135 -0.0086  0.0798 -0.1022
19774TIP3    H180813   1.929   0.819  14.194  1.2481  3.3222 -0.1509
19774TIP3    H280814   1.966   0.703  14.105 -1.2325 -1.2980  4.3140
19775TIP3   OH280815   5.737   4.562   0.877  0.8836 -0.0135  0.3671
19775TIP3    H180816   5.806   4.629   0.874  0.3493  0.6985  2.5337
19775TIP3    H280817   5.761   4.506   0.950 -0.6524  0.0595  0.9646
19776TIP3   OH280818   3.490   2.602   1.653  0.0518  0.5811 -0.2296
19776TIP3    H180819   3.423   2.657   1.612  0.6111  0.9634 -0.6640
19776TIP3    H280820   3.526   2.657   1.723  0.4715  0.6913 -0.5311
19777TIP3   OH280821   2.569   4.933  16.419  0.4727 -0.3382  0.2426
19777TIP3    H180822   2.623   4.932  16.339  1.6904  0.2440  1.0272
19777TIP3    H280823   2.612   4.870  16.477 -1.5497 -2.2821 -0.2261
19778TIP3   OH280824   0.672   1.695  10.952  0.0342  0.3771 -0.6524
19778TIP3    H180825   0.626   1.617  10.985  1.2728 -0.1704 -0.1536
19778TIP3    H280826   0.614   1.730  10.884 -1.0427 -0.3628 -0.1498
19779TIP3   OH280827   0.234   3.753  14.827 -0.1702 -0.6587  0.0954
19779TIP3    H180828   0.155   3.786  14.785  0.9487  0.1799 -1.4707
19779TIP3    H280829   0.245   3.665  14.792 -0.5292 -0.8754  0.5144
19780TIP3   OH280830   0.575   5.829   5.971  0.0657  1.1304 -0.0913
19780TIP3    H180831   0.619   5.851   6.053  0.3756 -2.6431  0.9179
19780TIP3    H280832   0.483   5.849   5.987  0.0894  0.2663  1.3152
19781TIP3   OH280833   0.481   0.862   0.843  0.1127 -0.6024  0.2363
19781TIP3    H180834   0.531   0.814   0.909 -0.3855 -0.1958  0.9360
19781TIP3    H280835   0.539   0.934   0.817 -0.1874  0.0287  1.2465
19782TIP3   OH280836   0.608   3.568   3.709  0.1937 -0.0106  0.2788
19782TIP3    H180837   0.639   3.601   3.794  0.7819  0.5556 -0.1460
19782TIP3    H280838   0.606   3.473   3.720 -1.0537  0.1109  1.3699
19783TIP3   OH280839   0.096   4.903  15.975  0.4004  0.0747 -0.2278
19783TIP3    H180840   0.190   4.911  15.960  0.2071  1.4341 -0.7832
19783TIP3    H280841   0.078   4.810  15.963  1.5643 -0.0984 -0.7516
19784TIP3   OH280842   6.108   1.910  15.913  0.0620 -0.2825 -0.4732
19784TIP3    H180843   6.174   1.874  15.854 -1.1799 -0.6945 -1.6633
19784TIP3    H280844   6.055   1.835  15.940  1.0201 -0.2406  1.8130
19785TIP3   OH280845   4.504   4.770  16.342  0.7309 -0.1564 -0.3035
19785TIP3    H180846   4.504   4.853  16.295 -1.8211  0.7007  0.9645
19785TIP3    H280847   4.526   4.794  16.432 -1.4481 -0.5328  0.3904
19786TIP3   OH280848   5.279   1.713  11.215 -0.0355 -0.1466  0.6701
19786TIP3    H180849   5.327   1.643  11.170  1.2167 -0.2156  2.0341
19786TIP3    H280850   5.190   1.679  11.223 -0.3230 -0.1403 -1.6631
19787TIP3   OH280851   4.775   2.443   5.281  0.6328  0.0835  0.2390
19787TIP3    H180852   4.712   2.438   5.353  1.5585  1.1076  1.1691
19787TIP3    H280853   4.831   2.366   5.293 -0.0849 -0.5325 -0.2670
19788TIP3   OH280854   3.483   1.559  11.835 -0.4725  0.1790 -0.2194
19788TIP3    H180855   3.524   1.525  11.914  0.4962  1.4159 -0.1668
19788TIP3    H280856   3.519   1.506  11.764 -1.7774 -1.3225  0.1730
19789TIP3   OH280857   1.963   0.896  11.157  0.8039 -0.0092 -0.5533
19789TIP3    H180858   1.959   0.801  11.157  1.7184 -0.0535 -0.4184
19789TIP3    H280859   1.913   0.923  11.080  2.2473 -0.6761 -1.7603
19790TIP3   OH280860   5.090   4.579  13.627 -0.2454 -0.2733 -0.3055
19790TIP3    H180861   5.052   4.538  13.550  0.1664 -1.4950  0.1200
19790TIP3    H280862   5.094   4.672  13.605 -2.3174 -0.2658 -0.8232
19791TIP3   OH280863   3.688   5.131   1.065  0.0118 -0.1004  0.1153
19791TIP3    H180864   3.779   5.162   1.062 -0.2021  0.5649  0.1791
19791TIP3    H280865   3.641   5.192   1.007 -0.3605 -0.5600 -0.0683
19792TIP3   OH280866   6.732   3.330  14.021 -0.4727 -0.1427 -0.3515
19792TIP3    H180867   6.797   3.293  14.081  0.2068  2.2542  0.5049
19792TIP3    H280868   6.784   3.375  13.954 -1.2093  1.2550 -0.0207
19793TIP3   OH280869   5.788   4.006   2.808  0.5039  0.7082 -0.1701
19793TIP3    H180870   5.788   3.916   2.774 -1.7081 -0.1055  1.6424
19793TIP3    H280871   5.744   4.057   2.740 -1.2449 -0.2949  0.1466
19794TIP3   OH280872   1.322   3.319   5.231 -0.1168 -0.1989 -0.4253
19794TIP3    H180873   1.397   3.276   5.190 -0.0717  0.6728 -1.2914
19794TIP3    H280874   1.289   3.379   5.164 -0.3396  0.9095  0.6441
19795TIP3   OH280875   2.690   3.789  13.514 -0.0235 -0.3556  0.3559
19795TIP3    H180876   2.767   3.810  13.566 -0.0215 -1.2042  0.7158
19795TIP3    H280877   2.622   3.848  13.546  0.0458 -0.6970  1.1675
19796TIP3   OH280878   0.453   6.687   4.448 -0.5491 -0.2893 -0.4562
19796TIP3    H180879   0.389   6.748   4.410 -1.1314 -2.1048 -2.6449
19796TIP3    H280880   0.401   6.610   4.471  0.2708 -0.2800  1.5835
19797TIP3   OH280881   3.763   3.255  15.761 -0.2375 -0.0221 -0.0471
19797TIP3    H180882   3.766   3.349  15.745  2.4375  0.0274  0.2036
19797TIP3    H280883   3.785   3.215  15.677  0.4738 -0.3216  0.2714
19798TIP3   OH280884   1.849   2.500   0.419  0.0797  1.1311  0.1862
19798TIP3    H180885   1.776   2.453   0.458  1.0604 -0.3408  0.3231
19798TIP3    H280886   1.810   2.580   0.382 -1.4798  0.6444  0.7393
19799TIP3   OH280887   0.009   2.752   2.649  0.0544 -0.8435  0.1072
19799TIP3    H180888  -0.084   2.746   2.627  0.0054 -0.6284  0.2572
19799TIP3    H280889   0.014   2.823   2.713  0.4650 -0.1580 -0.6676
19800TIP3   OH280890   3.322   5.010  11.784 -0.0637 -0.2294 -0.1937
19800TIP3    H180891   3.263   4.953  11.833  0.5857 -1.2690 -0.5864
19800TIP3    H280892   3.379   4.950  11.735  1.5792  0.7060  0.4783
19801TIP3   OH280893   2.806   3.248   6.262  0.0087  0.6132  0.4202
19801TIP3    H180894   2.754   3.216   6.336  0.9689  0.0639  0.8812
19801TIP3    H280895   2.890   3.274   6.301  0.3967  0.6594 -0.4204
19802TIP3   OH280896   0.618   6.167  17.080  0.2407 -0.4022 -0.3888
19802TIP3    H180897   0.693   6.220  17.108  1.2705 -0.7134 -2.3880
19802TIP3    H280898   0.656   6.091  17.037 -1.2449 -1.1665 -0.4251
19803TIP3   OH280899   4.447   2.383  13.656 -0.2989 -0.3074  0.0153
19803TIP3    H180900   4.498   2.327  13.598  1.0641 -1.4394  2.1652
19803TIP3    H280901   4.477   2.360  13.744 -1.5202  2.0345  1.1424
19804TIP3   OH280902   5.993   5.643  13.281  0.2122 -0.1922  0.6318
19804TIP3    H180903   6.073   5.682  13.247  0.8599 -0.4117  1.8400
19804TIP3    H280904   5.950   5.605  13.204 -0.2441  2.4651 -0.5208
19805TIP3   OH280905   5.520   4.592  11.285  0.2155 -0.9306  0.0452
19805TIP3    H180906   5.485   4.629  11.204  1.3616  2.2990  0.8517
19805TIP3    H280907   5.449   4.540  11.321 -1.1100 -0.5564 -1.8887
19806TIP3   OH280908   0.697   6.041  16.124  0.4713 -0.0892 -0.3486
19806TIP3    H180909   0.672   6.079  16.208 -0.1827  0.2573 -0.6920
19806TIP3    H280910   0.620   6.053  16.068 -0.1553 -2.7603 -0.2253
19807TIP3   OH280911   2.436   0.849  17.273 -0.2811  0.2786 -0.2554
19807TIP3    H180912   2.515   0.903  17.279 -0.8652  1.3639 -1.7651
19807TIP3    H280913   2.365   0.912  17.259 -0.9588 -0.8432 -2.2710
19808TIP3   OH280914   2.727   3.664   1.220  0.1953  0.2528 -0.0249
19808TIP3    H180915   2.692   3.718   1.149  1.3301 -0.4422 -1.1634
19808TIP3    H280916   2.810   3.630   1.185 -0.0256 -1.4396  0.9993
19809TIP3   OH280917   6.771   0.493   1.813 -0.0839 -0.6043  0.6462
19809TIP3    H180918   6.719   0.454   1.743  0.6912  0.1430 -0.3892
19809TIP3    H280919   6.707   0.522   1.878 -0.8852 -0.6262 -0.1185
19810TIP3   OH280920   1.298   2.632   2.559  0.2851  0.3287 -0.9547
19810TIP3    H180921   1.383   2.635   2.514 -0.1250  1.5474 -1.7052
19810TIP3    H280922   1.318   2.601   2.647  1.4698  0.3352 -1.2099
19811TIP3   OH280923   4.923   4.212  14.578  0.1941  0.6563  0.3475
19811TIP3    H180924   5.002   4.172  14.541  0.1818  1.3458 -0.4639
19811TIP3    H280925   4.912   4.293  14.528 -0.5702  0.9712  1.0065
19812TIP3   OH280926   0.728   0.280  12.549 -0.4020 -0.0192 -1.0041
19812TIP3    H180927   0.723   0.185  12.544  0.5717 -0.0943 -0.7692
19812TIP3    H280928   0.804   0.297  12.605 -0.0855  0.8913 -1.6754
19813TIP3   OH280929   4.859   1.076  16.444 -0.0445  0.0566  0.4507
19813TIP3    H180930   4.847   1.057  16.537 -1.9109 -1.7178 -0.1101
19813TIP3    H280931   4.787   1.135  16.422  0.2561  0.2870  0.0727
19814TIP3   OH280932   1.262   1.361   0.287 -0.5092  0.1573  0.0686
19814TIP3    H180933   1.289   1.350   0.378 -0.6500 -1.3546 -0.0563
19814TIP3    H280934   1.167   1.369   0.290 -0.6447 -1.2125 -0.0326
19815TIP3   OH280935   2.212   4.142   2.411 -0.0986  0.5230  0.3012
19815TIP3    H180936   2.221   4.158   2.505 -0.6442 -0.1364  0.4704
19815TIP3    H280937   2.117   4.133   2.397 -0.0399  0.8454 -0.3518
19816TIP3   OH280938   2.448   6.444   1.936 -0.3087  0.3989 -0.6121
19816TIP3    H180939   2.438   6.428   1.843  0.6060 -3.7881 -0.1622
19816TIP3    H280940   2.377   6.395   1.977 -0.2840  1.5824  0.9730
19817TIP3   OH280941   2.546   4.864   3.240  0.2122 -0.5449  0.1254
19817TIP3    H180942   2.628   4.912   3.250 -0.8311  1.1793  0.9091
19817TIP3    H280943   2.572   4.772   3.237  2.1723 -0.0295  0.1690
19818TIP3   OH280944   6.010   4.302   6.359 -0.5021  0.0713  0.1994
19818TIP3    H180945   6.023   4.379   6.414  2.2177  0.4289 -0.7918
19818TIP3    H280946   6.091   4.294   6.309 -1.3224 -2.5335 -0.8922
19819TIP3   OH280947   5.850   3.021  15.672 -0.2783  0.1215 -0.1188
19819TIP3    H180948   5.934   2.986  15.701  0.0603  1.3732  0.4857
19819TIP3    H280949   5.785   2.957  15.703  0.4808 -1.3276 -1.3837
19820TIP3   OH280950   5.991   3.744   5.409  0.2153  0.2105  0.5055
19820TIP3    H180951   5.904   3.785   5.403 -0.3406 -1.0949 -1.7128
19820TIP3    H280952   6.016   3.728   5.318  1.2566 -2.5208  1.1806
19821TIP3   OH280953   4.152   2.842  11.114 -0.0542  0.1709  0.1599
19821TIP3    H180954   4.159   2.765  11.057 -1.6915 -1.0240  1.4696
19821TIP3    H280955   4.232   2.891  11.097  0.4033 -1.0957 -1.7495
19822TIP3   OH280956   1.722   1.843  11.279  0.3577 -0.7441 -0.1607
19822TIP3    H180957   1.742   1.889  11.197  0.7872 -0.0656  0.3203
19822TIP3    H280958   1.643   1.793  11.259 -1.2560  1.6193 -0.2007
19823TIP3   OH280959   2.651   6.154   6.228  0.5147  0.3246 -0.2592
19823TIP3    H180960   2.744   6.175   6.228  0.3022  1.5562  1.5841
19823TIP3    H280961   2.634   6.118   6.315 -0.0186 -3.9133 -1.8592
19824TIP3   OH280962   1.040   3.353  13.895  0.1773  0.4868  0.7217
19824TIP3    H180963   1.070   3.312  13.814  2.1907  1.5984  0.8357
19824TIP3    H280964   0.996   3.283  13.942 -0.6651 -0.2970 -1.1096
19825TIP3   OH280965   2.263   5.359   0.746 -0.0242  0.6879 -0.4901
19825TIP3    H180966   2.176   5.326   0.725  0.4496 -0.5401 -0.6390
19825TIP3    H280967   2.322   5.304   0.694  0.8629  1.1199  0.0380
19826TIP3   OH280968   3.367   4.668  14.442 -0.0608  0.1342  0.2157
19826TIP3    H180969   3.413   4.589  14.414  0.2928  0.5765 -0.4832
19826TIP3    H280970   3.312   4.692  14.367 -0.2369  0.4962  0.4583
19827TIP3   OH280971   3.689   4.040  14.101  0.0505 -0.4381 -0.0301
19827TIP3    H180972   3.719   3.974  14.164 -0.7828  0.2114  1.0970
19827TIP3    H280973   3.651   4.109  14.156  0.0392  0.5311 -1.2282
19828TIP3   OH280974   2.491   2.721   1.522  0.1910  0.3604  0.2131
19828TIP3    H180975   2.405   2.721   1.481  0.9742 -0.0709 -1.4891
19828TIP3    H280976   2.536   2.796   1.484  0.9210 -0.0140  0.3214
19829TIP3   OH280977   3.748   0.759  11.598  0.0328 -0.5743 -0.1981
19829TIP3    H180978   3.842   0.766  11.616  0.2082 -0.7927 -1.0189
19829TIP3    H280979   3.714   0.845  11.622  0.5042 -0.3661 -0.2510
19830TIP3   OH280980   6.385   1.552   4.778  0.0052 -0.2670  0.4808
19830TIP3    H180981   6.411   1.461   4.796  0.1113 -0.1919  0.7198
19830TIP3    H280982   6.347   1.582   4.861  0.8826  0.2222  0.7260
19831TIP3   OH280983   5.381   4.566  12.240  0.0860  0.3205  0.1525
19831TIP3    H180984   5.330   4.487  12.223  1.2251 -0.3920 -0.0590
19831TIP3    H280985   5.408   4.558  12.332  0.1964  0.4746  0.1345
19832TIP3   OH280986   1.112   2.348   0.782 -0.4105 -0.3157 -0.4826
19832TIP3    H180987   1.021   2.335   0.807 -0.2575 -0.9220 -0.2392
19832TIP3    H280988   1.119   2.443   0.766 -0.9112 -0.1659  0.1572
19833TIP3   OH280989   4.214   4.052   6.155  0.1649  0.2138  0.3093
19833TIP3    H180990   4.253   4.097   6.230  0.5102  2.7474 -1.2863
19833TIP3    H280991   4.141   4.108   6.129 -1.0265 -1.5264 -0.2224
19834TIP3   OH280992   2.097   6.494   4.386  0.3079  0.1081 -0.3355
19834TIP3    H180993   2.008   6.459   4.374  0.3480  0.4094 -1.6862
19834TIP3    H280994   2.150   6.418   4.408 -0.3328 -0.0228  0.8487
19835TIP3   OH280995   4.784   4.583   4.633 -0.4606 -0.7324  0.2595
19835TIP3    H180996   4.723   4.537   4.690 -0.8941 -1.5267 -0.8059
19835TIP3    H280997   4.828   4.513   4.584 -2.2269 -0.0978 -2.5164
19836TIP3   OH280998   2.078   5.926   2.945 -0.4789  0.0617  0.6034
19836TIP3    H180999   1.996   5.972   2.965 -0.6701  0.3584 -0.7567
19836TIP3    H281000   2.082   5.855   3.009 -1.8064  0.0313  0.6823
19837TIP3   OH281001   6.677   3.664   1.983 -0.5590 -0.1485  0.2232
19837TIP3    H181002   6.631   3.585   2.010 -0.1320 -1.1677 -1.8123
19837TIP3    H281003   6.609   3.731   1.978 -1.0368 -0.5295  1.3619
19838TIP3   OH281004   3.963   6.261  13.322 -0.1987  0.1381  0.0133
19838TIP3    H181005   3.959   6.357  13.316 -3.5678  0.1269  0.2736
19838TIP3    H281006   3.900   6.231  13.257  0.2472 -1.9057  0.4726
19839TIP3   OH281007   6.374   2.839   0.872  0.0410 -0.1846  0.8269
19839TIP3    H181008   6.462   2.826   0.907 -0.4014 -0.7282  1.7838
19839TIP3    H281009   6.329   2.757   0.890 -0.6485  0.0734  0.3057
19840TIP3   OH281010   0.730   3.924  11.956  0.0333 -0.0195  0.0728
19840TIP3    H181011   0.804   3.881  11.913 -0.6485 -0.7558 -0.3910
19840TIP3    H281012   0.767   4.004  11.994  1.5869 -1.4787  1.8464
19841TIP3   OH281013   5.415   6.442  14.699 -0.6027  0.2910 -0.4490
19841TIP3    H181014   5.410   6.449  14.794  0.0164  0.7699 -0.4410
19841TIP3    H281015   5.503   6.407  14.682 -0.6134  0.4491 -0.8524
19842TIP3   OH281016   5.474   6.678   3.537  0.3886 -0.2627 -0.2436
19842TIP3    H181017   5.405   6.634   3.586 -0.4245 -0.4156 -1.4611
19842TIP3    H281018   5.530   6.717   3.603 -0.4028 -0.8416  0.7992
19843TIP3   OH281019   5.365   6.487   3.758 -0.0775  0.0634  0.0277
19843TIP3    H181020   5.397   6.397   3.750 -0.5936 -0.0409 -0.9007
19843TIP3    H281021   5.410   6.521   3.836  0.5948 -0.7893  0.0247
19844TIP3   OH281022   5.492   4.775   4.757  0.0578  0.2114  0.3009
19844TIP3    H181023   5.496   4.766   4.662 -3.6215 -0.0555  0.0418
19844TIP3    H281024   5.464   4.866   4.771 -1.0700 -0.2326  1.0219
19845TIP3   OH281025   0.453   4.791  13.785 -0.0854 -0.1339 -0.0752
19845TIP3    H181026   0.483   4.733  13.855 -0.5668 -1.9487 -1.2953
19845TIP3    H281027   0.380   4.840  13.823 -1.0064 -1.8305  0.4438
19846TIP3   OH281028   0.556   6.093  14.889 -0.4444  0.2029  0.0534
19846TIP3    H181029   0.508   6.162  14.843  1.6916  2.3099  0.8048
19846TIP3    H281030   0.537   6.013  14.839 -2.3565  1.4322 -1.3320
19847TIP3   OH281031   5.376   2.483  11.472  0.4772  0.5399  0.0583
19847TIP3    H181032   5.293   2.469  11.427  1.3251  1.5584 -1.9516
19847TIP3    H281033   5.353   2.540  11.545 -0.4078  2.1292 -1.3765
19848TIP3   OH281034   4.207   5.504   2.750  0.5527 -0.1042 -0.2269
19848TIP3    H181035   4.143   5.460   2.693  0.5189 -0.6283  0.2069
19848TIP3    H281036   4.201   5.596   2.727 -0.6311 -0.0968  0.0747
19849TIP3   OH281037   3.461   5.213  14.431  0.1936 -0.5998 -0.3589
19849TIP3    H181038   3.520   5.150  14.470  1.2288  0.0127 -0.8859
19849TIP3    H281039   3.411   5.163  14.367 -0.7555 -1.3767  0.9451
19850TIP3   OH281040   5.737   4.547   6.367  0.3947  0.6806  0.4815
19850TIP3    H181041   5.646   4.576   6.375  0.8958  2.5381 -0.0738
19850TIP3    H281042   5.740   4.465   6.416 -2.0501 -0.5401 -1.1601
19851TIP3   OH281043   0.877   2.592  13.926 -0.2096  0.8515 -0.9454
19851TIP3    H181044   0.960   2.629  13.957  0.1909  0.3501 -1.3991
19851TIP3    H281045   0.815   2.608  13.998 -0.3039  3.2407 -1.4994
19852TIP3   OH281046   4.918   4.579   6.052  0.6466 -0.8426  0.0948
19852TIP3    H181047   4.938   4.602   5.961 -0.7730 -1.2989 -0.3507
19852TIP3    H281048   4.823   4.586   6.059  0.7097 -1.0084  1.5007
19853TIP3   OH281049   3.131   1.058  16.219 -0.1229 -0.0979  0.1357
19853TIP3    H181050   3.057   1.009  16.183  0.1587 -1.0621  0.8482
19853TIP3    H281051   3.194   0.991  16.246  0.6152  0.6823  0.3921
19854TIP3   OH281052   3.642   0.879  16.507  0.2929 -0.0759  0.2413
19854TIP3    H181053   3.575   0.897  16.573  0.8310 -1.2235  1.1360
19854TIP3    H281054   3.709   0.946  16.523 -1.5158  2.5318 -2.0981
19855TIP3   OH281055   1.357   6.544  16.757 -0.8362 -0.4047  0.1361
19855TIP3    H181056   1.415   6.612  16.793 -1.3896 -0.2551  0.7699
19855TIP3    H281057   1.417   6.481  16.715 -0.2804  0.1840  0.0305
19856TIP3   OH281058   1.438   6.189  11.340 -0.2983  0.2179 -0.0947
19856TIP3    H181059   1.400   6.258  11.395 -0.3194 -0.1515  0.3574
19856TIP3    H281060   1.396   6.201  11.254  1.3697  2.2354 -0.7323
19857TIP3   OH281061   1.613   2.158  12.924 -0.4563 -0.5660 -0.0463
19857TIP3    H181062   1.561   2.085  12.954 -0.0252 -1.6591 -1.7747
19857TIP3    H281063   1.685   2.165  12.987 -1.2120 -0.7633  0.8535
19858TIP3   OH281064   2.098   5.057  11.211 -0.2667  0.1490 -0.1469
19858TIP3    H181065   2.096   5.153  11.211  1.0531  0.2190  0.9480
19858TIP3    H281066   2.048   5.032  11.289 -1.9848 -0.1440 -1.3072
19859TIP3   OH281067   5.632   6.612  17.071  0.1673  0.3018  0.2338
19859TIP3    H181068   5.721   6.632  17.100  0.0275  1.1645  0.1081
19859TIP3    H281069   5.622   6.660  16.989 -1.1197  2.0457  1.3320
19860TIP3   OH281070   2.277   6.152   6.372  0.5883  0.6286  0.1479
19860TIP3    H181071   2.340   6.080   6.385  0.4396  0.6717  1.1718
19860TIP3    H281072   2.229   6.127   6.292  0.2389 -0.6435  0.7268
19861TIP3   OH281073   0.389   6.390   1.708  0.1235  0.7028  0.1758
19861TIP3    H181074   0.347   6.461   1.757  0.1092  0.1468  0.9713
19861TIP3    H281075   0.477   6.385   1.745 -0.0806 -0.1156  0.5628
19862TIP3   OH281076   4.507   4.735  16.903 -0.3419 -0.6773 -0.0775
19862TIP3    H181077   4.477   4.820  16.937 -1.8039 -0.5317 -1.5684
19862TIP3    H281078   4.432   4.677  16.917  0.1916 -1.3999 -0.2091
19863TIP3   OH281079   1.220   2.794   4.051 -0.1188  0.4761  0.5796
19863TIP3    H181080   1.215   2.829   4.139  4.7414 -0.8918  1.6900
19863TIP3    H281081   1.177   2.708   4.057  1.6986 -0.3828  2.2033
19864TIP3   OH281082   2.429   4.126   3.773  0.0479 -0.0135  0.1487
19864TIP3    H181083   2.450   4.144   3.865 -2.6325  0.3195  0.7791
19864TIP3    H281084   2.426   4.030   3.768 -1.6382 -0.0286  0.9249
19865TIP3   OH281085   0.879   6.472  16.254  0.1945  0.1365  1.0061
19865TIP3    H181086   0.828   6.545  16.290  0.5430  0.3261  1.1180
19865TIP3    H281087   0.924   6.510  16.179  0.1014 -0.0540  0.8541
19866TIP3   OH281088   2.200   1.279  10.758 -0.7610 -0.0159  0.2902
19866TIP3    H181089   2.284   1.321  10.779 -0.5499  0.6915 -1.7502
19866TIP3    H281090   2.188   1.213  10.827  2.2173 -1.2099 -0.2086
19867TIP3   OH281091   5.794   3.291  16.122  0.2680  0.4955  0.0010
19867TIP3    H181092   5.705   3.256  16.125  0.3929  0.2368  0.7985
19867TIP3    H281093   5.823   3.273  16.033 -1.0145  1.9463 -0.7601
19868TIP3   OH281094   1.700   5.901   3.771  0.0778 -0.4396 -0.4847
19868TIP3    H181095   1.650   5.952   3.708 -0.5222  0.0757  0.3798
19868TIP3    H281096   1.766   5.962   3.804  0.5058 -0.7596 -0.7517
19869TIP3   OH281097   4.140   2.584   2.114  0.4911  0.4360 -0.2743
19869TIP3    H181098   4.075   2.543   2.057 -0.9386  0.3065  1.3660
19869TIP3    H281099   4.148   2.525   2.189  0.9354  1.4693  0.5256
19870TIP3   OH281100   2.660   1.070  16.222 -0.4606 -0.5406  0.0733
19870TIP3    H181101   2.709   1.015  16.283 -0.4833  0.7037  1.2343
19870TIP3    H281102   2.615   1.133  16.276 -1.6993 -0.3334 -1.1358
19871TIP3   OH281103   0.381   2.104  16.697 -0.0328 -0.6132  0.1813
19871TIP3    H181104   0.461   2.078  16.743 -0.6400 -1.8748  0.5610
19871TIP3    H281105   0.409   2.116  16.606  0.5668 -1.2322  0.2723
19872TIP3   OH281106   5.733   6.420   4.010  0.0599 -0.3464 -0.3742
19872TIP3    H181107   5.644   6.439   3.980  0.0134 -0.3295 -0.2224
19872TIP3    H281108   5.722   6.359   4.082  0.1782 -0.4360 -0.4314
19873TIP3   OH281109   1.993   5.582  11.537 -0.0926 -0.0531 -0.0563
19873TIP3    H181110   2.024   5.557  11.624  0.2274  0.0336 -0.1443
19873TIP3    H281111   1.898   5.573  11.542 -0.1655  0.9177  0.6145
19874TIP3   OH281112   5.986   0.680   6.204 -0.7377 -0.4397  0.1609
19874TIP3    H181113   5.960   0.712   6.290  0.1597  1.1789 -0.1224
19874TIP3    H281114   5.988   0.759   6.149 -0.1169 -1.2528 -1.0299
19875TIP3   OH281115   0.266   4.873   4.376  0.0946 -0.2285  0.7921
19875TIP3    H181116   0.218   4.880   4.294 -0.7423  1.4853  1.3669
19875TIP3    H281117   0.335   4.809   4.359  0.9612  1.2575 -1.7627
19876TIP3   OH281118   2.096   4.030  12.842 -0.2231  0.0795  0.2306
19876TIP3    H181119   2.109   4.093  12.912  0.8107 -1.2467  1.3126
19876TIP3    H281120   2.115   3.945  12.883 -1.0782 -0.8845 -1.2785
19877TIP3   OH281121   3.414   3.155   3.405 -0.0522  0.3349 -0.3066
19877TIP3    H181122   3.441   3.190   3.491  1.9095  1.2079 -1.2020
19877TIP3    H281123   3.488   3.175   3.348 -1.0900 -0.7308 -2.0921
19878TIP3   OH281124   5.203   4.795   0.482  0.0446 -0.0057  0.6846
19878TIP3    H181125   5.202   4.714   0.532 -1.7117  0.0645  0.8286
19878TIP3    H281126   5.180   4.863   0.546  0.0038  0.3976  0.2522
19879TIP3   OH281127   2.760   3.689  15.134 -0.0413 -0.2283  0.1205
19879TIP3    H181128   2.700   3.619  15.109 -2.1294  1.4107  0.1773
19879TIP3    H281129   2.740   3.760  15.073  2.3363  0.1992 -0.2516
19880TIP3   OH281130   1.543   3.693  16.686  0.6618 -0.1676 -0.2048
19880TIP3    H181131   1.583   3.659  16.606  0.6823 -0.3509 -0.1157
19880TIP3    H281132   1.606   3.757  16.718  0.2253  0.6069 -0.8472
19881TIP3   OH281133   6.617   0.266  15.336  0.1551  0.1754 -0.5255
19881TIP3    H181134   6.575   0.181  15.350 -0.9723  0.6829 -0.7218
19881TIP3    H281135   6.710   0.251  15.355 -0.0742 -1.0366 -0.3296
19882TIP3   OH281136   5.567   1.382   0.944 -0.1528 -0.3298 -0.1724
19882TIP3    H181137   5.503   1.403   1.012 -0.6179 -0.9089 -0.4244
19882TIP3    H281138   5.571   1.460   0.890 -1.5675 -0.6985 -0.8673
19883TIP3   OH281139   4.326   0.457   3.170  0.1133  0.0541 -0.0025
19883TIP3    H181140   4.253   0.493   3.221 -0.2534 -0.4525 -0.1688
19883TIP3    H281141   4.395   0.442   3.235 -0.3336 -0.5454  0.3388
19884TIP3   OH281142   5.906   3.196   2.701 -0.4329  0.1965  0.5411
19884TIP3    H181143   5.831   3.251   2.676 -0.1074  0.3661 -0.0906
19884TIP3    H281144   5.867   3.111   2.723 -0.8246  0.3307  0.3829
19885TIP3   OH281145   5.915   3.130   1.515  0.5067  0.6155 -0.5078
19885TIP3    H181146   6.010   3.125   1.502  0.3267  1.5025 -2.5555
19885TIP3    H281147   5.881   3.054   1.469  0.1849  0.4830 -0.0564
19886TIP3   OH281148   0.576   5.528  10.687 -0.5460  0.1147 -0.2873
19886TIP3    H181149   0.648   5.586  10.710  0.3000 -1.1106  0.2726
19886TIP3    H281150   0.526   5.577  10.622  0.1384  1.4452  0.1487
19887TIP3   OH281151   5.117   4.515  11.166  0.6399  0.1023 -0.1122
19887TIP3    H181152   5.028   4.519  11.200  0.1836  1.5945 -1.3689
19887TIP3    H281153   5.107   4.525  11.071  2.2296  2.7901 -0.1113
19888TIP3   OH281154   2.396   0.158   4.651  0.1457 -0.2870 -0.0619
19888TIP3    H181155   2.307   0.158   4.687  0.1920  0.8390  0.1001
19888TIP3    H281156   2.389   0.204   4.568  0.4358 -0.9659 -0.4743
19889TIP3   OH281157   2.135   4.007   4.511  0.1703 -0.5110  0.0228
19889TIP3    H181158   2.178   3.975   4.591  0.7930 -1.1954 -0.5620
19889TIP3    H281159   2.206   4.049   4.462  0.3243 -2.0175 -1.1472
19890TIP3   OH281160   3.185   2.313  16.291  0.2973  0.4033 -0.0289
19890TIP3    H181161   3.257   2.375  16.292  1.5542 -0.9795  1.2449
19890TIP3    H281162   3.194   2.266  16.208  1.2290 -0.1319  0.3632
19891TIP3   OH281163   3.515   0.838  14.111  0.2917  0.4986  0.0976
19891TIP3    H181164   3.420   0.846  14.119  0.2005 -1.3738  1.7063
19891TIP3    H281165   3.528   0.776  14.039  0.4088  2.0873 -1.3081
19892TIP3   OH281166   4.526   2.006   3.069  0.6528  0.2021 -0.2413
19892TIP3    H181167   4.495   2.092   3.096 -2.4655 -1.0571  0.6527
19892TIP3    H281168   4.535   2.012   2.974 -1.3141  1.0620 -0.4258
19893TIP3   OH281169   6.340   6.705   0.426  0.5955 -0.2738 -0.1367
19893TIP3    H181170   6.415   6.657   0.463  0.6645  0.0331  0.1335
19893TIP3    H281171   6.279   6.637   0.399  0.9076 -0.5260 -0.2198
19894TIP3   OH281172   6.461   5.097  16.223 -0.0046  0.0761 -0.0422
19894TIP3    H181173   6.522   5.085  16.296 -0.6757  2.5159  1.0144
19894TIP3    H281174   6.517   5.105  16.146  0.7481 -1.9430  0.2349
19895TIP3   OH281175   2.430   0.210  16.471 -0.3213  0.1461  0.3924
19895TIP3    H181176   2.375   0.139  16.505 -0.4758 -0.3474 -0.8552
19895TIP3    H281177   2.518   0.190  16.505 -0.7151  0.4645  1.6715
19896TIP3   OH281178   4.106   0.179   3.863 -0.0087  0.2026  0.4298
19896TIP3    H181179   4.033   0.148   3.809 -1.3631  1.8861  1.2035
19896TIP3    H281180   4.180   0.183   3.803 -0.7682 -0.6308 -0.6070
19897TIP3   OH281181   4.465   4.155  16.091  0.0142 -0.7905 -0.4374
19897TIP3    H181182   4.464   4.244  16.126  4.1754 -0.4389 -0.7275
19897TIP3    H281183   4.395   4.155  16.025  1.1661  3.0174 -1.9482
19898TIP3   OH281184   5.715   1.457   5.776 -0.7871  0.5796  0.3059
19898TIP3    H181185   5.642   1.440   5.716 -1.3161  1.9188  0.5350
19898TIP3    H281186   5.693   1.407   5.855 -1.4669  0.9746  0.3756
19899TIP3   OH281187   4.160   6.202   2.032  0.0691 -0.3697 -0.4617
19899TIP3    H181188   4.135   6.243   1.949 -0.6110 -1.2300 -0.6937
19899TIP3    H281189   4.130   6.112   2.024 -2.0633  0.0863  1.6021
19900TIP3   OH281190   3.581   2.668  14.004 -0.4864 -0.3108  0.4941
19900TIP3    H181191   3.644   2.716  13.951 -1.7475 -1.4077 -2.1649
19900TIP3    H281192   3.499   2.717  13.995 -1.3689 -1.9252 -0.8654
19901TIP3   OH281193   5.856   1.060   3.759  0.4896  0.1564 -0.1795
19901TIP3    H181194   5.934   1.014   3.790 -0.0755 -1.2037 -0.7067
19901TIP3    H281195   5.829   1.115   3.832  1.0083 -0.5820  0.5756
19902TIP3   OH281196   0.286   6.204  11.088 -0.3770  0.2415 -0.0733
19902TIP3    H181197   0.325   6.147  11.154 -0.3103  0.2942 -0.0674
19902TIP3    H281198   0.348   6.201  11.015 -1.2054 -1.0830 -0.7762
19903TIP3   OH281199   3.290   2.948  15.666  0.1625  0.0103 -0.3424
19903TIP3    H181200   3.220   2.968  15.728  0.5570  0.5719 -0.0734
19903TIP3    H281201   3.364   3.002  15.694  1.0511 -1.3440  0.0156
19904TIP3   OH281202   3.176   0.872   5.552 -0.2954  0.4767 -0.2952
19904TIP3    H181203   3.159   0.845   5.462 -2.4892 -0.1862  0.2539
19904TIP3    H281204   3.237   0.807   5.586 -0.1893  0.1851 -1.0364
19905TIP3   OH281205   2.968   2.203   1.918  0.0784 -0.3654 -0.1395
19905TIP3    H181206   2.967   2.194   1.823 -0.0361 -1.5499 -0.0423
19905TIP3    H281207   2.888   2.252   1.938  1.5977  2.5907 -0.8501
19906TIP3   OH281208   1.990   0.912   3.083 -0.0454 -0.5187 -0.3481
19906TIP3    H181209   1.989   0.852   3.009  0.9121 -1.7222  0.5785
19906TIP3    H281210   1.899   0.941   3.091 -0.1974 -0.4923 -1.8653
19907TIP3   OH281211   0.890   5.682   1.974 -0.6514 -0.1564 -0.0104
19907TIP3    H181212   0.872   5.590   1.955  1.0453 -1.0314  2.1958
19907TIP3    H281213   0.982   5.694   1.952 -0.5664  0.7059  0.7342
19908TIP3   OH281214   5.396   3.863  13.970 -0.9761 -0.1460 -0.7199
19908TIP3    H181215   5.481   3.898  13.943 -0.4015 -0.3437  0.6886
19908TIP3    H281216   5.399   3.771  13.946  0.0145 -0.6063  0.9487
19909TIP3   OH281217   5.887   1.493  11.113  0.2020 -0.0215 -0.5023
19909TIP3    H181218   5.946   1.455  11.179  1.2561  0.9000 -0.8744
19909TIP3    H281219   5.799   1.469  11.142  0.7266 -0.8966  0.4213
19910TIP3   OH281220   4.109   3.114  11.326 -0.4733 -0.2072 -0.0038
19910TIP3    H181221   4.141   3.050  11.389 -1.6050 -1.2495 -0.4437
19910TIP3    H281222   4.036   3.071  11.283  1.2618 -0.2238 -3.2335
19911TIP3   OH281223   3.935   0.414   5.104 -0.6049  0.6822  0.0351
19911TIP3    H181224   3.908   0.341   5.049  2.7291 -1.6531  1.1701
19911TIP3    H281225   4.011   0.452   5.059 -0.2285  1.2377  1.0898
19912TIP3   OH281226   1.372   2.209   3.293  0.8463  0.2242 -0.2943
19912TIP3    H181227   1.332   2.237   3.375  1.5313 -0.0739  0.1594
19912TIP3    H281228   1.306   2.153   3.252 -0.5378  2.4138 -1.2214
19913TIP3   OH281229   2.604   4.397  11.796  0.3656  0.2066 -0.0138
19913TIP3    H181230   2.673   4.429  11.738 -0.0418 -0.9715 -1.1751
19913TIP3    H281231   2.651   4.343  11.861  0.6307  0.1586 -0.2447
19914TIP3   OH281232   2.027   5.670  14.128  0.6832  0.0950 -0.1226
19914TIP3    H181233   1.982   5.706  14.052  0.4144 -2.6545 -1.3604
19914TIP3    H281234   2.071   5.592  14.096  0.4878 -1.2400  2.5596
19915TIP3   OH281235   5.726   2.694  16.230  0.3855 -0.1853  0.2138
19915TIP3    H181236   5.790   2.631  16.196  0.6897  0.7492 -1.0363
19915TIP3    H281237   5.723   2.677  16.324  0.2164 -2.2496 -0.1232
19916TIP3   OH281238   1.044   4.591  13.015 -0.3788 -0.5450  0.3728
19916TIP3    H181239   1.066   4.674  13.058 -1.3954  0.7157 -1.3859
19916TIP3    H281240   0.962   4.564  13.056 -0.0184 -0.7278  0.9875
19917TIP3   OH281241   3.771   0.708   0.902  0.2541 -0.4076  0.0706
19917TIP3    H181242   3.715   0.652   0.848  0.5928 -1.9768  1.2934
19917TIP3    H281243   3.781   0.788   0.850 -2.3363 -0.4404 -0.5952
19918TIP3   OH281244   2.514   1.921  12.691  0.5853  0.0703 -0.1649
19918TIP3    H181245   2.550   1.835  12.709  0.5653 -0.0519 -0.6804
19918TIP3    H281246   2.509   1.964  12.776 -1.7484 -1.3296  0.4927
19919TIP3   OH281247   1.988   0.556  12.279  0.2934  0.3175 -0.0261
19919TIP3    H181248   1.913   0.508  12.245  0.5390 -0.0212 -0.0973
19919TIP3    H281249   2.060   0.493  12.277  0.4673  0.4905  0.4931
19920TIP3   OH281250   1.067   3.043   5.797 -0.4044  0.4785  0.3709
19920TIP3    H181251   1.123   3.077   5.727 -0.7976  0.5967  0.1105
19920TIP3    H281252   1.014   3.118   5.825  1.3561  1.0645  2.4326
19921TIP3   OH281253   3.185   3.058  12.727  0.3811  0.1199 -0.4101
19921TIP3    H181254   3.197   3.077  12.634 -1.5633  1.6827 -0.4168
19921TIP3    H281255   3.170   2.964  12.730  0.7032  0.0090 -1.6436
19922TIP3   OH281256   2.175   6.430  11.292 -0.1376  0.2750  0.2800
19922TIP3    H181257   2.154   6.511  11.339 -1.1424 -0.3819  1.0136
19922TIP3    H281258   2.089   6.391  11.273  0.3061 -0.2089 -0.7963
19923TIP3   OH281259   0.650   0.298  13.110 -0.2123  0.0330  0.2449
19923TIP3    H181260   0.580   0.237  13.087  0.6363  0.0039 -2.6768
19923TIP3    H281261   0.717   0.244  13.153 -1.1030 -0.3007  1.2449
19924TIP3   OH281262   4.029   5.441  13.025  0.1012  0.2828 -0.2109
19924TIP3    H181263   4.053   5.477  13.110  0.6730 -0.2607 -0.1412
19924TIP3    H281264   3.949   5.489  13.001  0.3853  1.0112  0.2542
19925TIP3   OH281265   4.112   0.018   3.323  0.9749 -0.5666  0.0838
19925TIP3    H181266   4.027  -0.002   3.363  0.2969 -0.2187 -1.1141
19925TIP3    H281267   4.090   0.051   3.236  2.3814 -1.2845 -0.5827
19926TIP3   OH281268   2.040   0.520  17.083  0.6155  0.0596  0.5805
19926TIP3    H181269   2.132   0.496  17.090  1.1571  2.1649  1.5741
19926TIP3    H281270   2.040   0.609  17.046 -1.0689 -0.1904 -0.1540
19927TIP3   OH281271   1.590   6.601   6.140  0.5935  0.2626  0.1650
19927TIP3    H181272   1.672   6.587   6.091  0.3433  1.0183 -0.5005
19927TIP3    H281273   1.610   6.672   6.200  0.6695 -0.1372  0.6192
19928TIP3   OH281274   5.760   5.820   0.825  0.1524 -0.4000 -0.3555
19928TIP3    H181275   5.845   5.809   0.782  1.3307  1.5515  1.2693
19928TIP3    H281276   5.773   5.783   0.913 -0.9025 -0.6403 -0.2875
19929TIP3   OH281277   3.223   1.868  11.573  0.5426  0.1184  0.5971
19929TIP3    H181278   3.201   1.918  11.652  0.0471  0.4181  0.2725
19929TIP3    H281279   3.316   1.845  11.584  1.0315  1.8304  0.3634
19930TIP3   OH281280   4.905   6.423   2.470 -0.3032 -0.0537  0.3966
19930TIP3    H181281   4.814   6.405   2.490 -0.1876 -0.5718  0.4720
19930TIP3    H281282   4.903   6.498   2.411 -0.7315  0.4678  1.0673
19931TIP3   OH281283   5.109   1.506  16.197  0.2900  0.1740  0.2651
19931TIP3    H181284   5.136   1.440  16.261 -0.1841  1.0367  1.3954
19931TIP3    H281285   5.030   1.469  16.157  1.6499 -1.2370 -1.2578
19932TIP3   OH281286   2.784   1.897   2.605  0.2928  0.0581 -0.2487
19932TIP3    H181287   2.831   1.972   2.640  1.7441 -0.1548 -1.6055
19932TIP3    H281288   2.714   1.935   2.551  0.5835  0.4287 -0.3674
19933TIP3   OH281289   4.048   5.056   2.246  0.5483 -0.2532  0.4618
19933TIP3    H181290   3.953   5.063   2.241  0.0536 -3.4453  2.4455
19933TIP3    H281291   4.072   5.111   2.322  0.0186 -0.8450  1.0709
19934TIP3   OH281292   6.509   5.535   5.576 -0.6092  0.4247  0.0462
19934TIP3    H181293   6.481   5.623   5.549 -0.6610  0.3098 -0.2760
19934TIP3    H281294   6.436   5.502   5.629 -0.7067  0.4704 -0.0583
19935TIP3   OH281295   6.094   2.918  15.156  0.2023 -0.1851 -0.6471
19935TIP3    H181296   6.037   2.852  15.197 -1.2894  1.3974 -0.0784
19935TIP3    H281297   6.034   2.980  15.117  1.5845  0.8322 -1.2202
19936TIP3   OH281298   5.130   0.782  16.659  0.3860  0.1807 -0.1217
19936TIP3    H181299   5.201   0.806  16.600  0.1227  0.5305 -0.3019
19936TIP3    H281300   5.171   0.726  16.725  1.5861  3.0971  1.7765
19937TIP3   OH281301   3.674   4.956   3.415 -0.2710 -0.2633  0.3103
19937TIP3    H181302   3.619   4.957   3.493 -0.1186 -1.0427  0.4329
19937TIP3    H281303   3.763   4.943   3.449 -0.3289 -1.7921 -0.0384
19938TIP3   OH281304   1.928   2.756  11.471 -0.1224  0.3198 -0.0967
19938TIP3    H181305   1.903   2.842  11.438 -0.9395  0.2309  0.2459
19938TIP3    H281306   2.002   2.729  11.416 -0.6714  0.6895 -1.0461
19939TIP3   OH281307   3.325   3.849  14.627  0.1141 -0.1360  0.0338
19939TIP3    H181308   3.381   3.925  14.643  1.4401 -0.8253 -1.0438
19939TIP3    H281309   3.362   3.780  14.683 -0.6730 -0.1835  0.5151
19940TIP3   OH281310   1.441   1.194  14.466  0.0456  0.2194  0.3090
19940TIP3    H181311   1.483   1.265  14.417 -0.9640  0.6398  0.0170
19940TIP3    H281312   1.453   1.218  14.558  1.1223 -0.0756  0.2459
19941TIP3   OH281313   5.115   6.115  13.931 -0.9172  0.5730 -0.2592
19941TIP3    H181314   5.050   6.143  13.996  0.0048  0.6346  0.6656
19941TIP3    H281315   5.183   6.182  13.934 -0.1664 -0.1608 -0.2274
19942TIP3   OH281316   6.029   3.685   5.146  0.0582 -0.1607  0.1364
19942TIP3    H181317   5.934   3.678   5.148  0.0589 -0.0501  0.6849
19942TIP3    H281318   6.048   3.745   5.075 -0.3415  0.7527  0.7838
19943TIP3   OH281319   1.307   1.421   0.571  0.3202  0.0866 -0.0705
19943TIP3    H181320   1.371   1.359   0.536 -0.1287 -1.3934  1.5932
19943TIP3    H281321   1.313   1.411   0.666 -2.2724 -0.0374  0.1610
19944TIP3   OH281322   6.420   3.168  15.091 -0.8290  0.0465 -0.1445
19944TIP3    H181323   6.478   3.139  15.161  0.7457  0.5115 -1.1940
19944TIP3    H281324   6.413   3.091  15.033  0.0208  0.4339 -0.7987
19945TIP3   OH281325   2.190   1.548  15.486 -0.0972 -0.8439  0.9450
19945TIP3    H181326   2.265   1.591  15.526 -0.4335  1.0301 -0.2816
19945TIP3    H281327   2.221   1.523  15.399 -0.8459 -0.1007  0.4460
19946TIP3   OH281328   4.899   5.979   3.367 -0.2768 -0.1734  0.0245
19946TIP3    H181329   4.877   5.909   3.428  0.6964 -0.3209  0.2228
19946TIP3    H281330   4.994   5.973   3.357  0.0086  1.8901  0.9996
19947TIP3   OH281331   5.032   4.005  15.337 -0.0046  0.0147 -0.4432
19947TIP3    H181332   4.958   4.014  15.277 -2.3274 -1.3955  1.9556
19947TIP3    H281333   5.070   3.919  15.317 -1.4812 -0.9591  0.7095
19948TIP3   OH281334   0.950   0.412   5.390 -0.3823  0.0685  0.1750
19948TIP3    H181335   0.871   0.379   5.432 -1.2384  0.9495 -0.6891
19948TIP3    H281336   0.983   0.338   5.340 -1.4015  0.0390 -0.4863
19949TIP3   OH281337   4.644   1.096   6.541 -0.2834 -0.6640 -0.1274
19949TIP3    H181338   4.581   1.062   6.479  0.7643 -1.6913 -0.6638
19949TIP3    H281339   4.690   1.019   6.574  1.2474  0.1007 -0.3715
19950TIP3   OH281340   6.494   1.304   4.849 -0.0286  0.2538  0.3126
19950TIP3    H181341   6.502   1.241   4.778 -1.6880 -0.4276  0.6760
19950TIP3    H281342   6.569   1.288   4.906  1.3543  0.8477 -1.2719
19951TIP3   OH281343   4.829   1.049   1.299 -0.4748 -0.3875  0.3873
19951TIP3    H181344   4.870   0.972   1.339 -1.3116 -0.8140  0.4475
19951TIP3    H281345   4.890   1.121   1.317  0.6578 -1.1547 -0.2688
19952TIP3   OH281346   5.169   3.531   4.148 -0.5144 -0.0486 -0.3002
19952TIP3    H181347   5.112   3.454   4.146 -0.6618  0.0705 -1.4669
19952TIP3    H281348   5.113   3.603   4.119 -0.1123  0.3147 -0.1897
19953TIP3   OH281349   3.193   0.203  15.880  0.0585  0.0769  0.4902
19953TIP3    H181350   3.115   0.150  15.864 -0.6218  0.7130  1.5571
19953TIP3    H281351   3.246   0.150  15.938  1.3766 -1.1812 -1.7246
19954TIP3   OH281352   4.554   6.075   4.926  0.1354  0.7920  0.7761
19954TIP3    H181353   4.586   6.130   4.997  0.8338 -0.7765  1.7283
19954TIP3    H281354   4.632   6.060   4.871  0.3655 -0.5341  1.4215
19955TIP3   OH281355   2.057   3.697  15.777 -0.2141  0.3122  0.5635
19955TIP3    H181356   2.112   3.665  15.706 -0.4983  1.3709 -0.1630
19955TIP3    H281357   2.038   3.620  15.830  0.0709 -0.4828 -0.4679
19956TIP3   OH281358   3.786   2.825  10.262 -0.0026 -0.2464 -0.2732
19956TIP3    H181359   3.765   2.732  10.251  0.1274 -0.2772 -0.2621
19956TIP3    H281360   3.880   2.830  10.245  0.2584 -0.3241  1.0332
19957TIP3   OH281361   1.232   5.872   4.327  0.3290 -0.4946 -0.6761
19957TIP3    H181362   1.189   5.951   4.359  0.5952 -0.7098  0.2485
19957TIP3    H281363   1.166   5.828   4.273 -0.1236 -0.0991 -0.4484
19958TIP3   OH281364   3.902   4.964   5.187 -0.2140 -0.0472  0.0191
19958TIP3    H181365   3.953   5.040   5.163 -1.0496  0.4822 -0.1323
19958TIP3    H281366   3.928   4.944   5.277 -1.6153  1.8190  0.8981
19959TIP3   OH281367   5.920   6.227  15.495  0.5162 -0.5825  0.5883
19959TIP3    H181368   5.833   6.222  15.456  0.7203 -0.4525  0.1148
19959TIP3    H281369   5.903   6.246  15.588  0.0327 -0.9485  0.5825
19960TIP3   OH281370   0.501   2.667  13.034  0.1469  0.1041 -0.0571
19960TIP3    H181371   0.438   2.737  13.023 -0.3861 -0.7005 -3.3845
19960TIP3    H281372   0.552   2.668  12.953 -0.4828 -3.8074 -0.7179
19961TIP3   OH281373   0.766   3.902   0.244 -0.2824  0.0613 -0.2161
19961TIP3    H181374   0.776   3.807   0.251  2.1456  0.1113 -1.7443
19961TIP3    H281375   0.684   3.914   0.197 -0.2177 -1.3225 -0.7348
19962TIP3   OH281376   5.510   0.390   4.044 -0.4755  0.1358 -0.0827
19962TIP3    H181377   5.506   0.344   3.960  0.7299  0.0359 -0.1035
19962TIP3    H281378   5.601   0.419   4.051 -1.2027  2.6309 -0.1224
19963TIP3   OH281379   1.025   4.720  10.564  0.1870 -0.4034 -0.5020
19963TIP3    H181380   0.991   4.809  10.567 -0.4256 -0.6560  1.1172
19963TIP3    H281381   0.969   4.671  10.625  1.8205 -1.4149  0.2570
19964TIP3   OH281382   4.505   6.368  14.609 -0.1551  0.4287  0.3765
19964TIP3    H181383   4.454   6.363  14.528  0.3098 -0.3041  0.1203
19964TIP3    H281384   4.489   6.285  14.652  0.8147  0.1917  0.2957
19965TIP3   OH281385   3.097   5.759   2.885 -0.2615 -0.5951 -1.2057
19965TIP3    H181386   3.052   5.838   2.857  0.2229  0.8969  1.8389
19965TIP3    H281387   3.190   5.783   2.885 -0.2147 -0.5545  1.2199
19966TIP3   OH281388   4.232   3.284  12.758 -0.3008 -0.1162  0.3501
19966TIP3    H181389   4.325   3.302  12.750  0.0272 -0.8281  2.0933
19966TIP3    H281390   4.204   3.334  12.835 -0.9937 -1.0923  0.7627
19967TIP3   OH281391   2.002   1.031   0.153 -0.0647 -0.1302 -0.0836
19967TIP3    H181392   1.953   1.114   0.158  0.5494  0.4246 -2.1360
19967TIP3    H281393   2.084   1.049   0.200 -0.3654  0.0696  0.3763
19968TIP3   OH281394   1.935   5.689  12.372  0.3649 -1.0523  0.0450
19968TIP3    H181395   1.927   5.721  12.462  1.2547 -1.0870  0.1467
19968TIP3    H281396   2.019   5.724  12.342 -0.4431 -0.0921 -1.1706
19969TIP3   OH281397   4.532   6.670   0.925  0.0425 -0.1514  0.1628
19969TIP3    H181398   4.609   6.613   0.918  0.4515  0.4569 -0.4173
19969TIP3    H281399   4.554   6.730   0.996 -0.4136 -0.7313  0.8134
19970TIP3   OH281400   0.895   0.254  17.230  0.4286  0.1474  0.9119
19970TIP3    H181401   0.935   0.293  17.153  2.6677 -0.3804  1.7479
19970TIP3    H281402   0.803   0.279  17.224  0.8961  1.6298 -0.9625
19971TIP3   OH281403   5.767   1.211  12.707  0.7341  0.1379  0.2987
19971TIP3    H181404   5.747   1.137  12.649  0.6144  0.2207  0.2340
19971TIP3    H281405   5.839   1.179  12.762  0.6682 -0.0345  0.2864
19972TIP3   OH281406   1.226   4.980  16.909  0.3892 -0.2720  0.3505
19972TIP3    H181407   1.255   4.904  16.858 -1.4801  0.2985 -1.7266
19972TIP3    H281408   1.249   5.056  16.854 -0.6104  0.4556  0.9016
19973TIP3   OH281409   2.404   5.706  15.591  0.3063 -0.2281  0.6049
19973TIP3    H181410   2.313   5.729  15.577  0.5875  0.0211 -1.0939
19973TIP3    H281411   2.410   5.682  15.683 -1.3560  0.2355  0.8539
19974TIP3   OH281412   0.091   6.255  16.413 -0.1175  0.1592 -0.3234
19974TIP3    H181413   0.119   6.242  16.322 -0.0487  0.3396 -0.3270
19974TIP3    H281414   0.033   6.330  16.411 -0.7330 -0.3093 -0.3378
19975TIP3   OH281415   3.503   3.167  16.627  0.4406  0.1595  0.2521
19975TIP3    H181416   3.518   3.119  16.546 -0.4798 -0.0473  0.1903
19975TIP3    H281417   3.493   3.099  16.694 -1.6311  0.1775  0.0353
19976TIP3   OH281418   6.176   3.525  13.416 -0.4237  0.4677 -0.2728
19976TIP3    H181419   6.152   3.539  13.507  0.2334 -1.4361  0.2250
19976TIP3    H281420   6.272   3.520  13.417 -0.3939  0.6858 -1.1213
19977TIP3   OH281421   0.021   5.168  13.130 -0.0733 -0.0584  0.5894
19977TIP3    H181422   0.083   5.194  13.062 -0.8221  0.6517  0.1612
19977TIP3    H281423  -0.021   5.249  13.157  0.0665 -0.3559  1.7747
19978TIP3   OH281424   1.603   3.035  15.861  0.1304  0.7942  0.3070
19978TIP3    H181425   1.638   2.977  15.929  0.4835 -0.2170 -0.6949
19978TIP3    H281426   1.546   2.978  15.809  0.4982  1.3385 -0.7202
19979TIP3   OH281427   5.151   3.851   5.883 -0.2985  0.0883  0.4338
19979TIP3    H181428   5.127   3.787   5.817 -2.0728  0.6363  0.5081
19979TIP3    H281429   5.069   3.894   5.907  0.3303  0.1660  2.7237
19980TIP3   OH281430   3.123   6.037  11.519  0.0729 -0.3399 -0.0841
19980TIP3    H181431   3.069   6.074  11.450  1.5623  1.7823 -0.2285
19980TIP3    H281432   3.108   6.095  11.594  0.7474 -0.8155  0.4316
19981TIP3   OH281433   6.512   5.158   2.058 -0.0697  0.4888 -0.2978
19981TIP3    H181434   6.444   5.141   2.124  0.2317 -0.1687 -0.1491
19981TIP3    H281435   6.469   5.215   1.995 -1.5938 -1.8198 -1.5201
19982TIP3   OH281436   4.102   6.028  16.779 -0.1777  0.0807  0.1145
19982TIP3    H181437   4.095   6.106  16.833 -0.3070 -0.1203  0.3929
19982TIP3    H281438   4.015   5.988  16.782 -0.4764  0.6039 -1.0729
19983TIP3   OH281439   2.335   5.707  14.183  0.0229 -0.2416 -0.6848
19983TIP3    H181440   2.261   5.701  14.123  0.1681  0.7634 -0.9799
19983TIP3    H281441   2.410   5.677  14.130  0.0039 -0.2372 -0.7137
19984TIP3   OH281442   2.209   3.437  15.219  0.0769  0.3612 -0.1906
19984TIP3    H181443   2.154   3.396  15.152 -0.8553  1.5619 -0.1817
19984TIP3    H281444   2.270   3.368  15.244 -1.0717 -0.8484 -0.5818
19985TIP3   OH281445   4.575   4.167  12.794 -0.2414 -0.1154 -0.3353
19985TIP3    H181446   4.605   4.105  12.728  0.0438  0.4265 -0.7235
19985TIP3    H281447   4.645   4.168  12.859  0.8567  1.5048 -1.4790
19986TIP3   OH281448   5.201   4.381  10.820 -0.3024 -0.1939  0.5712
19986TIP3    H181449   5.133   4.314  10.806  0.3811 -1.4244  2.6256
19986TIP3    H281450   5.154   4.456  10.855 -1.4084  1.4029 -3.6628
19987TIP3   OH281451   3.451   4.320  14.619  0.1739 -0.0958 -0.0028
19987TIP3    H181452   3.395   4.360  14.686  0.1956  2.0221 -1.1517
19987TIP3    H281453   3.430   4.227  14.622 -0.8851  0.1619  1.9246
19988TIP3   OH281454   5.435   3.508   3.579 -0.1858 -0.0694  0.4262
19988TIP3    H181455   5.373   3.494   3.651  0.0488  1.1445  0.8903
19988TIP3    H281456   5.517   3.529   3.622  0.3726 -0.9206 -0.1975
19989TIP3   OH281457   6.783   5.448   5.484  0.4616  0.4459 -0.0853
19989TIP3    H181458   6.784   5.360   5.521  1.0300  0.8094  0.8088
19989TIP3    H281459   6.690   5.471   5.479  0.1574 -1.0202 -2.4151
19990TIP3   OH281460   4.787   5.992   2.267 -0.4037 -0.1401  0.3044
19990TIP3    H181461   4.822   5.922   2.212 -1.0317 -1.4508  1.5128
19990TIP3    H281462   4.694   5.994   2.247 -0.2735  0.8593 -0.2477
19991TIP3   OH281463   3.666   4.102   5.494  0.6202 -0.7521  0.1091
19991TIP3    H181464   3.678   4.158   5.571 -1.8168  1.3837 -0.9477
19991TIP3    H281465   3.753   4.097   5.455  1.5856 -0.5665  2.0806
19992TIP3   OH281466   5.040   0.240   2.830 -0.6266  0.1056 -0.0647
19992TIP3    H181467   5.049   0.323   2.877 -2.1470 -0.7724  1.9300
19992TIP3    H281468   5.094   0.179   2.879 -1.2104 -0.5400 -0.2137
19993TIP3   OH281469   3.250   1.249   6.579 -0.5382  0.2485 -0.2504
19993TIP3    H181470   3.205   1.199   6.647 -0.8485  0.7607 -0.0736
19993TIP3    H281471   3.336   1.208   6.572 -0.2350  0.6432  0.9726
19994TIP3   OH281472   4.300   3.416   2.516  0.2943 -0.5887 -0.3603
19994TIP3    H181473   4.369   3.444   2.576  0.9553 -2.3548 -0.2279
19994TIP3    H281474   4.254   3.347   2.564 -0.7330 -0.3372 -0.9615
19995TIP3   OH281475   6.231   3.320   5.355 -0.1509 -0.0639 -0.5312
19995TIP3    H181476   6.320   3.334   5.322 -0.0310  0.3881 -0.0211
19995TIP3    H281477   6.194   3.407   5.364 -0.8254 -0.2704 -1.1993
19996TIP3   OH281478   2.454   2.616  10.974 -0.1753 -0.0760  0.4547
19996TIP3    H181479   2.417   2.703  10.957 -1.1804 -0.5613  0.0807
19996TIP3    H281480   2.543   2.621  10.939 -0.2550  0.7711  0.3466
19997TIP3   OH281481   3.115   5.879  12.803  0.9577  0.5127 -0.5195
19997TIP3    H181482   3.143   5.817  12.736  0.8530  0.7392 -0.7785
19997TIP3    H281483   3.156   5.848  12.884 -1.2211 -1.4435 -0.0611
19998TIP3   OH281484   2.636   4.262   1.183  0.0831 -0.4522 -0.0963
19998TIP3    H181485   2.556   4.312   1.169 -0.7075 -1.5437  0.3711
19998TIP3    H281486   2.627   4.227   1.272  0.4388 -1.7141 -0.5353
19999TIP3   OH281487   1.914   5.896  14.898 -0.0049  0.0781 -0.8495
19999TIP3    H181488   1.901   5.811  14.941 -0.7353  0.5628 -0.0745
19999TIP3    H281489   2.002   5.923  14.923  0.1086 -0.3049 -0.8305
20000TIP3   OH281490   1.296   6.667   5.353 -0.6694 -0.4048 -0.5914
20000TIP3    H181491   1.354   6.593   5.369  1.1514  0.6575 -1.9975
20000TIP3    H281492   1.264   6.654   5.264  0.0468  0.7160 -1.0313
20001TIP3   OH281493   6.511   0.363  14.787 -0.5161 -0.0170 -0.4028
20001TIP3    H181494   6.522   0.268  14.791 -2.9238 -0.4264 -1.3700
20001TIP3    H281495   6.539   0.387  14.699  1.8477  0.5295  0.4291
20002TIP3   OH281496   4.567   2.886   0.232  0.4102  0.2517  0.1385
20002TIP3    H181497   4.496   2.852   0.287 -0.6436  2.3184  0.1272
20002TIP3    H281498   4.638   2.823   0.243 -1.3057 -1.7458  0.3683
20003TIP3   OH281499   5.595   2.480   3.826  0.1178  0.0787 -0.0588
20003TIP3    H181500   5.667   2.530   3.864  0.6050 -0.8769  0.3172
20003TIP3    H281501   5.612   2.482   3.732  0.5752 -0.0401  0.0174
20004TIP3   OH281502   6.088   5.949  16.089  0.0388  0.0189  0.2147
20004TIP3    H181503   6.046   6.034  16.101  1.5196  0.9259 -0.6948
20004TIP3    H281504   6.029   5.887  16.130 -2.2653  1.1965 -1.1213
20005TIP3   OH281505   1.220   2.893   3.103  0.4813 -0.0189 -0.0896
20005TIP3    H181506   1.222   2.974   3.052  0.8136 -0.3226 -0.5755
20005TIP3    H281507   1.217   2.921   3.194  0.7642  0.5364 -0.2493
20006TIP3   OH281508   3.900   3.893   0.435 -0.1621 -0.0211 -0.7512
20006TIP3    H181509   3.850   3.927   0.509  0.3110 -1.0510  0.0722
20006TIP3    H281510   3.837   3.838   0.387  0.5904 -3.0624  1.4727
20007TIP3   OH281511   0.048   5.864  13.121  0.3720 -0.9709 -0.7390
20007TIP3    H181512   0.007   5.779  13.110 -1.1141 -0.0687 -3.0383
20007TIP3    H281513   0.108   5.871  13.047  1.4009 -0.4884  0.1166
20008TIP3   OH281514   3.898   5.779  13.305  0.5636  0.4014 -0.7368
20008TIP3    H181515   3.833   5.847  13.290  2.6579  2.0894 -3.0065
20008TIP3    H281516   3.975   5.825  13.338  0.9530 -1.4179  1.1543
20009TIP3   OH281517   2.057   3.035   2.212 -0.4191 -0.2304  0.5925
20009TIP3    H181518   2.064   2.942   2.236  0.8224 -1.1098 -2.7048
20009TIP3    H281519   2.127   3.077   2.262 -0.5341 -1.1431  1.5783
20010TIP3   OH281520   6.748   2.588  15.067 -0.2007 -0.0663 -0.0854
20010TIP3    H181521   6.826   2.644  15.075  0.0366 -0.1724 -1.4846
20010TIP3    H281522   6.699   2.625  14.994  0.1304 -1.8483 -1.2584
20011TIP3   OH281523   1.424   1.328  13.836  0.4448 -0.0564 -0.0145
20011TIP3    H181524   1.338   1.352  13.799  0.9952 -0.9156 -2.0123
20011TIP3    H281525   1.487   1.362  13.773  1.6022  0.4546  1.3715
20012TIP3   OH281526   4.149   5.331   3.214  0.3565  0.7052 -0.0617
20012TIP3    H181527   4.105   5.389   3.152  0.2513  1.0338  0.3195
20012TIP3    H281528   4.193   5.266   3.159 -0.8529  0.1865 -0.4452
20013TIP3   OH281529   3.392   0.051   1.011 -0.1545  0.6157 -0.2078
20013TIP3    H181530   3.405   0.057   1.105 -1.3302 -0.4401  0.0518
20013TIP3    H281531   3.480   0.053   0.973  0.3060  1.4627  0.8643
20014TIP3   OH281532   5.303   0.077  14.941  0.0642  0.3966  0.6694
20014TIP3    H181533   5.348   0.105  14.862  0.6204  1.0696  1.2056
20014TIP3    H281534   5.243   0.149  14.961  1.1834  1.0757  1.8100
20015TIP3   OH281535   3.270   3.630  16.545  0.0851  0.0267  0.4936
20015TIP3    H181536   3.325   3.562  16.584  2.1330  1.9822  1.2873
20015TIP3    H281537   3.296   3.710  16.591 -2.5114  1.3045 -0.1048
20016TIP3   OH281538   6.480   3.090  14.672  0.0077  0.3918 -0.1409
20016TIP3    H181539   6.542   3.144  14.721 -1.0996  1.3387  0.2306
20016TIP3    H281540   6.416   3.151  14.636 -2.1777 -0.7338  1.5712
20017TIP3   OH281541   4.486   3.632   5.946 -0.1833 -0.2573  0.2925
20017TIP3    H181542   4.561   3.576   5.964  1.0139  2.1190  3.5354
20017TIP3    H281543   4.521   3.721   5.945 -2.2943  0.7238 -2.7821
20018TIP3   OH281544   5.611   6.757   2.997  0.8069  0.2568 -0.2128
20018TIP3    H181545   5.643   6.667   3.002  2.3458  0.7570 -0.5290
20018TIP3    H281546   5.662   6.796   2.926  1.9923  2.0830  1.5577
20019TIP3   OH281547   5.107   3.496  13.352  0.3441 -0.5138  0.4530
20019TIP3    H181548   5.082   3.403  13.359 -0.3858 -0.3093  0.6885
20019TIP3    H281549   5.199   3.498  13.379  0.1859 -1.0759  1.0786
20020TIP3   OH281550   0.572   6.215   0.921 -0.8255 -0.2310  0.5627
20020TIP3    H181551   0.647   6.190   0.868  0.4778  1.4846  1.5073
20020TIP3    H281552   0.524   6.278   0.867  1.0304  2.2659  1.6629
20021TIP3   OH281553   2.745   6.480   5.953  0.0256  0.0042 -0.1174
20021TIP3    H181554   2.671   6.469   5.894  1.2846 -0.5333 -1.6914
20021TIP3    H281555   2.708   6.518   6.032 -1.6985  1.1711 -1.4008
20022TIP3   OH281556   3.547   3.408   5.238  0.9038  0.8821 -0.1841
20022TIP3    H181557   3.516   3.334   5.185 -1.8386  0.4578  1.8071
20022TIP3    H281558   3.642   3.408   5.226  0.9654 -2.6121 -0.7399
20023TIP3   OH281559   1.221   4.638   3.496  0.2276 -0.6759  0.2263
20023TIP3    H181560   1.169   4.622   3.574  0.5368 -0.9269  0.3825
20023TIP3    H281561   1.255   4.727   3.507  0.8746 -0.9779  0.7323
20024TIP3   OH281562   5.163   5.975  15.247  0.4030  0.2700  0.3288
20024TIP3    H181563   5.080   5.934  15.223  0.2131  0.2741  0.9769
20024TIP3    H281564   5.192   5.929  15.325 -0.3273  2.0051  1.6929
20025TIP3   OH281565   5.862   1.042  12.105 -0.0698  0.0543 -0.9893
20025TIP3    H181566   5.818   0.971  12.056 -0.9095 -1.1804  1.4103
20025TIP3    H281567   5.936   0.999  12.148 -0.2228  0.7788  0.0116
20026TIP3   OH281568   1.176   5.541  12.234  0.1563 -0.4316  0.7452
20026TIP3    H181569   1.237   5.614  12.248 -1.6571  1.4167 -0.4094
20026TIP3    H281570   1.200   5.477  12.301  0.2205  2.3255  3.6008
20027TIP3   OH281571   5.328   0.874  16.977 -0.3831  0.2270 -0.1117
20027TIP3    H181572   5.249   0.832  17.010  0.2006  0.2989  1.5004
20027TIP3    H281573   5.387   0.801  16.958  0.6409  0.2010  2.7151
20028TIP3   OH281574   5.919   4.883  10.746  0.0676 -0.2402 -0.2509
20028TIP3    H181575   5.885   4.965  10.709  0.1608 -0.0948 -0.0158
20028TIP3    H281576   6.014   4.891  10.739  0.2065  0.6777  1.8538
20029TIP3   OH281577   2.992   6.760  13.520  0.7417  0.5684 -0.2389
20029TIP3    H181578   2.952   6.677  13.492 -0.2671  1.7043 -2.3946
20029TIP3    H281579   2.918   6.820  13.530  1.5045  1.3751  0.7384
20030TIP3   OH281580   3.468   1.437   3.872 -0.4425  0.4643 -0.0071
20030TIP3    H181581   3.545   1.399   3.915 -0.2029 -0.4350 -1.1714
20030TIP3    H281582   3.427   1.491   3.940  1.2490  1.0414  0.6327
20031TIP3   OH281583   0.674   5.843   1.883  0.9486 -0.1427  0.6239
20031TIP3    H181584   0.603   5.816   1.940 -0.2687 -2.0620 -1.6480
20031TIP3    H281585   0.751   5.795   1.914 -0.1712 -2.8386 -0.5396
20032TIP3   OH281586   5.213   2.730   0.190  0.1355 -0.3331 -0.1400
20032TIP3    H181587   5.250   2.755   0.274  2.7209 -0.6352 -1.1044
20032TIP3    H281588   5.129   2.690   0.212  0.5541 -0.0441  2.2459
20033TIP3   OH281589   3.793   3.769  15.754  0.5650  0.0897 -0.4567
20033TIP3    H181590   3.717   3.718  15.726  1.0011 -0.4124 -0.7502
20033TIP3    H281591   3.862   3.704  15.767  0.2075  0.1586  2.5857
20034TIP3   OH281592   4.024   2.395   1.597 -0.1238 -0.3986  0.0341
20034TIP3    H181593   3.950   2.452   1.576  0.3704  0.2854  0.0992
20034TIP3    H281594   4.083   2.405   1.522  0.6444  0.3414  0.7135
20035TIP3   OH281595   5.923   0.243  14.975 -0.3056 -0.3717  0.4628
20035TIP3    H181596   6.016   0.250  14.955 -0.1598 -1.6064  0.6087
20035TIP3    H281597   5.916   0.274  15.065 -0.1443  0.3121  0.2468
20036TIP3   OH281598   2.595   3.755  12.948  0.4313 -0.6354 -0.0046
20036TIP3    H181599   2.586   3.843  12.911  0.4487 -0.4675  0.3844
20036TIP3    H281600   2.582   3.696  12.873  2.6235 -0.2853 -0.7549
20037TIP3   OH281601   6.411   0.848  16.172  0.4155  0.0214  0.5817
20037TIP3    H181602   6.365   0.885  16.097 -0.4820 -0.5687  0.8306
20037TIP3    H281603   6.459   0.922  16.209 -0.7076  0.7521  0.5965
20038TIP3   OH281604   1.755   6.687   4.702  0.1620 -0.3188  0.5325
20038TIP3    H181605   1.789   6.605   4.740  0.7815 -0.8475 -1.0443
20038TIP3    H281606   1.663   6.668   4.683  0.7294 -1.3804 -1.5268
20039TIP3   OH281607   4.647   2.863  15.512  0.3404  0.3535 -0.5365
20039TIP3    H181608   4.723   2.907  15.551 -0.4425  1.2564  0.0081
20039TIP3    H281609   4.657   2.878  15.418  0.3363  1.3079 -0.3970
20040TIP3   OH281610   3.722   0.297  14.956 -0.2599  0.1219 -0.1180
20040TIP3    H181611   3.627   0.308  14.968 -0.1370  1.6158 -0.3293
20040TIP3    H281612   3.738   0.324  14.866  0.5498  1.4430  0.3796
20041TIP3   OH281613   6.182   0.890  12.633  0.3706  0.4232  0.5350
20041TIP3    H181614   6.230   0.943  12.569  0.0828  1.5087  1.1943
20041TIP3    H281615   6.123   0.837  12.580  0.8178  0.6028 -0.1588
20042TIP3   OH281616   6.097   4.744  15.593  0.1413 -0.0993 -0.0822
20042TIP3    H181617   6.042   4.822  15.598  0.4480  0.1330 -0.3553
20042TIP3    H281618   6.182   4.772  15.627  0.4804 -0.1026 -0.9031
20043TIP3   OH281619   2.459   2.531  11.699  0.1637  0.1651 -0.0187
20043TIP3    H181620   2.546   2.508  11.731 -0.6288 -0.6510  1.7082
20043TIP3    H281621   2.424   2.450  11.662  0.2513  0.5730 -1.0254
20044TIP3   OH281622   6.232   6.354   0.970 -0.3664 -0.7793 -0.1925
20044TIP3    H181623   6.233   6.269   1.014 -2.9051 -1.6370 -1.5624
20044TIP3    H281624   6.307   6.350   0.910  0.3015 -1.4966  0.6512
20045TIP3   OH281625   2.762   0.423  13.260  0.1989  0.1112 -0.3342
20045TIP3    H181626   2.679   0.392  13.298  0.6568 -0.3983  0.2668
20045TIP3    H281627   2.793   0.490  13.321  1.5174 -1.5102  0.9070
20046TIP3   OH281628   2.765   0.887  16.428 -0.2822  0.2012  0.4567
20046TIP3    H181629   2.857   0.897  16.453 -0.2446 -2.8165  1.8854
20046TIP3    H281630   2.717   0.886  16.511 -1.5108  0.7034 -0.2186
20047TIP3   OH281631   0.765   2.776  15.235  0.0789 -0.2208 -0.8704
20047TIP3    H181632   0.700   2.705  15.232  1.3620 -1.5026  0.1618
20047TIP3    H281633   0.716   2.851  15.270 -1.1689 -0.7396 -1.4373
20048TIP3   OH281634   0.831   3.111  16.994 -0.1289 -0.0672  0.0131
20048TIP3    H181635   0.790   3.101  17.080  0.1811  0.1102  0.1801
20048TIP3    H281636   0.912   3.158  17.011  0.4622 -0.9809 -0.2403
20049TIP3   OH281637   1.318   3.890  11.856  0.1345 -0.1766 -0.4236
20049TIP3    H181638   1.407   3.922  11.865 -0.3359  1.3352 -0.8520
20049TIP3    H281639   1.315   3.848  11.770  0.4476 -0.3196 -0.3639
20050TIP3   OH281640   6.253   0.341   4.427  0.5545 -0.1749 -0.1674
20050TIP3    H181641   6.258   0.433   4.453  1.7939 -0.5972  1.2142
20050TIP3    H281642   6.173   0.309   4.468 -0.6330  0.5712 -1.7731
20051TIP3   OH281643   4.562   6.507  15.405 -0.0645 -0.0718 -0.3961
20051TIP3    H181644   4.552   6.601  15.415 -0.4715 -0.1682  0.1784
20051TIP3    H281645   4.482   6.478  15.361 -0.0658 -0.1830 -0.3230
20052TIP3   OH281646   6.129   0.668   4.883 -0.0271  0.2380  0.1961
20052TIP3    H181647   6.132   0.576   4.912  2.1228  0.4291  0.8059
20052TIP3    H281648   6.138   0.718   4.964 -1.1442  1.0173 -0.1413
20053TIP3   OH281649   1.825   4.546   4.364  0.0621  0.0895 -0.2809
20053TIP3    H181650   1.800   4.490   4.291 -0.7921  2.5940 -2.0403
20053TIP3    H281651   1.912   4.577   4.342  0.2029  0.0916  0.2648
20054TIP3   OH281652   1.082   4.159   0.702 -0.5767 -0.4087  0.4294
20054TIP3    H181653   1.112   4.069   0.712  1.1937  0.1806  0.8175
20054TIP3    H281654   1.113   4.185   0.615  1.2975  0.6205  1.3399
20055TIP3   OH281655   1.008   3.416   3.993  0.5987 -0.0439  0.0721
20055TIP3    H181656   1.084   3.466   3.963  0.8119 -0.5002 -0.1591
20055TIP3    H281657   1.032   3.325   3.978 -0.3039 -0.1611 -0.7255
20056TIP3   OH281658   2.276   4.919  15.227 -0.1633 -0.5112 -0.5822
20056TIP3    H181659   2.331   4.889  15.154  0.9613  1.2007 -0.4963
20056TIP3    H281660   2.186   4.909  15.194  0.3211  0.7698 -2.4776
20057TIP3   OH281661   6.626   2.656   0.195 -0.2150 -0.2028 -0.6484
20057TIP3    H181662   6.625   2.661   0.290 -2.3047  0.7760 -0.6530
20057TIP3    H281663   6.541   2.692   0.168  0.1771 -0.7481 -2.8683
20058TIP3   OH281664   1.255   2.183  16.134  0.3206  0.7641 -0.0843
20058TIP3    H181665   1.191   2.204  16.203 -0.8283  2.0297 -1.4697
20058TIP3    H281666   1.206   2.129  16.072  0.6162  1.6012 -1.0740
20059TIP3   OH281667   3.230   6.058  15.840  0.0257 -0.1566 -0.2417
20059TIP3    H181668   3.269   6.133  15.885  0.2732 -0.6938  0.4770
20059TIP3    H281669   3.204   5.999  15.911 -0.4050 -0.6324 -0.7849
20060TIP3   OH281670   6.364   1.536   0.482  0.1158 -0.3308 -0.0096
20060TIP3    H181671   6.368   1.600   0.554 -2.2287  0.8589 -0.8361
20060TIP3    H281672   6.285   1.485   0.500 -0.6700  0.1650 -1.8310
20061TIP3   OH281673   2.722   6.432   5.325 -0.4008  0.0643  0.1864
20061TIP3    H181674   2.745   6.360   5.266  1.6228  0.0404  0.9488
20061TIP3    H281675   2.717   6.391   5.412  0.7859  0.8310  0.6299
20062TIP3   OH281676   4.841   0.589   0.007  0.4916 -0.0971 -0.0121
20062TIP3    H181677   4.911   0.642   0.046  1.1319 -0.1123 -1.0822
20062TIP3    H281678   4.839   0.617  -0.084 -0.6845 -0.3473 -0.0719
20063TIP3   OH281679   1.334   5.069  14.371  0.6983 -0.1394  0.1272
20063TIP3    H181680   1.252   5.020  14.380  1.0323 -1.3951 -2.7054
20063TIP3    H281681   1.388   5.016  14.312  2.9991  1.3665  0.7327
20064TIP3   OH281682   1.283   4.014  14.172  0.8800  0.2953 -0.2254
20064TIP3    H181683   1.242   4.075  14.234  1.9439  1.7139 -0.8670
20064TIP3    H281684   1.209   3.975  14.125  0.0971 -0.1353  1.2771
20065TIP3   OH281685   4.686   2.372  15.229 -0.2686  0.3219 -0.3910
20065TIP3    H181686   4.653   2.314  15.297 -1.8738 -0.8543 -2.0591
20065TIP3    H281687   4.775   2.339  15.210 -0.6258 -0.7202 -0.3360
20066TIP3   OH281688   6.072   0.881   0.178 -0.3434 -0.0033 -0.4212
20066TIP3    H181689   6.035   0.799   0.147 -1.2239  0.6107 -1.0480
20066TIP3    H281690   6.010   0.948   0.150  0.8822  0.9956 -0.8761
20067TIP3   OH281691   5.895   6.668   3.845 -0.0566  0.4799  0.4166
20067TIP3    H181692   5.965   6.733   3.840 -0.4403  0.8524 -0.2025
20067TIP3    H281693   5.913   6.620   3.926  1.6424 -0.2674 -0.3541
20068TIP3   OH281694   6.351   6.444  11.723  0.1639 -0.7527 -0.3577
20068TIP3    H181695   6.405   6.403  11.791  0.6190 -0.7774 -0.7236
20068TIP3    H281696   6.262   6.420  11.745  0.2089  0.0962  0.8131
20069TIP3   OH281697   6.082   2.325   0.441 -0.4212  0.0317 -0.2800
20069TIP3    H181698   6.142   2.288   0.376 -0.0115 -0.5892  0.4338
20069TIP3    H281699   6.114   2.291   0.525 -1.0690  0.6460  0.2270
20070TIP3   OH281700   6.397   5.837  14.825  0.1569 -0.2792  0.7512
20070TIP3    H181701   6.476   5.877  14.862  0.2882  1.3079 -1.0445
20070TIP3    H281702   6.336   5.910  14.817 -0.1665 -0.7040 -1.2170
20071TIP3   OH281703   1.576   4.552  17.070 -0.8081  0.7000 -0.2877
20071TIP3    H181704   1.559   4.638  17.030  0.1112  1.0228 -0.0075
20071TIP3    H281705   1.574   4.491  16.997 -0.4307  1.1086 -0.6465
20072TIP3   OH281706   5.451   6.550   0.148 -0.5016  0.0586  0.2086
20072TIP3    H181707   5.383   6.497   0.188  0.2705 -2.0178 -1.0387
20072TIP3    H281708   5.410   6.587   0.070 -0.5212 -0.3552  0.0154
20073TIP3   OH281709   1.936   6.321   1.791 -1.0670  0.0078 -0.1676
20073TIP3    H181710   2.025   6.289   1.777 -0.2682  1.1248  1.8663
20073TIP3    H281711   1.891   6.247   1.831 -0.0843  0.3779  1.7576
20074TIP3   OH281712   3.617   5.959   2.200  0.7654 -0.3187  0.1336
20074TIP3    H181713   3.633   6.049   2.173  0.8451 -0.6528 -0.9803
20074TIP3    H281714   3.697   5.933   2.246  1.5341 -0.4231 -1.2147
20075TIP3   OH281715   1.170   5.100   2.680  0.2650 -0.0032  0.6056
20075TIP3    H181716   1.220   5.102   2.761  0.7512 -0.8834  0.3380
20075TIP3    H281717   1.119   5.020   2.684  1.4842 -0.8899 -0.6341
20076TIP3   OH281718   0.512   0.713   2.230  0.3190  0.2824 -0.3222
20076TIP3    H181719   0.500   0.695   2.137  0.7630 -1.4918 -0.0578
20076TIP3    H281720   0.600   0.682   2.250  0.8615  2.1103  0.3731
20077TIP3   OH281721   6.740   0.450   3.767 -0.4099  0.1699 -0.8348
20077TIP3    H181722   6.649   0.476   3.778 -1.2725 -2.5123 -1.0253
20077TIP3    H281723   6.787   0.533   3.752 -2.6733  1.6678 -0.1384
20078TIP3   OH281724   0.159   3.509   4.970 -0.0300 -0.2499  0.2911
20078TIP3    H181725   0.096   3.465   5.027  2.0295 -2.8470  0.7517
20078TIP3    H281726   0.209   3.565   5.029 -1.5803  1.5674 -0.0242
20079TIP3   OH281727   5.749   6.727   1.908 -0.1950  1.0474  0.3943
20079TIP3    H181728   5.743   6.724   1.812  0.9303 -0.5924  0.3267
20079TIP3    H281729   5.667   6.690   1.939  0.2449 -0.3545 -0.0168
20080TIP3   OH281730   3.224   5.646  15.509 -0.7008 -0.4013 -0.1644
20080TIP3    H181731   3.230   5.670  15.602  0.1200 -2.1254  0.2589
20080TIP3    H281732   3.209   5.729  15.464 -2.6238  0.3124  1.6347
20081TIP3   OH281733   1.999   5.204   2.339 -0.2651 -0.2398 -0.3033
20081TIP3    H181734   1.992   5.286   2.387  1.8890 -0.1791  0.0081
20081TIP3    H281735   2.038   5.143   2.402 -0.1072 -0.9757 -1.0910
20082TIP3   OH281736   5.513   0.419   3.449 -0.4632  0.1978 -0.0741
20082TIP3    H181737   5.495   0.486   3.516  1.7756 -0.8565  1.7221
20082TIP3    H281738   5.451   0.349   3.469 -0.0919  0.0652  0.6708
20083TIP3   OH281739   1.347   5.418   4.918  0.1202 -0.1842  0.0680
20083TIP3    H181740   1.337   5.328   4.950 -0.7137  0.3768  1.4980
20083TIP3    H281741   1.436   5.442   4.941  0.4414 -0.7214 -0.5723
20084TIP3   OH281742   1.799   0.341  15.458  0.0806 -0.5319 -0.4007
20084TIP3    H181743   1.775   0.409  15.396  2.1601 -0.8040 -1.6061
20084TIP3    H281744   1.759   0.369  15.541 -0.0796  1.5548 -1.1133
20085TIP3   OH281745   1.013   4.130  15.468 -0.0862 -0.4543  0.1064
20085TIP3    H181746   1.069   4.202  15.497  0.5298 -0.3926 -1.1631
20085TIP3    H281747   0.935   4.173  15.432 -0.8267 -0.5288  1.5662
20086TIP3   OH281748   3.791   5.264  16.740  0.3388  0.2167  0.0789
20086TIP3    H181749   3.832   5.245  16.824 -0.4145 -0.4536  0.3129
20086TIP3    H281750   3.858   5.311  16.690  1.9552 -2.1307 -0.1078
20087TIP3   OH281751   4.507   4.702   2.519  0.0703  0.4524 -0.5150
20087TIP3    H181752   4.591   4.700   2.474  0.2712  1.2408 -0.1917
20087TIP3    H281753   4.443   4.721   2.450 -0.0332 -1.4825 -0.9996
20088TIP3   OH281754   2.589   4.911  15.669 -0.5673  0.0807  0.4911
20088TIP3    H181755   2.576   4.952  15.583 -0.8014 -2.4609 -0.7840
20088TIP3    H281756   2.527   4.839  15.670  0.3440 -0.7258  2.2760
20089TIP3   OH281757   0.993   0.770  14.152 -0.0293  0.3927 -0.0492
20089TIP3    H181758   0.988   0.768  14.056  0.6425 -0.1115 -0.0820
20089TIP3    H281759   0.912   0.727  14.181 -0.1311  0.3449 -0.3990
20090TIP3   OH281760   5.751   0.449   2.030  0.1544  0.2437 -0.9483
20090TIP3    H181761   5.717   0.367   1.994 -0.0338  0.7740 -2.0359
20090TIP3    H281762   5.821   0.422   2.090 -2.6331 -0.9363  2.0216
20091TIP3   OH281763   2.259   6.485  12.575  0.1527  0.3955 -0.0598
20091TIP3    H181764   2.279   6.557  12.635  0.6262  0.0554  0.1977
20091TIP3    H281765   2.345   6.456  12.543 -0.1034  0.6753 -1.0304
20092TIP3   OH281766   3.956   6.080   1.290  0.3869 -0.2072  0.9296
20092TIP3    H181767   4.048   6.074   1.264  0.0629 -1.2360 -0.0692
20092TIP3    H281768   3.920   5.994   1.269 -0.8120  0.1939  1.2905
20093TIP3   OH281769   0.681   5.966   3.991 -0.5104 -0.2144  0.0197
20093TIP3    H181770   0.661   6.044   3.939  0.5118  0.0562  0.0124
20093TIP3    H281771   0.715   5.903   3.928  1.7493  0.4861  0.4693
20094TIP3   OH281772   3.415   1.988   6.197 -0.1393 -0.0362 -0.1983
20094TIP3    H181773   3.490   1.930   6.185  0.3589  0.3791  0.7626
20094TIP3    H281774   3.430   2.028   6.283 -1.7887 -0.4317  0.3132
20095TIP3   OH281775   6.657   6.453   5.102  0.2025 -0.1409  0.2602
20095TIP3    H181776   6.594   6.384   5.083 -0.5188  0.0704  1.6991
20095TIP3    H281777   6.726   6.409   5.153  1.5669 -0.4923 -1.7892
20096TIP3   OH281778   3.382   5.544   2.699  0.0443  0.2267 -0.0693
20096TIP3    H181779   3.328   5.468   2.721  1.4102 -0.5673  0.6710
20096TIP3    H281780   3.413   5.577   2.783  0.6732  0.6942 -0.4708
20097TIP3   OH281781   4.432   4.744   6.205  0.1408  0.2225  0.1526
20097TIP3    H181782   4.362   4.721   6.265 -0.1302  1.7886  0.4870
20097TIP3    H281783   4.452   4.836   6.225  0.2810  0.6982 -1.9030
20098TIP3   OH281784   2.586   1.198   0.277 -0.3147 -0.3559  0.3197
20098TIP3    H181785   2.601   1.197   0.183  1.9250 -1.4470  0.6284
20098TIP3    H281786   2.637   1.272   0.309 -1.8390  0.6183  0.6244
20099TIP3   OH281787   6.007   2.302   3.231  0.1622 -0.4268  0.4129
20099TIP3    H181788   5.951   2.379   3.232  1.5744  0.6861  2.2603
20099TIP3    H281789   6.091   2.334   3.197  0.8110 -1.0752  1.3444
20100TIP3   OH281790   6.533   1.414  10.970  0.4362 -0.6459 -0.1670
20100TIP3    H181791   6.593   1.466  10.916  0.1232  0.7086  0.7463
20100TIP3    H281792   6.505   1.343  10.913 -1.3714  1.7541 -2.5160
20101TIP3   OH281793   1.832   4.187  11.794 -0.1035 -0.0548  0.7135
20101TIP3    H181794   1.919   4.208  11.760  0.0614 -2.4022 -0.5156
20101TIP3    H281795   1.847   4.160  11.885  0.3002  0.4805  0.8076
20102TIP3   OH281796   5.092   4.673   2.140  0.3887  0.2752 -0.3542
20102TIP3    H181797   5.131   4.753   2.175  1.5248 -0.4580  0.0977
20102TIP3    H281798   5.138   4.657   2.057  0.4182 -0.1020 -0.2679
20103TIP3   OH281799   2.795   2.985   1.994  0.0953 -0.4176 -0.1700
20103TIP3    H181800   2.836   3.065   2.027 -0.6643 -0.0642 -0.0532
20103TIP3    H281801   2.800   2.924   2.067 -1.7319  0.4184  0.7183
20104TIP3   OH281802   2.413   5.163  13.995  0.5432  0.1785  0.8529
20104TIP3    H181803   2.449   5.238  14.042 -0.9097  1.0525  0.6250
20104TIP3    H281804   2.363   5.116  14.061 -1.5663  1.4501  0.2474
20105TIP3   OH281805   0.504   0.068  13.054 -0.7151 -0.0128  0.0011
20105TIP3    H181806   0.594   0.039  13.064 -0.6507 -0.4342 -1.5183
20105TIP3    H281807   0.454   0.013  13.115 -0.1815 -1.1433 -0.5459
20106TIP3   OH281808   0.573   3.791   0.863  0.2043 -0.2903  0.3200
20106TIP3    H181809   0.616   3.855   0.807 -1.3589 -0.4668 -1.1450
20106TIP3    H281810   0.573   3.831   0.950  1.0307  0.7855 -0.1527
20107TIP3   OH281811   4.025   3.666   4.371  0.4591  0.1794  0.1147
20107TIP3    H181812   4.003   3.573   4.368  0.4042  0.1619  0.7762
20107TIP3    H281813   3.948   3.711   4.336  0.9189 -0.0757 -1.2494
20108TIP3   OH281814   5.577   1.408  12.776 -0.3629  0.2410 -0.2161
20108TIP3    H181815   5.504   1.441  12.724  0.1451 -0.3307 -1.3170
20108TIP3    H281816   5.584   1.316  12.752 -1.7385 -0.7832  2.7940
20109TIP3   OH281817   4.831   4.352  12.213 -0.0130 -0.0532  0.2065
20109TIP3    H181818   4.774   4.429  12.211  1.5224  1.1396 -2.6422
20109TIP3    H281819   4.903   4.377  12.270  0.3574  0.5886 -0.5165
20110TIP3   OH281820   3.333   5.595  14.594 -0.1614 -0.1908  0.6652
20110TIP3    H181821   3.383   5.560  14.521 -0.1378  0.4881  0.3562
20110TIP3    H281822   3.368   5.550  14.671  1.5739  0.9373  0.5805
20111TIP3   OH281823   4.312   2.008   6.635 -0.0036 -0.1976 -0.1604
20111TIP3    H181824   4.240   2.049   6.683  0.7085  0.6165  0.2235
20111TIP3    H281825   4.389   2.058   6.660  0.8902 -1.7418  0.3032
20112TIP3   OH281826   6.071   3.113  16.089  0.0864  0.2197 -0.4264
20112TIP3    H181827   5.977   3.115  16.106  0.0121 -0.7205 -0.6895
20112TIP3    H281828   6.096   3.206  16.086 -0.7820  0.4798 -0.1370
20113TIP3   OH281829   2.257   0.730   3.627 -0.0066 -0.1654 -0.5782
20113TIP3    H181830   2.269   0.810   3.577 -0.5090  0.7662  0.7583
20113TIP3    H281831   2.251   0.758   3.718 -0.7035 -1.6696 -0.1192
20114TIP3   OH281832   4.948   1.082  14.753 -0.2445  0.4579  0.1432
20114TIP3    H181833   4.993   1.046  14.677  0.6771  1.7673  0.0515
20114TIP3    H281834   5.012   1.139  14.795 -1.2613  1.0102  0.9931
20115TIP3   OH281835   0.008   4.647  12.541 -0.1810  0.1582  0.5207
20115TIP3    H181836  -0.050   4.713  12.579  0.9629  0.9598  0.9382
20115TIP3    H281837  -0.034   4.563  12.561 -1.8584  0.7481 -0.3554
20116TIP3   OH281838   0.555   1.550  15.971 -0.3351 -0.4279  0.3881
20116TIP3    H181839   0.462   1.564  15.989 -0.0679  0.2432  1.3576
20116TIP3    H281840   0.560   1.535  15.877 -1.3886 -0.1741  0.2827
20117TIP3   OH281841   6.728   1.182   1.762  0.4051  0.2518 -0.7619
20117TIP3    H181842   6.796   1.116   1.772  0.1349  0.0060 -0.5456
20117TIP3    H281843   6.674   1.173   1.841  0.9809  1.4396 -0.1907
20118TIP3   OH281844   1.186   0.318  10.694 -0.1007 -0.2219  0.4745
20118TIP3    H181845   1.198   0.274  10.779 -0.8148 -0.8679  0.2518
20118TIP3    H281846   1.125   0.262  10.647  0.9858 -0.3397 -0.8305
20119TIP3   OH281847   1.955   3.416   4.313  0.5910 -0.0628 -0.5673
20119TIP3    H181848   2.022   3.433   4.380  2.2703  2.8454 -2.7508
20119TIP3    H281849   1.995   3.350   4.256  0.7207  0.1620 -0.7362
20120TIP3   OH281850   1.010   1.813  11.707  0.2993  0.1452  0.0326
20120TIP3    H181851   1.044   1.851  11.788 -0.6634  0.0800  0.4791
20120TIP3    H281852   0.978   1.726  11.732  0.6357 -0.1538 -0.5602
20121TIP3   OH281853   5.665   6.463   3.348  0.1136 -0.4411  0.8374
20121TIP3    H181854   5.635   6.538   3.400  1.2452  0.5038  0.1584
20121TIP3    H281855   5.737   6.427   3.399 -0.9264 -1.5878  1.5553
20122TIP3   OH281856   3.505   4.157  15.267  0.0422  0.0862  0.1879
20122TIP3    H181857   3.543   4.199  15.190  0.2768  0.9636  0.7686
20122TIP3    H281858   3.425   4.207  15.285 -0.8377 -1.0639 -0.3721
20123TIP3   OH281859   4.896   4.896   1.168 -0.1504 -0.0361  0.3672
20123TIP3    H181860   4.928   4.807   1.153  2.3567  0.9883 -0.9538
20123TIP3    H281861   4.923   4.916   1.258  0.4020 -0.1815  0.2365
20124TIP3   OH281862   4.350   2.993   3.748  0.1088 -0.0831  0.3864
20124TIP3    H181863   4.261   2.958   3.743 -0.3473  1.1496 -2.0804
20124TIP3    H281864   4.338   3.086   3.770  0.7953  0.0048  0.4270
20125TIP3   OH281865   4.064   6.754   2.429 -0.0424  0.1470  0.6593
20125TIP3    H181866   3.977   6.724   2.403  0.2892  0.2423 -0.6149
20125TIP3    H281867   4.116   6.674   2.436  0.2863  0.2257 -0.6284
20126TIP3   OH281868   2.400   1.582  11.135  0.1721  0.2375 -0.6000
20126TIP3    H181869   2.426   1.501  11.091  0.9157  0.6202 -0.8889
20126TIP3    H281870   2.464   1.647  11.105 -0.0773  0.8018  0.0592
20127TIP3   OH281871   2.980   2.977   2.854  0.9764  0.2833  0.3538
20127TIP3    H181872   2.941   3.060   2.880 -0.0574  0.3874 -1.4317
20127TIP3    H281873   3.005   2.936   2.937 -0.8828  1.2170  1.4393
20128TIP3   OH281874   3.629   4.069  10.241 -0.1892 -0.6608  0.4288
20128TIP3    H181875   3.587   4.100  10.161 -1.1594 -0.0449  1.1579
20128TIP3    H281876   3.722   4.066  10.220 -0.4070 -0.2303 -0.6296
20129TIP3   OH281877   4.357   1.244   3.420 -0.1662 -0.1588 -0.3361
20129TIP3    H181878   4.379   1.160   3.380  0.4549 -0.9854  1.6127
20129TIP3    H281879   4.264   1.236   3.444 -0.0735 -0.3314 -0.0376
20130TIP3   OH281880   5.519   3.839   6.280 -0.1967  0.1336  0.4007
20130TIP3    H181881   5.612   3.825   6.300 -0.2338  0.6955  0.9714
20130TIP3    H281882   5.481   3.873   6.361 -0.8155  0.3137  0.0448
20131TIP3   OH281883   5.612   5.673  15.722 -0.4844 -0.0874  0.4533
20131TIP3    H181884   5.705   5.692  15.714 -0.6324 -0.0551 -1.6186
20131TIP3    H281885   5.609   5.581  15.749  0.1485 -0.1631  0.2874
20132TIP3   OH281886   0.132   4.127  15.782  0.0942 -0.5635 -0.1933
20132TIP3    H181887   0.140   4.183  15.704 -0.3283 -2.0531 -1.3334
20132TIP3    H281888   0.212   4.075  15.782  0.1482 -0.4929  0.4574
20133TIP3   OH281889   0.399   5.711  10.575  0.0722  0.9157  0.3342
20133TIP3    H181890   0.312   5.671  10.585  0.9210 -1.0674  0.2790
20133TIP3    H281891   0.389   5.772  10.503 -0.9958 -0.1704 -0.4855
20134TIP3   OH281892   3.100   6.717   3.731 -0.0448  0.0439 -0.1854
20134TIP3    H181893   3.194   6.710   3.716  0.0128 -0.8909  0.4818
20134TIP3    H281894   3.089   6.700   3.825 -1.0085 -1.6567 -0.5503
20135TIP3   OH281895   0.433   5.638  16.841 -0.5308 -0.1360  0.5716
20135TIP3    H181896   0.525   5.635  16.818 -0.4652 -0.3200  0.8544
20135TIP3    H281897   0.388   5.658  16.759 -0.3027 -0.7776  0.2906
20136TIP3   OH281898   0.548   3.882  11.488  0.5228 -0.0557 -0.1090
20136TIP3    H181899   0.593   3.917  11.565  0.5537  1.6469 -0.8637
20136TIP3    H281900   0.457   3.909  11.499  0.1504 -1.3359  0.1701
20137TIP3   OH281901   0.231   1.787   6.506  0.4693 -0.1917  0.2210
20137TIP3    H181902   0.253   1.797   6.599  0.5862  1.2412  0.0712
20137TIP3    H281903   0.194   1.699   6.499  2.3867 -1.1450  1.2267
20138TIP3   OH281904   1.184   4.435   6.653 -0.1369 -0.3286 -0.2703
20138TIP3    H181905   1.135   4.483   6.719  2.0310  0.1433  1.0847
20138TIP3    H281906   1.147   4.347   6.656 -1.8878  0.3617 -0.3956
20139TIP3   OH281907   1.465   1.442   3.956 -0.1595 -0.0915 -0.0264
20139TIP3    H181908   1.482   1.496   3.879  0.2971  0.0861  0.1960
20139TIP3    H281909   1.409   1.372   3.924 -1.2053  0.8047 -0.2123
20140TIP3   OH281910   4.527   3.496   2.892  0.3419 -0.3955  0.9724
20140TIP3    H181911   4.570   3.425   2.844 -2.2294 -0.3619 -1.6537
20140TIP3    H281912   4.440   3.463   2.911 -0.6583  1.7257  0.4122
20141TIP3   OH281913   0.451   5.044   2.077 -0.0090  0.6534 -0.6164
20141TIP3    H181914   0.360   5.048   2.048 -0.3174  0.3411  0.2845
20141TIP3    H281915   0.464   4.954   2.106  0.9724  0.3481 -1.9201
20142TIP3   OH281916   0.981   2.730  14.906  0.2889 -0.3361  0.3507
20142TIP3    H181917   0.933   2.782  14.971  0.3684 -1.1808  1.1063
20142TIP3    H281918   1.066   2.775  14.899  1.0695 -1.3372  2.3908
20143TIP3   OH281919   2.226   3.669  12.169 -0.2917 -0.5945  0.5695
20143TIP3    H181920   2.180   3.751  12.149  1.6929  0.3984 -0.1621
20143TIP3    H281921   2.300   3.667  12.109 -0.8173 -3.4667 -0.1412
20144TIP3   OH281922   4.967   2.454  12.878  0.0555 -0.1282  0.1969
20144TIP3    H181923   5.032   2.490  12.818  1.3608 -1.1256  0.9813
20144TIP3    H281924   5.016   2.397  12.937 -1.2993  0.2168  1.7452
20145TIP3   OH281925   3.657   3.216   3.236  0.6998  0.3814  0.7531
20145TIP3    H181926   3.729   3.173   3.281  0.8658  0.0452  0.1724
20145TIP3    H281927   3.696   3.292   3.194  0.8690 -0.2161 -0.1865
20146TIP3   OH281928   5.491   2.814  13.946  0.1245 -0.1949  0.5408
20146TIP3    H181929   5.397   2.831  13.939  0.2902  0.2587 -1.0998
20146TIP3    H281930   5.531   2.901  13.950  0.4955 -0.3734  0.7576
20147TIP3   OH281931   5.162   1.697   3.642  0.1005 -0.8351 -0.0448
20147TIP3    H181932   5.213   1.735   3.571 -1.3621  1.3721 -0.0084
20147TIP3    H281933   5.103   1.635   3.599  2.1573 -2.8280 -0.1702
20148TIP3   OH281934   5.019   0.825  13.139 -0.0168  0.3194  0.3277
20148TIP3    H181935   4.925   0.839  13.130  0.2757  1.6845 -0.9939
20148TIP3    H281936   5.030   0.799  13.230 -1.4821  1.9995  1.0551
20149TIP3   OH281937   0.735   0.094  15.997 -0.0968 -0.1182  0.2350
20149TIP3    H181938   0.733   0.166  16.060 -1.1845 -0.6819  0.8885
20149TIP3    H281939   0.804   0.118  15.934  0.1534  1.0551  0.9284
20150TIP3   OH281940   3.160   6.097   3.049 -0.1053  0.1833  0.2809
20150TIP3    H181941   3.241   6.048   3.031 -0.7438 -1.1373  0.8750
20150TIP3    H281942   3.099   6.067   2.981 -0.5948 -0.1095  0.8362
20151TIP3   OH281943   3.231   1.830   6.065  0.8716  0.3550  0.2345
20151TIP3    H181944   3.284   1.751   6.052  0.2975  0.1304 -0.8065
20151TIP3    H281945   3.290   1.890   6.112  2.1056  0.1654 -1.0017
20152TIP3   OH281946   5.156   1.928  12.496 -0.1640 -0.3278  0.0218
20152TIP3    H181947   5.144   1.863  12.565 -1.0830  0.2333  0.4123
20152TIP3    H281948   5.210   1.884  12.430  0.5156 -0.9530  0.9800
20153TIP3   OH281949   5.975   0.037  14.436 -0.9944 -0.5436 -0.8367
20153TIP3    H181950   6.024   0.118  14.453  0.0398 -0.8014 -2.4319
20153TIP3    H281951   6.041  -0.032  14.434 -1.8141 -1.4023  0.0298
20154TIP3   OH281952   0.440   6.643   5.617 -0.0576 -0.4366  0.0866
20154TIP3    H181953   0.363   6.623   5.669 -0.8484 -1.5893 -1.4665
20154TIP3    H281954   0.422   6.607   5.531  1.5411  0.7105 -0.7958
20155TIP3   OH281955   3.169   1.305  15.465 -0.5587  0.0826  0.2532
20155TIP3    H181956   3.108   1.357  15.412 -2.4125 -0.2456  1.9600
20155TIP3    H281957   3.186   1.359  15.542 -2.7403 -1.7538  2.2098
20156TIP3   OH281958   0.746   5.763  16.111  0.4453 -0.7133 -0.1838
20156TIP3    H181959   0.716   5.745  16.022  0.0550 -1.1875  0.0389
20156TIP3    H281960   0.740   5.858  16.120 -0.7271 -0.7690 -0.2469
20157TIP3   OH281961   5.442   5.212  13.534  0.4614  0.5786 -0.1297
20157TIP3    H181962   5.518   5.245  13.486  0.6498  1.8816  1.0054
20157TIP3    H281963   5.375   5.281  13.524 -0.1166  0.0411 -0.0282
20158TIP3   OH281964   4.333   5.013  14.416 -0.6652  0.8282 -0.0348
20158TIP3    H181965   4.420   5.031  14.453 -0.5332 -1.2060  0.7724
20158TIP3    H281966   4.346   5.018  14.321  0.8636 -1.3714 -0.0154
20159TIP3   OH281967   3.521   0.640   4.611  0.0023 -0.4295 -0.3046
20159TIP3    H181968   3.487   0.628   4.700  3.9519  0.4613  1.5481
20159TIP3    H281969   3.576   0.563   4.596  0.9828  0.3960 -1.1042
20160TIP3   OH281970   3.082   0.533  15.506 -0.4143  0.4931 -0.3389
20160TIP3    H181971   3.167   0.571  15.482 -0.4246  0.2412 -0.7910
20160TIP3    H281972   3.045   0.596  15.568  0.2109  0.4777  0.0662
20161TIP3   OH281973   2.204   1.970   0.037 -0.4533 -0.2592  0.4060
20161TIP3    H181974   2.219   1.876   0.029  1.9101  0.1095 -0.3063
20161TIP3    H281975   2.235   2.007  -0.046 -1.6963  1.1366  0.5106
20162TIP3   OH281976   2.283   4.896  12.927 -0.0811  0.3250  0.5308
20162TIP3    H181977   2.190   4.900  12.948 -0.1248  0.7300  0.2664
20162TIP3    H281978   2.315   4.818  12.973 -0.3189  0.8129  1.5560
20163TIP3   OH281979   5.679   6.295   5.629 -0.1645  0.3133  0.1963
20163TIP3    H181980   5.583   6.289   5.628 -0.0814 -1.9871  0.2759
20163TIP3    H281981   5.700   6.314   5.720 -0.5238 -0.0263  0.3552
20164TIP3   OH281982   5.204   2.077   2.807  0.4906  0.0801  0.2270
20164TIP3    H181983   5.239   2.163   2.781 -0.5820  0.9381  1.4717
20164TIP3    H281984   5.248   2.059   2.890  0.4235 -0.4004  0.1580
20165TIP3   OH281985   4.574   0.290   5.165 -0.0899 -0.3006 -0.1597
20165TIP3    H181986   4.520   0.365   5.141 -1.4464 -1.3206 -0.4507
20165TIP3    H281987   4.662   0.325   5.173 -0.8010  1.4766  0.5038
20166TIP3   OH281988   5.243   0.632   1.102  0.1497  0.4904  0.0723
20166TIP3    H181989   5.254   0.538   1.107  0.1768  0.3701 -1.6394
20166TIP3    H281990   5.170   0.644   1.041  0.9382  1.5810 -0.6973
20167TIP3   OH281991   0.216   1.219   1.499 -0.4567  0.0032  0.2297
20167TIP3    H181992   0.160   1.147   1.468 -1.4369 -0.2719  2.3958
20167TIP3    H281993   0.257   1.254   1.421  0.1826 -3.0258 -0.9234
20168TIP3   OH281994   1.349   6.246   0.995 -0.5107  0.2620  0.5478
20168TIP3    H181995   1.313   6.159   1.016 -0.4577  0.1491  0.1773
20168TIP3    H281996   1.374   6.283   1.080  1.9496 -1.1525  0.5262
20169TIP3   OH281997   3.867   5.696   0.551  0.7016  0.6706  0.1513
20169TIP3    H181998   3.957   5.675   0.578  0.4777  0.7984  0.9958
20169TIP3    H281999   3.822   5.612   0.552  0.3862  0.8435  1.3508
20170TIP3   OH282000   2.385   4.610   1.674  0.2650 -0.4168 -0.4668
20170TIP3    H182001   2.416   4.589   1.586 -2.0344 -1.1167 -1.1760
20170TIP3    H282002   2.306   4.557   1.686 -0.9801  1.6042  0.9761
20171TIP3   OH282003   1.730   3.406   0.267  0.6353  0.6302  0.1565
20171TIP3    H182004   1.754   3.377   0.179 -0.5354  1.1014 -0.3406
20171TIP3    H282005   1.667   3.477   0.253  2.5973  2.7542  1.3298
20172TIP3   OH282006   3.345   0.643   3.156 -0.1907  0.1403 -0.0925
20172TIP3    H182007   3.316   0.552   3.144  0.0083 -0.0292  0.6075
20172TIP3    H282008   3.271   0.687   3.197 -0.2551  0.2697 -0.3493
20173TIP3   OH282009   2.889   4.973   2.830 -0.4530 -0.1841  0.4861
20173TIP3    H182010   2.983   4.991   2.829 -0.5584  0.4329 -1.3917
20173TIP3    H282011   2.878   4.906   2.897  1.8273 -2.7830 -1.5249
20174TIP3   OH282012   0.915   1.186  15.774  0.0920 -0.7059 -0.1222
20174TIP3    H182013   0.988   1.215  15.828 -0.2742 -0.5980  0.3191
20174TIP3    H282014   0.927   1.091  15.766  1.3213 -0.4741 -1.6103
20175TIP3   OH282015   4.304   3.467  15.429  0.3647 -0.6819 -0.2994
20175TIP3    H182016   4.230   3.428  15.474  0.1299  0.3767  0.2624
20175TIP3    H282017   4.266   3.508  15.351  0.0236  1.4365  0.9088
20176TIP3   OH282018   5.960   6.683  15.650  0.1330  0.0320  0.2047
20176TIP3    H182019   5.989   6.694  15.741  0.9886  1.6852 -0.2321
20176TIP3    H282020   6.027   6.625  15.612  0.6145  0.5469  0.2506
20177TIP3   OH282021   4.483   2.121   4.123  0.0150 -0.4478  0.8581
20177TIP3    H182022   4.399   2.140   4.082 -0.9710 -3.2311  1.3550
20177TIP3    H282023   4.492   2.187   4.192 -1.3365  0.4142  0.2467
20178TIP3   OH282024   1.550   5.382   2.990  0.4922 -0.1434 -0.2388
20178TIP3    H182025   1.486   5.389   3.061  0.0581 -0.7489 -0.5605
20178TIP3    H282026   1.614   5.319   3.023  0.4030 -0.2662 -0.2994
20179TIP3   OH282027   0.691   4.345   4.137 -0.1098  0.6540 -0.0439
20179TIP3    H182028   0.597   4.341   4.122  0.1148  0.3856 -1.5264
20179TIP3    H282029   0.729   4.287   4.071  0.9182 -2.0500  2.7048
20180TIP3   OH282030   0.352   2.444   1.258  0.8584  0.6358  0.0288
20180TIP3    H182031   0.311   2.529   1.246  0.8762  0.5811 -0.4477
20180TIP3    H282032   0.444   2.457   1.234  0.9059  0.5313  0.1506
20181TIP3   OH282033   5.318   0.802   3.110  0.6053  0.3571  0.5783
20181TIP3    H182034   5.299   0.879   3.056 -1.4284 -0.8321 -0.5580
20181TIP3    H282035   5.245   0.799   3.172  0.3322 -0.9281  0.2290
20182TIP3   OH282036   5.336   0.101  15.222 -0.0604 -0.4000 -0.0880
20182TIP3    H182037   5.336   0.085  15.128  1.6989 -0.2184 -0.1621
20182TIP3    H282038   5.428   0.120  15.243 -0.6706  1.3120  1.3611
20183TIP3   OH282039   6.331   6.033  16.725  0.3452  0.3927  0.1936
20183TIP3    H182040   6.336   5.938  16.718  0.4588  0.4935 -1.4611
20183TIP3    H282041   6.377   6.065  16.647 -0.4628  1.7845  0.2627
20184TIP3   OH282042   5.873   1.430   5.116  0.3445 -0.2771  0.7851
20184TIP3    H182043   5.893   1.345   5.154 -0.0050 -1.3353 -1.2445
20184TIP3    H282044   5.908   1.493   5.179 -1.5653 -1.7945  3.5957
20185TIP3   OH282045   0.821   1.574   4.000 -0.2595 -0.3046 -0.5110
20185TIP3    H182046   0.843   1.489   4.037  0.0805  0.1005  0.2600
20185TIP3    H282047   0.726   1.580   4.011 -0.0863  0.1397  1.1225
20186TIP3   OH282048   3.183   2.604   6.301 -0.1253  0.7143  0.0120
20186TIP3    H182049   3.124   2.554   6.358  0.7121 -0.7379 -0.3433
20186TIP3    H282050   3.161   2.575   6.212  0.1834  1.1996 -0.2304
20187TIP3   OH282051   5.601   1.732   4.983  0.3793 -0.8293 -0.6574
20187TIP3    H182052   5.600   1.792   5.057 -2.1677  0.4374 -1.5961
20187TIP3    H282053   5.666   1.768   4.923  0.3514 -0.1799 -0.2978
20188TIP3   OH282054   2.794   3.825   2.731 -0.1788 -0.1160 -0.2765
20188TIP3    H182055   2.755   3.751   2.685 -1.4501  0.5228 -0.2698
20188TIP3    H282056   2.851   3.867   2.667 -1.4580  0.4078 -1.0827
20189TIP3   OH282057   0.398   1.582  13.593  0.2873  0.1262  0.2835
20189TIP3    H182058   0.330   1.650  13.604  0.7460  0.7149 -0.4337
20189TIP3    H282059   0.349   1.500  13.593 -0.9994  0.6721 -4.0531
20190TIP3   OH282060   3.676   3.612  12.799 -0.7109  0.0064 -1.0221
20190TIP3    H182061   3.726   3.581  12.724 -1.1851 -0.7406 -1.0416
20190TIP3    H282062   3.587   3.583  12.782 -0.7031 -0.8068  0.1518
20191TIP3   OH282063   2.542   6.485  14.210 -0.0514  0.0676  0.2699
20191TIP3    H182064   2.613   6.531  14.166 -0.2949  0.3482  0.1673
20191TIP3    H282065   2.586   6.433  14.278  0.3345 -0.4533 -0.3647
20192TIP3   OH282066   5.004   4.818   5.092 -0.0356  0.3612  0.8467
20192TIP3    H182067   4.918   4.849   5.121 -0.2745  1.5543 -1.0052
20192TIP3    H282068   5.012   4.731   5.132 -2.7254 -0.4094 -0.0319
20193TIP3   OH282069   2.166   1.916   0.720  0.0100 -0.2894  0.0890
20193TIP3    H182070   2.081   1.889   0.685 -0.7444  2.0091 -0.0098
20193TIP3    H282071   2.147   1.995   0.771  2.2184  0.8688 -0.7658
20194TIP3   OH282072   4.136   6.049  12.355 -0.3537 -0.0553  0.0808
20194TIP3    H182073   4.118   6.035  12.262 -0.4419  1.4235 -0.1464
20194TIP3    H282074   4.049   6.050  12.396 -0.2837 -1.4003  0.3125
20195TIP3   OH282075   5.769   5.003  14.519  0.3159  0.1739 -0.4071
20195TIP3    H182076   5.793   5.091  14.549 -1.3259  1.5872 -2.7889
20195TIP3    H282077   5.734   4.960  14.597  1.9417  1.3001  1.0137
20196TIP3   OH282078   2.021   6.611  14.165  0.0334 -0.2972  0.2250
20196TIP3    H182079   1.973   6.532  14.190  0.2106  0.4395  3.4107
20196TIP3    H282080   2.111   6.594  14.195  0.1146  1.0002  0.7698
20197TIP3   OH282081   3.735   2.872  15.134 -0.3792  0.3824 -0.4507
20197TIP3    H182082   3.665   2.896  15.195  0.2922 -1.8355  1.3208
20197TIP3    H282083   3.773   2.792  15.171  3.1566  1.5086 -1.2838
20198TIP3   OH282084   1.464   0.051  11.471 -0.4549  0.2519 -0.1939
20198TIP3    H182085   1.434  -0.010  11.404 -1.1920  1.1993 -0.7396
20198TIP3    H282086   1.391   0.058  11.532  0.5700 -1.4005  1.3323
20199TIP3   OH282087   5.754   0.008   2.762 -0.0004  0.1432  0.3494
20199TIP3    H182088   5.694   0.060   2.709  0.5432 -0.3088 -0.7476
20199TIP3    H282089   5.770  -0.070   2.710  1.1352  0.0222  0.8492
20200TIP3   OH282090   5.825   2.960  17.198 -0.3015 -0.4673  0.2741
20200TIP3    H182091   5.737   2.933  17.171 -0.4940  0.4510 -0.0251
20200TIP3    H282092   5.852   2.892  17.260 -0.0863 -2.3005 -1.7061
20201TIP3   OH282093   4.254   3.948  16.278  0.2399  0.2618 -0.0321
20201TIP3    H182094   4.242   4.041  16.257  1.5169  0.4880  0.1517
20201TIP3    H282095   4.348   3.939  16.291  0.0447 -0.9252  0.6508
20202TIP3   OH282096   1.892   1.652  14.090  0.1477  0.3386  0.4791
20202TIP3    H182097   1.932   1.610  14.166 -0.2743 -0.0883  0.4701
20202TIP3    H282098   1.848   1.729  14.126  0.6671  0.6104  0.5408
20203TIP3   OH282099   0.475   3.380   2.109 -0.4942 -0.1654  0.2491
20203TIP3    H182100   0.495   3.454   2.052  0.7714 -1.5143 -1.1725
20203TIP3    H282101   0.537   3.387   2.181  0.1199 -0.2126 -0.2649
20204TIP3   OH282102   3.130   4.876  16.298  0.4084  0.3633  0.3683
20204TIP3    H182103   3.198   4.835  16.245 -1.5803 -1.9762 -0.5836
20204TIP3    H282104   3.143   4.970  16.285  2.5911 -0.0344 -0.8445
20205TIP3   OH282105   6.228   5.757   2.947 -0.6712 -0.0636 -0.0387
20205TIP3    H182106   6.273   5.716   3.021 -1.6115 -0.3201  0.4184
20205TIP3    H282107   6.171   5.688   2.913 -1.5285  0.5622  0.0985
20206TIP3   OH282108   0.030   5.158   1.605  0.0950 -0.6792 -0.4123
20206TIP3    H182109  -0.025   5.234   1.620 -2.0056 -1.8271 -1.7364
20206TIP3    H282110   0.091   5.186   1.536  0.2227  0.1835  0.0408
20207TIP3   OH282111   0.417   3.287  13.164 -0.0996  0.2097  0.4230
20207TIP3    H182112   0.457   3.238  13.236  1.1507  2.3160  1.2515
20207TIP3    H282113   0.476   3.274  13.090 -0.4041 -0.4441  0.2814
20208TIP3   OH282114   0.555   2.916  14.250  0.0748  0.1200 -0.2893
20208TIP3    H182115   0.577   2.856  14.321 -0.9498  1.2733  1.0451
20208TIP3    H282116   0.467   2.948  14.271  0.0720  1.1118 -1.6559
20209TIP3   OH282117   1.204   2.323  12.125  0.3497  0.1493  0.5387
20209TIP3    H182118   1.266   2.270  12.176 -0.7928  0.9898  2.9256
20209TIP3    H282119   1.240   2.411  12.128  0.3875  0.1678 -0.3445
20210TIP3   OH282120   4.093   4.428   1.187  1.1898  1.1346  0.1231
20210TIP3    H182121   4.035   4.384   1.249 -0.2144  1.0121 -1.2110
20210TIP3    H282122   4.180   4.392   1.206  0.3816 -0.9312  0.2478
20211TIP3   OH282123   4.851   2.679   3.047 -0.0807  0.6776 -0.2808
20211TIP3    H182124   4.879   2.608   2.990 -1.8232 -0.0315 -0.3175
20211TIP3    H282125   4.861   2.644   3.136 -0.5354  0.5141 -0.2869
20212TIP3   OH282126   4.091   1.448  11.993  0.3821  0.1635 -0.2721
20212TIP3    H182127   4.141   1.445  12.074 -1.9891  0.0170  1.2809
20212TIP3    H282128   4.004   1.415  12.017 -0.5678  0.6278 -2.7524
20213TIP3   OH282129   2.102   3.498   1.515  0.4244 -0.4823  0.5072
20213TIP3    H182130   2.115   3.561   1.444 -1.0744 -1.0517 -0.3200
20213TIP3    H282131   2.023   3.528   1.560 -0.2738 -1.7043  0.1382
20214TIP3   OH282132   1.041   5.892   1.161 -0.5555  0.4855 -0.2137
20214TIP3    H182133   1.128   5.896   1.201 -0.9716  0.1909  0.7336
20214TIP3    H282134   1.051   5.940   1.078  0.3322  1.0643  0.2110
20215TIP3   OH282135   1.042   5.366  12.701 -0.4234 -0.1295 -0.3622
20215TIP3    H182136   0.993   5.290  12.671 -0.3253 -0.0765 -0.6560
20215TIP3    H282137   1.008   5.383  12.789 -0.7745 -0.2304 -0.4772
20216TIP3   OH282138   1.553   0.767  16.407 -0.5275 -0.4276 -0.5028
20216TIP3    H182139   1.594   0.687  16.374 -0.6076 -0.3515 -0.7942
20216TIP3    H282140   1.613   0.800  16.474 -1.1137 -1.4179  0.5456
20217TIP3   OH282141   4.679   5.758   0.901  0.2970  0.0369 -0.3927
20217TIP3    H182142   4.683   5.663   0.910 -0.9662  0.1223  1.6478
20217TIP3    H282143   4.769   5.788   0.916  0.4720 -0.7580  0.1855
20218TIP3   OH282144   4.279   1.514  12.825  0.0511  1.3010  0.1624
20218TIP3    H182145   4.337   1.452  12.780 -1.0284 -0.9597  1.7226
20218TIP3    H282146   4.338   1.576  12.867  1.1638  1.5548 -1.6466
20219TIP3   OH282147   2.303   0.815  11.336 -0.2250  0.0676  0.1496
20219TIP3    H182148   2.390   0.849  11.357 -0.2579  0.1259  0.1951
20219TIP3    H282149   2.260   0.888  11.291 -0.0040 -0.2070 -0.5097
20220TIP3   OH282150   3.249   3.256  11.637 -0.1036  0.5334 -0.1194
20220TIP3    H182151   3.158   3.261  11.666 -0.4916  2.5820 -1.4653
20220TIP3    H282152   3.258   3.327  11.574  1.4688 -1.7484 -2.7341
20221TIP3   OH282153   2.912   1.298   3.480 -0.1769  0.3084 -0.2746
20221TIP3    H182154   2.888   1.292   3.572  0.3454 -1.2359 -0.2218
20221TIP3    H282155   2.992   1.351   3.480  1.1528 -1.6015  0.4407
20222TIP3   OH282156   2.758   1.003  13.958  0.2143  0.4110 -0.6463
20222TIP3    H182157   2.755   0.951  13.878 -0.8939  1.1559 -1.1170
20222TIP3    H282158   2.740   0.940  14.028  0.0518 -0.0460 -1.0916
20223TIP3   OH282159   0.631   1.760  12.842 -0.2906  0.3816  0.2409
20223TIP3    H182160   0.629   1.840  12.790  1.3216 -0.0036 -0.4653
20223TIP3    H282161   0.649   1.790  12.931  0.3505  0.8113 -0.0282
20224TIP3   OH282162   0.063   2.119   1.104  0.1501 -0.0395  0.1013
20224TIP3    H182163   0.041   2.192   1.162  1.6564 -0.3153  1.0590
20224TIP3    H282164   0.091   2.161   1.023 -0.6998  0.3781  0.0077
20225TIP3   OH282165   1.052   4.083   2.015  0.1108  0.0132 -0.0421
20225TIP3    H182166   1.045   4.081   2.110  0.2745  3.0789  0.1323
20225TIP3    H282167   1.127   4.027   1.995  0.4115 -0.2416  1.6568
20226TIP3   OH282168   3.602   3.064  12.953  0.1135 -0.6506 -0.5266
20226TIP3    H182169   3.526   3.123  12.946  1.2423  0.8312 -0.9822
20226TIP3    H282170   3.646   3.091  13.034  0.9636 -0.4330 -1.0443
20227TIP3   OH282171   5.794   1.460   1.719  0.0651  0.6473  0.0526
20227TIP3    H182172   5.854   1.391   1.748 -1.3278 -1.0713 -0.9702
20227TIP3    H282173   5.789   1.449   1.624 -0.1548  2.2332 -0.1487
20228TIP3   OH282174   6.783   3.029   0.953  0.1864  0.8246 -0.1661
20228TIP3    H182175   6.725   2.976   1.008 -0.6025 -0.3738 -2.0394
20228TIP3    H282176   6.812   3.100   1.010  0.8906 -1.3151  2.3486
20229TIP3   OH282177   6.766   4.125  12.337  0.4992 -0.0040 -0.5542
20229TIP3    H182178   6.676   4.146  12.313  0.0729 -0.1548  0.8550
20229TIP3    H282179   6.776   4.032  12.314 -0.8521 -0.9901  2.3964
20230TIP3   OH282180   2.689   5.311   0.675 -0.0477 -0.1949 -0.6352
20230TIP3    H182181   2.678   5.290   0.768 -1.3673  2.2714 -0.1538
20230TIP3    H282182   2.602   5.296   0.637 -0.0477  0.7377 -1.0255
20231TIP3   OH282183   3.733   3.145  14.556 -0.4811  0.3671 -0.0840
20231TIP3    H182184   3.769   3.097  14.481 -1.1433  0.3201 -0.3775
20231TIP3    H282185   3.722   3.078  14.624  0.0181  0.3906  0.0294
20232TIP3   OH282186   2.976   2.642  11.811  0.6957 -0.6075  0.2037
20232TIP3    H182187   2.947   2.553  11.792 -0.7027 -0.0404 -0.4329
20232TIP3    H282188   2.996   2.680  11.726 -0.3532  0.2105  0.2990
20233TIP3   OH282189   1.516   0.411   2.515  0.1078 -0.4942 -0.0915
20233TIP3    H182190   1.522   0.506   2.521  0.2968 -0.4540 -0.7995
20233TIP3    H282191   1.603   0.383   2.486 -0.3864 -0.7454 -1.3782
20234TIP3   OH282192   6.314   5.146  15.213 -0.7353 -0.2137 -0.4665
20234TIP3    H182193   6.329   5.057  15.245 -1.9281 -0.7141 -1.2190
20234TIP3    H282194   6.382   5.161  15.148  1.1415  0.4636  1.5260
20235TIP3   OH282195   3.188   4.471  15.919  0.2794 -0.1470  0.1889
20235TIP3    H182196   3.147   4.489  16.003  1.9989  0.0850  1.0039
20235TIP3    H282197   3.256   4.538  15.910  1.1006 -1.0748 -0.7088
20236TIP3   OH282198   3.770   4.488   3.601 -0.1282  0.0425  0.1430
20236TIP3    H182199   3.769   4.443   3.685 -0.2860  0.4628  0.3675
20236TIP3    H282200   3.854   4.533   3.599 -0.4690  0.7092  0.4417
20237TIP3   OH282201   6.707   0.669  15.318 -0.3421 -0.6081 -0.1871
20237TIP3    H182202   6.653   0.645  15.243 -2.1715  0.5343  0.6701
20237TIP3    H282203   6.729   0.761  15.303 -0.3257 -0.5053  0.4407
20238TIP3   OH282204   0.704   3.692   4.621 -0.3761 -0.2862 -0.0516
20238TIP3    H182205   0.648   3.764   4.651 -0.5628 -1.2472  2.0499
20238TIP3    H282206   0.793   3.721   4.640 -0.3459 -0.0341 -0.5505
20239TIP3   OH282207   5.824   2.205   1.092  0.1738 -0.0881 -0.4787
20239TIP3    H182208   5.793   2.268   1.158  1.0119 -2.5971  2.5743
20239TIP3    H282209   5.744   2.165   1.058 -0.2664 -0.2115  0.6452
20240TIP3   OH282210   2.395   3.560   3.866  0.8359  0.0731 -0.9059
20240TIP3    H182211   2.424   3.469   3.869  1.0080  0.0885 -1.8036
20240TIP3    H282212   2.303   3.557   3.893  1.5005 -0.0300  1.4731
20241TIP3   OH282213   4.493   4.559   4.388 -0.8570  0.0982  0.4551
20241TIP3    H182214   4.568   4.501   4.399 -1.3885 -0.2851  2.4342
20241TIP3    H282215   4.532   4.645   4.371  0.0003 -0.3307  0.1884
20242TIP3   OH282216   1.120   5.727   6.654 -0.0893  0.1904 -0.5319
20242TIP3    H182217   1.076   5.710   6.571  1.4431  1.0019 -1.5663
20242TIP3    H282218   1.132   5.641   6.693 -2.8208 -0.0482 -0.0239
20243TIP3   OH282219   4.199   0.972  12.782 -0.1636  0.2035 -0.1280
20243TIP3    H182220   4.235   1.049  12.738 -0.6553  0.6931  0.3035
20243TIP3    H282221   4.250   0.965  12.863  0.9290 -0.8599 -0.8754
20244TIP3   OH282222   2.487   4.632  13.977  0.1161 -0.3808  0.1131
20244TIP3    H182223   2.458   4.707  14.028  2.3566 -1.0380  2.6342
20244TIP3    H282224   2.413   4.572  13.977 -0.4814  0.3320  1.2693
20245TIP3   OH282225   5.744   5.140  10.500  0.3055 -0.0301  0.2079
20245TIP3    H182226   5.770   5.141  10.592 -2.6593 -0.5572  1.1618
20245TIP3    H282227   5.822   5.171  10.453  1.8358  0.5284  2.8769
20246TIP3   OH282228   0.375   5.560  15.275 -0.2125  0.6229 -0.1764
20246TIP3    H182229   0.342   5.648  15.290  1.3713  1.5834 -1.9787
20246TIP3    H282230   0.450   5.551  15.333 -0.9785  0.0474  0.7534
20247TIP3   OH282231   4.412   3.658  11.924 -0.3246  0.4123  0.3208
20247TIP3    H182232   4.383   3.734  11.873 -0.1261 -0.1187 -0.6242
20247TIP3    H282233   4.507   3.664  11.923 -0.3147  0.2693  0.4151
20248TIP3   OH282234   2.660   0.759  14.613 -0.0156 -0.6558 -0.3396
20248TIP3    H182235   2.599   0.800  14.552 -1.6569 -4.2586 -1.4061
20248TIP3    H282236   2.654   0.812  14.693 -2.1305  0.9335 -1.4532
20249TIP3   OH282237   6.730   4.964   4.047 -0.3805 -0.3992  0.4056
20249TIP3    H182238   6.636   4.973   4.029 -0.1187  1.1236 -0.3590
20249TIP3    H282239   6.736   4.958   4.142 -1.1794  1.0585  0.5808
20250TIP3   OH282240   5.209   1.588   0.882  0.2245 -0.7692  0.2934
20250TIP3    H182241   5.213   1.546   0.796  3.9134  0.7808 -0.5127
20250TIP3    H282242   5.197   1.516   0.943 -1.5560 -2.0129 -1.3903
20251TIP3   OH282243   6.273   6.348   4.079  0.5227 -0.1287  0.3312
20251TIP3    H182244   6.271   6.442   4.063  0.0044 -0.1385  0.3173
20251TIP3    H282245   6.215   6.311   4.012  0.7980 -0.4666  0.2777
20252TIP3   OH282246   2.203   3.992  13.779 -0.3980  0.4859  0.3335
20252TIP3    H182247   2.252   3.912  13.796  0.8280  1.5054  1.9454
20252TIP3    H282248   2.179   3.987  13.686  0.9489 -1.0356  0.0262
20253TIP3   OH282249   3.548   3.622  11.597 -0.5577 -0.3398 -0.1151
20253TIP3    H182250   3.500   3.673  11.532  0.5308  0.9507  0.0532
20253TIP3    H282251   3.489   3.618  11.673 -1.0264 -0.1529 -0.4628
20254TIP3   OH282252   0.336   5.366   4.390  0.0741  0.3988 -0.3028
20254TIP3    H182253   0.319   5.284   4.437  0.9398 -1.1409 -2.4997
20254TIP3    H282254   0.419   5.397   4.426 -0.4278  0.5293  0.7787
20255TIP3   OH282255   2.029   6.744   3.046  1.3919 -0.2190  0.3386
20255TIP3    H182256   2.124   6.741   3.041  1.3924 -0.9506  0.6404
20255TIP3    H282257   2.002   6.652   3.043  0.7434 -0.0632  0.9873
20256TIP3   OH282258   0.151   0.382   0.981 -0.4430  0.1820 -0.3409
20256TIP3    H182259   0.084   0.424   1.034 -0.3334  1.7251 -1.3505
20256TIP3    H282260   0.125   0.399   0.890  0.9901  0.3240 -0.7564
20257TIP3   OH282261   3.216   4.802  15.980  0.4333  0.3763 -0.1176
20257TIP3    H182262   3.276   4.867  15.943  0.5230 -0.2423 -1.1045
20257TIP3    H282263   3.272   4.739  16.024  0.6668 -0.8868 -2.1040
20258TIP3   OH282264   5.509   1.916   1.664  0.2891 -0.8602  0.6333
20258TIP3    H182265   5.533   1.944   1.753 -0.5927 -0.3041  0.7143
20258TIP3    H282266   5.452   1.840   1.677 -1.1443  0.1726  0.6459
20259TIP3   OH282267   6.464   3.815   3.350  0.1229  0.0768 -0.3714
20259TIP3    H182268   6.556   3.842   3.353 -0.0124  0.5170  2.2701
20259TIP3    H282269   6.415   3.897   3.347 -0.1840  0.0186  1.6564
20260TIP3   OH282270   3.880   3.180  12.512  0.4662  0.1009 -0.3274
20260TIP3    H182271   3.848   3.091  12.531  0.2435 -0.0768 -1.4657
20260TIP3    H282272   3.976   3.172  12.516  0.4741  0.5085  2.5221
20261TIP3   OH282273   2.214   4.076   2.697 -0.1145 -0.2411  0.2223
20261TIP3    H182274   2.257   4.069   2.782 -0.6824  0.7759  0.6201
20261TIP3    H282275   2.138   4.018   2.703 -0.2338 -0.0621  0.4675
20262TIP3   OH282276   5.927   6.072  12.450 -0.4275  0.0357  0.1826
20262TIP3    H182277   5.954   6.051  12.361 -0.7759  0.1053  0.0595
20262TIP3    H282278   5.933   6.167  12.455  1.2131 -0.0786  0.7614
20263LIG     O182279   2.433   2.496  10.406  0.0566 -0.1955  0.2706
20263LIG     O282280   2.545   2.588  10.602  0.4079  0.1911 -0.2676
20263LIG     O382281   2.735   2.480  10.534  0.3100 -0.1280  0.2412
20263LIG     O482282   2.190   2.573  10.570  0.2145 -0.2114 -0.1980
20263LIG     O582283   2.233   2.289  10.629 -0.5745 -0.0150  0.4967
20263LIG     O682284   2.680   2.852  10.591 -0.5487  0.2352  0.0014
20263LIG     O782285   2.710   2.677  10.832  0.2074  0.0150  0.2511
20263LIG     O882286   2.953   2.503  10.833  0.3360 -0.6078 -0.1303
20263LIG     O982287   2.383   2.833  10.578 -0.3496 -0.8148  0.1187
20263LIG    O1082288   2.571   2.259  10.419  0.2971 -0.0287 -0.1597
20263LIG    O1182289   2.841   2.226  10.768  0.9476 -0.3171  0.5059
20263LIG     C182290   2.426   2.588  10.520 -0.3414  0.0303  0.3899
20263LIG     C282291   2.317   2.528  10.608  0.9424 -0.8027 -0.6811
20263LIG     C382292   2.333   2.380  10.584  0.7681 -0.3534 -1.4895
20263LIG     C482293   2.358   2.377  10.437 -0.9696 -0.1604  0.2287
20263LIG     C582294   2.657   2.602  10.530 -0.6993  0.7837 -0.0936
20263LIG     C682295   2.744   2.718  10.590 -0.0066 -0.5808 -0.1710
20263LIG     C782296   2.809   2.677  10.730  0.0647  0.0150  0.2362
20263LIG     C882297   2.884   2.544  10.714 -0.4583 -0.1260 -0.2471
20263LIG     C982298   2.781   2.442  10.665  0.2719  0.2709 -0.4102
20263LIG    C1082299   2.397   2.735  10.472 -0.3168  0.7074  0.0577
20263LIG    C1182300   2.432   2.253  10.385 -0.2133 -0.3255  0.1346
20263LIG    C1282301   2.833   2.300  10.646 -0.3461 -0.2764  0.5280
20263LIG     H182302   2.328   2.552  10.715  0.7687 -1.8529 -0.4147
20263LIG     H282303   2.423   2.347  10.638 -0.6834  0.0586  1.3526
20263LIG     H382304   2.263   2.384  10.383 -0.8814 -2.8376 -0.4662
20263LIG     H482305   2.634   2.628  10.424  2.7763 -0.7636 -1.3716
20263LIG     H582306   2.836   2.718  10.528 -0.0006 -0.2214 -0.1644
20263LIG     H682307   2.887   2.753  10.751  1.0943  0.5249 -4.3552
20263LIG     H782308   2.959   2.557  10.633 -2.7261  3.3117 -2.0612
20263LIG     H882309   2.690   2.435  10.727  1.5100 -0.5016  1.3952
20263LIG     H982310   2.483   2.779  10.417  1.1250  0.2310  1.8315
20263LIG    H1082311   2.318   2.722  10.395 -0.8467 -0.3668  0.7506
20263LIG    H1182312   2.390   2.159  10.425  1.5220 -1.8717 -1.4814
20263LIG    H1282313   2.428   2.254  10.274  2.2308  0.6702 -0.0088
20263LIG    H1382314   2.762   2.249  10.578 -0.1124  0.2068 -0.0870
20263LIG    H1482315   2.929   2.296  10.591 -0.3123 -1.4004  0.6526
20263LIG    H1582316   2.135   2.544  10.643 -0.8321  1.6987 -0.1582
20263LIG    H1682317   2.283   2.212  10.657 -0.4573  0.6296  2.1801
20263LIG    H1782318   2.588   2.835  10.614 -0.3068 -0.3524  0.5735
20263LIG    H1882319   2.759   2.675  10.915 -0.1699  0.3848  0.4871
20263LIG    H1982320   3.010   2.429  10.813  0.9125 -0.2448  0.1474
20263LIG    H2082321   2.288   2.835  10.593 -0.5675 -1.1816 -1.1178
20263LIG    H2182322   2.608   2.338  10.379 -1.7349  0.4031 -1.2849
20263LIG    H2282323   2.817   2.134  10.751  0.5469 -0.1348  0.0784
   6.82208   6.82208  17.30167
